Title
82302
    1SAPS     N    1   0.029   6.798  11.198 -1.2603  0.7121 -0.2820
    1SAPS   HN1    2   0.020   6.838  11.294  0.8206 -0.4667  0.4599
    1SAPS   HN2    3  -0.059   6.748  11.174  0.2599 -1.0621 -2.5130
    1SAPS   HN3    4   0.113   6.737  11.199 -1.3543  0.5630 -0.9949
    1SAPS   C12    5   0.048   6.915  11.110 -0.7075 -0.4312  0.2648
    1SAPS  H12A    6  -0.050   6.960  11.112 -0.8279 -0.5314 -1.5088
    1SAPS   C13    7   0.156   7.015  11.161  0.3601  0.0991 -0.0957
    1SAPS  O13A    8   0.234   6.985  11.254 -0.0524  0.1643  0.2598
    1SAPS  O13B    9   0.177   7.120  11.090  0.4773  0.4575  0.4588
    1SAPS   C11   10   0.080   6.864  10.961  0.0121 -0.2208 -0.2451
    1SAPS  H11A   11   0.181   6.817  10.961  0.7153  1.2303  0.7227
    1SAPS  H11B   12   0.082   6.956  10.899  0.8789  0.5378  0.8814
    1SAPS     P   13  -0.007   6.631  10.876  0.2367 -0.4763 -0.0323
    1SAPS   O13   14   0.048   6.556  10.989 -0.3266 -0.0926 -0.5377
    1SAPS   O14   15  -0.138   6.584  10.829 -0.4151  0.8819 -0.3405
    1SAPS   O12   16  -0.025   6.790  10.912 -0.1626  0.1232  0.1841
    1SAPS   O11   17   0.097   6.641  10.760  0.7379  0.2631  0.3397
    1SAPS    C1   18   0.085   6.710  10.640 -0.2234  0.1614 -0.3764
    1SAPS    HA   19  -0.020   6.725  10.607 -0.3691 -1.3189 -0.6723
    1SAPS    HB   20   0.116   6.807  10.685 -0.6277 -0.8976  2.4085
    1SAPS    C2   21   0.170   6.650  10.532 -0.1670 -0.3353  0.0180
    1SAPS    HS   22   0.168   6.722  10.447  1.2765  1.1162  1.1374
    1SAPS   O21   23   0.121   6.513  10.502 -0.6357 -0.1220  0.3314
    1SAPS   C21   24   0.021   6.507  10.414 -0.0078  0.0591 -0.5657
    1SAPS   O22   25  -0.050   6.600  10.390 -0.1478 -0.4716  0.7820
    1SAPS   C22   26   0.011   6.366  10.357  0.4110 -0.5256  0.4492
    1SAPS   H2R   27   0.119   6.341  10.350  1.1794  1.8358  2.4691
    1SAPS   H2S   28  -0.035   6.306  10.438  0.8235 -0.8160  0.4724
    1SAPS    C3   29   0.319   6.643  10.592  0.2250  0.0857  0.0833
    1SAPS    HX   30   0.320   6.579  10.683 -1.2292 -0.8022 -0.4952
    1SAPS    HY   31   0.338   6.748  10.622  0.6400  0.1782 -0.4946
    1SAPS   O31   32   0.412   6.600  10.494  0.1309  0.4235 -0.5209
    1SAPS   C31   33   0.421   6.467  10.491  0.5143 -0.3766  0.5689
    1SAPS   O32   34   0.372   6.385  10.566  0.1104  0.2945 -0.3405
    1SAPS   C32   35   0.504   6.430  10.371 -0.8417  0.3856  0.1058
    1SAPS   H2X   36   0.568   6.345  10.402 -0.5017 -0.1506 -1.9008
    1SAPS   H2Y   37   0.578   6.509  10.346 -0.4045 -0.5736 -1.8859
    1SAPS   C23   38  -0.067   6.362  10.222  0.1543 -0.1168 -0.2756
    1SAPS   H3R   39  -0.030   6.283  10.154  0.5660  1.1174 -1.5381
    1SAPS   H3S   40  -0.058   6.458  10.167 -1.6087  0.1548 -0.1681
    1SAPS   C24   41  -0.221   6.341  10.242  0.9524  0.3879  0.2490
    1SAPS   H4R   42  -0.270   6.323  10.144 -0.2168 -1.3428  1.0808
    1SAPS   H4S   43  -0.271   6.433  10.279 -1.4180 -1.3389  1.6395
    1SAPS   C25   44  -0.270   6.236  10.336 -0.5410  0.2694  0.1701
    1SAPS   H5R   45  -0.241   6.247  10.442 -0.4822  0.1203  0.1694
    1SAPS   C26   46  -0.321   6.118  10.299  0.0647  0.4954  0.0313
    1SAPS   H6R   47  -0.346   6.041  10.373 -0.0869  2.4412  2.1418
    1SAPS   C27   48  -0.343   6.072  10.157  0.5212  0.6287  0.2836
    1SAPS   H7R   49  -0.249   6.083  10.100  2.3637 -2.5705  2.3888
    1SAPS   H7S   50  -0.417   6.142  10.113 -2.0129 -1.5718  0.7976
    1SAPS   C28   51  -0.404   5.934  10.147  1.0886 -0.3424  0.6885
    1SAPS   H8R   52  -0.460   5.904  10.236  0.2720  0.0643  0.3237
    1SAPS   C29   53  -0.404   5.848  10.048  0.1361  0.3985 -0.4100
    1SAPS   H9R   54  -0.463   5.758  10.070  1.1498  0.2923  2.3132
    1SAPS  C210   55  -0.349   5.868   9.915 -0.5569  0.9182  0.2361
    1SAPS  H10R   56  -0.276   5.950   9.937  0.9865 -0.9047  2.4103
    1SAPS  H10S   57  -0.435   5.902   9.854 -0.5297  0.5711  0.0054
    1SAPS  C211   58  -0.277   5.750   9.856  0.0051 -0.6355  0.1161
    1SAPS  H11R   59  -0.203   5.701   9.920  0.5954  0.6614  0.4512
    1SAPS  C212   60  -0.303   5.699   9.734  0.3402 -0.1840  0.0636
    1SAPS  H12R   61  -0.244   5.611   9.703 -0.5576 -0.5195 -0.7253
    1SAPS  C213   62  -0.398   5.753   9.627 -0.3830 -0.1952 -0.2014
    1SAPS  H13R   63  -0.487   5.795   9.678 -0.0301 -0.5802  0.7563
    1SAPS  H13S   64  -0.421   5.677   9.549 -0.6186 -2.4633  1.9603
    1SAPS  C214   65  -0.326   5.874   9.572  0.7095  0.1963  0.0835
    1SAPS  H14R   66  -0.321   5.953   9.648 -1.8787  1.5144 -0.9769
    1SAPS  C215   67  -0.290   5.913   9.442 -0.0837  0.1855  0.1525
    1SAPS  H15R   68  -0.232   6.007   9.444  4.4558 -2.3555  2.0690
    1SAPS  C216   69  -0.323   5.829   9.318 -0.1766  0.1211 -0.5127
    1SAPS  H16R   70  -0.369   5.734   9.351 -2.8275  1.9452  1.4574
    1SAPS  H16S   71  -0.230   5.785   9.276 -0.9864 -0.8578 -1.3446
    1SAPS  C217   72  -0.404   5.892   9.205  1.1103 -0.1349 -0.2723
    1SAPS  H17R   73  -0.414   5.999   9.235  2.3546 -0.4489  1.4223
    1SAPS  H17S   74  -0.505   5.847   9.196  1.6263 -1.1832 -1.0041
    1SAPS  C218   75  -0.334   5.869   9.071 -0.4117 -0.8079 -0.6289
    1SAPS  H18R   76  -0.344   5.761   9.049  3.8834 -1.3137 -0.8235
    1SAPS  H18S   77  -0.225   5.889   9.075  0.0113 -2.0482 -3.6129
    1SAPS  C219   78  -0.382   5.959   8.953 -0.6730  0.7180  0.2936
    1SAPS  H19R   79  -0.371   6.066   8.983  0.8534  0.3378  1.2278
    1SAPS  H19S   80  -0.490   5.946   8.931 -0.1620 -2.3945 -0.9157
    1SAPS  C220   81  -0.304   5.926   8.821  0.6358 -0.4280 -0.7538
    1SAPS  H20R   82  -0.323   5.824   8.781  0.0097  0.7946 -3.9471
    1SAPS  H20S   83  -0.194   5.925   8.835  0.4877 -1.0920  0.4966
    1SAPS  H20T   84  -0.330   6.000   8.742  2.7283  0.0436 -1.0409
    1SAPS   C33   85   0.420   6.400  10.245  0.0468  0.9753 -0.4751
    1SAPS   H3X   86   0.351   6.314  10.265 -0.6300  1.4612 -0.6743
    1SAPS   H3Y   87   0.496   6.365  10.172  2.0252  1.4247  1.2862
    1SAPS   C34   88   0.339   6.519  10.184 -0.3422  0.2220  0.1136
    1SAPS   H4X   89   0.402   6.610  10.182 -2.0618  1.4610  0.8563
    1SAPS   H4Y   90   0.260   6.548  10.257  0.7141  3.8749  0.0082
    1SAPS   C35   91   0.287   6.488  10.039  0.5873  0.1299  0.3661
    1SAPS   H5X   92   0.212   6.405  10.046  0.7289 -0.2038 -1.4590
    1SAPS   H5Y   93   0.368   6.454   9.971 -0.8707 -0.6754 -1.0565
    1SAPS   C36   94   0.216   6.611   9.986  0.2500  0.4745 -0.2460
    1SAPS   H6X   95   0.284   6.698   9.988 -0.5585  1.2731 -2.8813
    1SAPS   H6Y   96   0.127   6.641  10.045 -1.0362  2.8742 -3.1570
    1SAPS   C37   97   0.174   6.594   9.838 -0.0310  0.5613 -0.1223
    1SAPS   H7X   98   0.078   6.538   9.834 -0.1150  0.7304 -0.5834
    1SAPS   H7Y   99   0.247   6.549   9.767 -0.1745  3.6157 -2.4398
    1SAPS   C38  100   0.123   6.728   9.771  0.2215  0.2501 -1.1832
    1SAPS   H8X  101   0.206   6.802   9.771  1.3663 -0.9635  0.2559
    1SAPS   H8Y  102   0.043   6.771   9.835  1.9501 -0.6059  1.7195
    1SAPS   C39  103   0.062   6.720   9.635 -0.0139  0.8774  0.3821
    1SAPS   H9X  104  -0.042   6.685   9.650  0.4102 -0.6549 -0.0973
    1SAPS   H9Y  105   0.112   6.636   9.582  0.7544  1.4521  0.1731
    1SAPS  C310  106   0.083   6.850   9.557 -0.1777  0.3488 -0.4966
    1SAPS  H10X  107   0.187   6.886   9.566  0.8448 -2.3779 -0.3321
    1SAPS  H10Y  108   0.024   6.929   9.609 -0.8576  0.6410 -1.6681
    1SAPS  C311  109   0.046   6.834   9.408  0.3217 -0.0330 -0.0059
    1SAPS  H11X  110  -0.060   6.801   9.415  0.3903 -0.0367  1.0844
    1SAPS  H11Y  111   0.114   6.763   9.354 -0.8397  1.6099 -4.0532
    1SAPS  C312  112   0.033   6.959   9.324  0.3386 -0.5127 -0.1494
    1SAPS  H12X  113   0.132   7.009   9.322  0.2976 -0.4267 -0.0574
    1SAPS  H12Y  114  -0.033   7.026   9.384  0.1221 -3.1565  2.8070
    1SAPS  C313  115  -0.034   6.942   9.187 -0.4841  0.2196 -0.5806
    1SAPS  H13X  116  -0.133   6.892   9.197 -0.3020 -0.0633 -0.1095
    1SAPS  H13Y  117   0.025   6.876   9.121 -2.2680 -3.1023  0.8805
    1SAPS  C314  118  -0.055   7.084   9.130 -0.2792  0.1784  0.0685
    1SAPS  H14X  119   0.046   7.118   9.098 -0.0681  2.4303  2.7751
    1SAPS  H14Y  120  -0.089   7.160   9.204 -0.3532 -0.1176  0.3383
    1SAPS  C315  121  -0.146   7.078   9.010  0.2503 -1.3138  0.5056
    1SAPS  H15X  122  -0.240   7.031   9.047  1.1847 -2.0056  2.1150
    1SAPS  H15Y  123  -0.098   7.002   8.943 -0.1021  0.0813 -1.4191
    1SAPS  C316  124  -0.164   7.214   8.934  0.9064  0.3230 -0.2463
    1SAPS  H16X  125  -0.057   7.246   8.934  1.2617 -0.8014 -0.2496
    1SAPS  H16Y  126  -0.220   7.281   9.003 -1.2972 -1.2787 -0.3916
    1SAPS  C317  127  -0.229   7.223   8.791  0.0946  0.5551 -0.6509
    1SAPS  H17X  128  -0.243   7.331   8.769  0.4323  0.4805 -1.2477
    1SAPS  H17Y  129  -0.331   7.180   8.798 -0.6809  2.4804  0.7796
    1SAPS  C318  130  -0.134   7.170   8.692 -0.0063 -0.4362 -0.4308
    1SAPS  H18X  131  -0.034   7.215   8.712 -1.4446  2.7685  0.2530
    1SAPS  H18Y  132  -0.160   7.198   8.587 -1.9731  0.0851  0.1587
    1SAPS  H18Z  133  -0.130   7.059   8.694  0.3953 -0.5637 -3.4446
    2SAPS     N  134   3.573   4.749  10.559 -0.2039  0.0338 -0.3410
    2SAPS   HN1  135   3.635   4.686  10.505 -0.7753  0.8433 -1.9948
    2SAPS   HN2  136   3.491   4.694  10.593 -1.1348  3.1705  3.2153
    2SAPS   HN3  137   3.543   4.818  10.488 -0.0971 -1.0766 -1.5047
    2SAPS   C12  138   3.651   4.817  10.663  0.2950  0.2317 -0.4688
    2SAPS  H12A  139   3.582   4.852  10.738  1.0655  2.5317 -0.7327
    2SAPS   C13  140   3.757   4.735  10.733  0.1464 -0.2325 -0.3811
    2SAPS  O13A  141   3.780   4.620  10.689  0.0598  0.0306 -0.2450
    2SAPS  O13B  142   3.812   4.781  10.834  0.1314 -0.3669  0.0988
    2SAPS   C11  143   3.725   4.935  10.598 -0.3772 -0.0349 -0.4405
    2SAPS  H11A  144   3.792   4.911  10.513  0.0641  0.3773 -0.2103
    2SAPS  H11B  145   3.790   4.985  10.673 -0.8621  1.8788 -1.2347
    2SAPS     P  146   3.605   5.085  10.430 -0.3874 -0.1711  0.0791
    2SAPS   O13  147   3.538   4.967  10.374 -0.0734  0.3894 -0.3274
    2SAPS   O14  148   3.534   5.214  10.436  0.0334 -0.3665  0.2567
    2SAPS   O12  149   3.633   5.046  10.575 -0.0030  0.2558 -0.2140
    2SAPS   O11  150   3.743   5.105  10.350  0.0882 -0.3440 -0.6469
    2SAPS    C1  151   3.862   5.153  10.406  0.7323 -0.0772  0.6042
    2SAPS    HA  152   3.880   5.127  10.513 -2.9509 -1.3871  1.0244
    2SAPS    HB  153   3.948   5.120  10.344  1.5463  0.1664  1.5712
    2SAPS    C2  154   3.868   5.307  10.392 -0.9901 -0.4987  0.1099
    2SAPS    HS  155   3.790   5.356  10.453 -0.7756  1.0691 -0.8102
    2SAPS   O21  156   3.829   5.342  10.259  0.6411  0.4438  0.2327
    2SAPS   C21  157   3.825   5.469  10.229  0.2458  0.1972 -0.5195
    2SAPS   O22  158   3.829   5.562  10.300  0.1211 -1.0015 -0.4042
    2SAPS   C22  159   3.821   5.471  10.077 -0.1846 -0.4349 -0.8035
    2SAPS   H2R  160   3.873   5.378  10.046  0.0503 -0.6326  0.1547
    2SAPS   H2S  161   3.717   5.470  10.038  0.2313 -1.3623 -1.9181
    2SAPS    C3  162   4.015   5.354  10.440  0.4081  1.3065 -0.1669
    2SAPS    HX  163   4.016   5.321  10.546 -0.3146 -1.8679 -1.0340
    2SAPS    HY  164   4.023   5.465  10.439 -0.2497  1.4414  2.2999
    2SAPS   O31  165   4.119   5.280  10.372 -0.4954 -0.3794 -0.1358
    2SAPS   C31  166   4.170   5.337  10.265 -0.5961 -0.6253 -0.4733
    2SAPS   O32  167   4.157   5.451  10.231  0.1647  0.1404 -0.6098
    2SAPS   C32  168   4.246   5.243  10.181 -0.5221  0.2964 -0.6101
    2SAPS   H2X  169   4.306   5.173  10.243  0.0500 -1.6522 -3.1886
    2SAPS   H2Y  170   4.319   5.298  10.118 -0.2421  0.2015 -0.3705
    2SAPS   C23  171   3.889   5.596  10.021 -0.0552 -0.0279 -0.8346
    2SAPS   H3R  172   3.997   5.595  10.048 -0.5482  0.9460  1.4181
    2SAPS   H3S  173   3.851   5.692  10.063 -0.9195 -0.2793 -1.0188
    2SAPS   C24  174   3.887   5.585   9.873  0.1893 -0.3806  0.3748
    2SAPS   H4R  175   3.930   5.489   9.837  1.3616 -0.3946  1.7173
    2SAPS   H4S  176   3.948   5.670   9.837 -1.2326  0.5472  0.0897
    2SAPS   C25  177   3.751   5.597   9.800 -0.4705  0.3900  0.2246
    2SAPS   H5R  178   3.660   5.582   9.860 -1.5113  1.3853 -1.0176
    2SAPS   C26  179   3.744   5.624   9.672  0.3560  0.1187 -0.6406
    2SAPS   H6R  180   3.639   5.632   9.639  0.0322  0.0036  0.3369
    2SAPS   C27  181   3.859   5.643   9.574 -0.3065  0.3757 -0.6903
    2SAPS   H7R  182   3.951   5.661   9.634 -0.1246 -0.8400 -0.5788
    2SAPS   H7S  183   3.835   5.734   9.516  0.8986  0.6538 -0.7893
    2SAPS   C28  184   3.887   5.528   9.483 -0.1315  0.6507  0.1711
    2SAPS   H8R  185   3.856   5.431   9.525  0.9556 -0.0618 -0.6449
    2SAPS   C29  186   3.929   5.526   9.352 -0.2609 -0.0721  0.8490
    2SAPS   H9R  187   3.937   5.429   9.301 -1.0909 -0.3922  1.3091
    2SAPS  C210  188   3.979   5.642   9.271 -0.0644 -0.1723  0.2083
    2SAPS  H10R  189   4.072   5.616   9.215 -0.5173  2.2285 -1.8114
    2SAPS  H10S  190   4.008   5.727   9.336 -1.9901  1.1137 -0.5361
    2SAPS  C211  191   3.878   5.691   9.174  0.6003  0.5006 -0.8633
    2SAPS  H11R  192   3.776   5.693   9.215  1.3269 -1.3707  1.2297
    2SAPS  C212  193   3.901   5.700   9.042  0.3146  0.7455  0.3267
    2SAPS  H12R  194   3.816   5.720   8.975  0.1727 -1.2015 -0.1450
    2SAPS  C213  195   4.033   5.675   8.971 -0.5975  0.4637  0.1700
    2SAPS  H13R  196   4.116   5.695   9.042 -1.4152  1.1526  0.9555
    2SAPS  H13S  197   4.057   5.743   8.886  0.6990  0.4863  0.5289
    2SAPS  C214  198   4.034   5.525   8.938 -0.8064 -0.0633  0.8727
    2SAPS  H14R  199   3.943   5.464   8.951  0.3521 -2.1022 -0.0599
    2SAPS  C215  200   4.148   5.459   8.901 -0.3643  0.2243 -0.3950
    2SAPS  H15R  201   4.153   5.350   8.886  2.0976  0.0189  1.2345
    2SAPS  C216  202   4.287   5.509   8.890 -0.0661  0.9531  0.3131
    2SAPS  H16R  203   4.322   5.521   8.995 -3.3905  2.2716  1.4022
    2SAPS  H16S  204   4.293   5.604   8.834  1.8441  0.0496 -1.1061
    2SAPS  C217  205   4.377   5.403   8.811  0.8690  0.1938  0.2295
    2SAPS  H17R  206   4.336   5.381   8.710  0.1817 -0.5372  0.6635
    2SAPS  H17S  207   4.358   5.311   8.869 -4.0922  2.1044  2.2320
    2SAPS  C218  208   4.526   5.436   8.815  0.3819 -0.1004  0.0228
    2SAPS  H18R  209   4.583   5.342   8.798  1.4411  0.5767 -0.2690
    2SAPS  H18S  210   4.548   5.467   8.919 -0.9692  0.4375  0.1681
    2SAPS  C219  211   4.565   5.547   8.709 -0.1531 -0.0987  0.1624
    2SAPS  H19R  212   4.659   5.601   8.731 -0.2929 -0.0617  0.6913
    2SAPS  H19S  213   4.483   5.622   8.724  0.3725  0.4330  0.4085
    2SAPS  C220  214   4.560   5.500   8.570  0.3999 -0.1783 -0.2865
    2SAPS  H20R  215   4.639   5.432   8.533  0.8494  0.6802 -0.9633
    2SAPS  H20S  216   4.563   5.595   8.511  2.9046  0.5699  0.8919
    2SAPS  H20T  217   4.461   5.452   8.559  0.9556 -0.9439 -2.5031
    2SAPS   C33  218   4.152   5.170  10.086 -0.0708 -0.4484  0.4679
    2SAPS   H3X  219   4.048   5.172  10.126  0.4270 -1.3201  1.8829
    2SAPS   H3Y  220   4.165   5.060  10.098  0.0643 -0.3117  1.7562
    2SAPS   C34  221   4.151   5.232   9.949  0.3998 -0.2993  0.5016
    2SAPS   H4X  222   4.254   5.232   9.908 -0.0026 -1.7269 -0.6166
    2SAPS   H4Y  223   4.129   5.340   9.957  0.8215 -0.1997  0.3327
    2SAPS   C35  224   4.055   5.170   9.846  0.0580  0.5002  0.0692
    2SAPS   H5X  225   3.947   5.176   9.872 -0.6964 -1.0257 -2.3232
    2SAPS   H5Y  226   4.077   5.061   9.840 -1.4491  0.2460 -1.9125
    2SAPS   C36  227   4.077   5.209   9.701 -0.1615 -0.2102  0.5603
    2SAPS   H6X  228   4.178   5.168   9.684 -0.4637 -1.0828  0.7832
    2SAPS   H6Y  229   4.068   5.316   9.674 -0.8324 -0.5818 -0.7974
    2SAPS   C37  230   3.982   5.139   9.599 -0.0338  0.1052  0.2527
    2SAPS   H7X  231   3.885   5.192   9.604 -0.7503 -1.2928  2.0337
    2SAPS   H7Y  232   3.967   5.033   9.626 -1.4590 -0.2986 -1.8878
    2SAPS   C38  233   4.035   5.144   9.457  0.0624 -0.1327  0.3074
    2SAPS   H8X  234   4.128   5.084   9.444 -0.4445 -1.2161  1.5260
    2SAPS   H8Y  235   4.074   5.243   9.426 -2.8217  0.2858 -2.5432
    2SAPS   C39  236   3.926   5.107   9.355 -0.3075  0.1122  0.5763
    2SAPS   H9X  237   3.829   5.156   9.376 -0.2649  1.2430 -1.5554
    2SAPS   H9Y  238   3.901   4.999   9.362 -2.8363  0.6625  0.6361
    2SAPS  C310  239   3.967   5.139   9.213 -0.3296  0.0733 -0.0062
    2SAPS  H10X  240   4.071   5.104   9.201  1.1869  4.4452 -2.0369
    2SAPS  H10Y  241   3.972   5.248   9.189  0.0866  0.4292  1.6019
    2SAPS  C311  242   3.873   5.064   9.112 -0.7118  0.4030 -0.4450
    2SAPS  H11X  243   3.873   4.957   9.141  2.1172  0.7437  1.1493
    2SAPS  H11Y  244   3.914   5.071   9.009  0.3944  1.5030  0.0389
    2SAPS  C312  245   3.729   5.121   9.105  0.1926 -0.8803  0.3463
    2SAPS  H12X  246   3.733   5.227   9.074 -0.1889 -1.2574 -1.0954
    2SAPS  H12Y  247   3.678   5.124   9.204 -2.2845  0.3920 -0.8648
    2SAPS  C313  248   3.650   5.046   8.992  0.0241  0.1069  0.0776
    2SAPS  H13X  249   3.647   4.941   9.029 -1.0219  0.9514  2.6087
    2SAPS  H13Y  250   3.705   5.053   8.896  0.1943  0.0545  0.1715
    2SAPS  C314  251   3.509   5.110   8.972  0.6701 -0.6794 -0.1873
    2SAPS  H14X  252   3.504   5.214   8.933 -1.4410  0.1945  2.1598
    2SAPS  H14Y  253   3.457   5.103   9.069  0.5386 -1.5585 -0.3115
    2SAPS  C315  254   3.417   5.018   8.885  0.5922  0.5076 -0.2087
    2SAPS  H15X  255   3.459   4.917   8.903  2.1175  1.3373  1.2198
    2SAPS  H15Y  256   3.427   5.050   8.779 -1.8482 -1.7000 -1.1935
    2SAPS  C316  257   3.270   5.018   8.926 -0.4184 -0.5365 -0.1217
    2SAPS  H16X  258   3.262   4.993   9.034  1.2510 -0.3484  0.0655
    2SAPS  H16Y  259   3.197   4.956   8.869 -1.7924 -0.3818  1.3877
    2SAPS  C317  260   3.221   5.167   8.910 -0.1349  0.3260 -0.4242
    2SAPS  H17X  261   3.284   5.221   8.837 -1.6868  3.0258  0.1013
    2SAPS  H17Y  262   3.225   5.227   9.003  0.3701  0.1987 -0.3620
    2SAPS  C318  263   3.070   5.185   8.870  0.5821 -0.0836  0.2882
    2SAPS  H18X  264   3.051   5.119   8.783 -0.8300  0.5623  0.0746
    2SAPS  H18Y  265   3.049   5.282   8.821 -0.4465  0.2600  1.3665
    2SAPS  H18Z  266   3.007   5.159   8.958  0.9738  1.3387  1.0214
    3SAPS     N  267   5.873   5.295  11.044 -0.2953 -0.3545  0.3679
    3SAPS   HN1  268   5.884   5.393  11.077 -0.2053 -0.4827  0.7206
    3SAPS   HN2  269   5.866   5.302  10.941 -1.0605 -0.3630  0.4103
    3SAPS   HN3  270   5.782   5.269  11.089 -0.6417  0.0629 -0.0851
    3SAPS   C12  271   5.991   5.205  11.087  0.4011 -0.8640  0.5680
    3SAPS  H12A  272   6.052   5.251  11.162  0.6494  0.0862 -0.2037
    3SAPS   C13  273   5.937   5.071  11.149 -0.0757  0.4327 -0.4229
    3SAPS  O13A  274   5.811   5.047  11.144  0.3447  0.6992  0.0566
    3SAPS  O13B  275   6.018   4.984  11.175 -0.2170  0.0265  0.0807
    3SAPS   C11  276   6.078   5.181  10.959 -0.0134 -0.3642  0.4458
    3SAPS  H11A  277   6.006   5.142  10.883  1.1182 -0.9388 -0.3572
    3SAPS  H11B  278   6.149   5.098  10.981 -1.9455 -2.0706  0.5667
    3SAPS     P  279   6.283   5.308  10.866 -0.1389 -0.0100  0.0824
    3SAPS   O13  280   6.311   5.438  10.806 -0.4737  1.0849  0.1957
    3SAPS   O14  281   6.365   5.259  10.983  0.1945 -0.1966  0.3690
    3SAPS   O12  282   6.135   5.307  10.908  0.0116  0.9581 -0.1641
    3SAPS   O11  283   6.280   5.196  10.762  0.0620  0.1552  0.1125
    3SAPS    C1  284   6.208   5.222  10.644 -0.9916  0.4094 -0.5022
    3SAPS    HA  285   6.101   5.192  10.648 -0.4304 -1.5779  0.6505
    3SAPS    HB  286   6.222   5.328  10.613 -1.1667  0.6982  0.3859
    3SAPS    C2  287   6.256   5.127  10.520  0.7253  0.2463 -0.2397
    3SAPS    HS  288   6.273   5.024  10.558  0.2258  1.0370  2.3805
    3SAPS   O21  289   6.378   5.176  10.465 -0.2016  0.2750  0.7181
    3SAPS   C21  290   6.487   5.131  10.526 -0.3949 -0.2090  0.3389
    3SAPS   O22  291   6.492   5.062  10.627 -0.4196  0.3620  0.3012
    3SAPS   C22  292   6.610   5.172  10.450  0.0200 -0.1835 -0.4344
    3SAPS   H2R  293   6.600   5.270  10.398  0.3046 -0.2317 -0.5808
    3SAPS   H2S  294   6.696   5.191  10.517 -0.5555 -2.9559  1.2205
    3SAPS    C3  295   6.142   5.125  10.407 -0.0999 -0.2496  0.1174
    3SAPS    HX  296   6.142   5.228  10.364  0.9166 -1.4636 -3.1264
    3SAPS    HY  297   6.042   5.105  10.451  0.2724  2.7088  2.6289
    3SAPS   O31  298   6.175   5.033  10.302  0.7741 -0.3860  0.0529
    3SAPS   C31  299   6.083   5.022  10.206  0.1729  0.6683 -0.1764
    3SAPS   O32  300   5.976   5.078  10.199  0.1562 -0.0768  0.1933
    3SAPS   C32  301   6.130   4.929  10.094  0.4003 -0.0320 -0.5979
    3SAPS   H2X  302   6.050   4.854  10.077  0.2744  0.0378 -0.3267
    3SAPS   H2Y  303   6.218   4.873  10.133  0.7361  0.9857  0.1528
    3SAPS   C23  304   6.653   5.084  10.322 -0.3240  0.6122  0.1468
    3SAPS   H3R  305   6.693   4.988  10.360  0.0093  0.6952  0.0022
    3SAPS   H3S  306   6.735   5.135  10.268  0.6004  1.0495  1.9021
    3SAPS   C24  307   6.541   5.068  10.218 -0.0582  0.1770  0.3530
    3SAPS   H4R  308   6.453   5.013  10.258  0.0016 -0.1937 -0.0323
    3SAPS   H4S  309   6.577   5.004  10.135  1.1351  1.9885 -0.5950
    3SAPS   C25  310   6.490   5.200  10.179 -0.2673 -0.1216  0.6936
    3SAPS   H5R  311   6.422   5.247  10.252 -2.7521 -1.5744 -0.5379
    3SAPS   C26  312   6.510   5.257  10.061 -0.0663 -0.4363 -0.7001
    3SAPS   H6R  313   6.468   5.357  10.042  1.0918  0.1487 -0.2410
    3SAPS   C27  314   6.593   5.206   9.947 -0.0127 -0.4347  0.7778
    3SAPS   H7R  315   6.543   5.116   9.904 -1.0649  1.0974 -1.3850
    3SAPS   H7S  316   6.695   5.180   9.983  0.9635 -0.6216 -1.8852
    3SAPS   C28  317   6.611   5.298   9.826  0.2704 -0.2558 -0.4986
    3SAPS   H8R  318   6.638   5.402   9.848  1.8728 -0.8990  0.7422
    3SAPS   C29  319   6.608   5.258   9.698 -0.1278  0.1761  0.1589
    3SAPS   H9R  320   6.632   5.329   9.618  1.5658 -0.0739  0.4096
    3SAPS  C210  321   6.583   5.123   9.638 -0.4723  0.9041  0.1426
    3SAPS  H10R  322   6.535   5.052   9.709 -0.4864  1.1441  0.3706
    3SAPS  H10S  323   6.678   5.073   9.608 -0.5296 -0.0711  1.4864
    3SAPS  C211  324   6.500   5.138   9.516 -0.8525 -0.0650  0.0670
    3SAPS  H11R  325   6.407   5.192   9.542 -1.6970 -2.2748  2.0555
    3SAPS  C212  326   6.522   5.077   9.403  0.4935 -0.5098  0.5276
    3SAPS  H12R  327   6.446   5.092   9.325 -2.1966 -2.6110  2.4966
    3SAPS  C213  328   6.621   4.972   9.365 -0.3688 -0.5292  0.2880
    3SAPS  H13R  329   6.704   4.956   9.437 -0.6921 -1.6500  0.4238
    3SAPS  H13S  330   6.671   4.999   9.269 -0.3358  0.4387  0.5615
    3SAPS  C214  331   6.569   4.832   9.337  0.4869  0.2431 -0.4856
    3SAPS  H14R  332   6.482   4.809   9.400  1.3066 -2.1253 -0.1042
    3SAPS  C215  333   6.613   4.729   9.256  0.3446 -0.3683 -0.2962
    3SAPS  H15R  334   6.537   4.651   9.243  0.8852 -0.8274 -0.7647
    3SAPS  C216  335   6.734   4.735   9.178 -0.7381  0.4616  1.2270
    3SAPS  H16R  336   6.785   4.637   9.165 -0.0201  0.8753  0.8877
    3SAPS  H16S  337   6.803   4.802   9.234 -0.7984  1.3914  0.2077
    3SAPS  C217  338   6.713   4.773   9.029  0.0304 -0.0805 -0.7296
    3SAPS  H17R  339   6.812   4.761   8.979  0.5162 -0.6607  0.3356
    3SAPS  H17S  340   6.689   4.881   9.021 -0.1469 -0.0090  0.5185
    3SAPS  C218  341   6.609   4.688   8.958  0.3781 -0.0154  0.7557
    3SAPS  H18R  342   6.507   4.732   8.963  0.5407  0.8437 -2.0635
    3SAPS  H18S  343   6.600   4.586   9.003 -1.1773 -0.1504  0.1928
    3SAPS  C219  344   6.632   4.675   8.807  0.1808  0.0557 -0.6527
    3SAPS  H19R  345   6.727   4.618   8.796  1.8915  2.2726  1.5268
    3SAPS  H19S  346   6.643   4.781   8.776  0.2128  0.6070  1.1257
    3SAPS  C220  347   6.507   4.616   8.744 -0.4172 -0.2754 -0.1090
    3SAPS  H20R  348   6.416   4.678   8.750 -0.4085  0.1867 -3.0542
    3SAPS  H20S  349   6.497   4.511   8.780 -1.6545 -1.0631 -2.5587
    3SAPS  H20T  350   6.526   4.601   8.635  0.8461 -2.1275  0.3076
    3SAPS   C33  351   6.160   4.999   9.963 -0.7894 -0.3842 -0.0844
    3SAPS   H3X  352   6.260   5.048   9.960 -0.7732 -0.4297 -0.3149
    3SAPS   H3Y  353   6.075   5.063   9.932 -0.5672  0.0955  0.2985
    3SAPS   C34  354   6.153   4.899   9.844 -0.3219 -0.2409 -0.7924
    3SAPS   H4X  355   6.075   4.821   9.856  0.1754 -0.5075  0.8841
    3SAPS   H4Y  356   6.248   4.843   9.832 -0.5548 -0.7293 -0.3828
    3SAPS   C35  357   6.131   4.970   9.715 -0.2543 -0.9526 -0.2049
    3SAPS   H5X  358   6.220   5.031   9.690 -0.4829  0.0119  1.2331
    3SAPS   H5Y  359   6.036   5.027   9.720  1.3954  2.0699 -1.1339
    3SAPS   C36  360   6.115   4.869   9.608  0.4004 -0.6353  0.1558
    3SAPS   H6X  361   6.015   4.822   9.613 -1.0607  2.3280  1.6606
    3SAPS   H6Y  362   6.196   4.793   9.610  0.3523 -0.7036 -0.3262
    3SAPS   C37  363   6.126   4.932   9.468  0.4803  0.3090 -0.0072
    3SAPS   H7X  364   6.213   5.001   9.469  1.6841 -1.1642  0.9941
    3SAPS   H7Y  365   6.035   4.990   9.443  0.7444  0.3243 -0.9819
    3SAPS   C38  366   6.148   4.833   9.357  0.0564  0.6683  0.3345
    3SAPS   H8X  367   6.067   4.759   9.375  0.7025 -0.2790 -0.5328
    3SAPS   H8Y  368   6.245   4.783   9.379  0.0854  1.4020  1.9952
    3SAPS   C39  369   6.131   4.893   9.221 -0.1059  0.2708  0.6982
    3SAPS   H9X  370   6.209   4.972   9.221 -0.2145  0.3780  1.3316
    3SAPS   H9Y  371   6.035   4.946   9.205  0.6332  1.1593 -1.1393
    3SAPS  C310  372   6.160   4.804   9.104 -0.8450 -0.1129  0.2437
    3SAPS  H10X  373   6.248   4.740   9.129 -1.3934 -0.8829  0.2371
    3SAPS  H10Y  374   6.202   4.864   9.021 -0.3338 -1.2136 -0.3100
    3SAPS  C311  375   6.041   4.732   9.039 -0.5983 -0.4391  0.3996
    3SAPS  H11X  376   6.000   4.660   9.114 -1.7113  0.0711  0.3027
    3SAPS  H11Y  377   6.075   4.665   8.957 -0.4419 -1.0165  0.9303
    3SAPS  C312  378   5.927   4.829   8.994 -0.3917  0.0726  0.7002
    3SAPS  H12X  379   5.959   4.932   8.969 -1.9500  0.3840 -0.1472
    3SAPS  H12Y  380   5.867   4.838   9.087 -0.9535  0.1109  0.3431
    3SAPS  C313  381   5.832   4.772   8.889  0.1866  0.2936 -0.2531
    3SAPS  H13X  382   5.764   4.699   8.938  0.7223 -0.7149 -0.9903
    3SAPS  H13Y  383   5.886   4.704   8.819  0.2986 -1.0313  1.0772
    3SAPS  C314  384   5.758   4.882   8.814  0.2654 -0.3859  0.5188
    3SAPS  H14X  385   5.692   4.853   8.730 -1.6235 -0.3708  1.9254
    3SAPS  H14Y  386   5.836   4.950   8.774 -0.7011 -0.5401 -1.7473
    3SAPS  C315  387   5.666   4.963   8.906 -0.3194  0.0843  1.1374
    3SAPS  H15X  388   5.730   5.026   8.973  1.8887 -1.1581  0.2852
    3SAPS  H15Y  389   5.602   4.895   8.966 -1.9391 -2.0766 -2.7527
    3SAPS  C316  390   5.560   5.056   8.833  0.1565 -0.2588 -0.1175
    3SAPS  H16X  391   5.621   5.110   8.757  0.6595 -1.4526 -0.5923
    3SAPS  H16Y  392   5.519   5.122   8.912 -0.1824 -0.7742  0.1390
    3SAPS  C317  393   5.446   4.989   8.761 -0.4716  0.4166  0.1099
    3SAPS  H17X  394   5.386   4.926   8.830 -1.2605  0.1720 -0.7699
    3SAPS  H17Y  395   5.489   4.917   8.688 -1.0916  2.0210 -1.9475
    3SAPS  C318  396   5.335   5.080   8.697  0.4198 -0.0556 -0.1046
    3SAPS  H18X  397   5.253   5.032   8.641 -0.5850  1.9948 -0.4963
    3SAPS  H18Y  398   5.382   5.158   8.633 -1.5570  1.4832  0.1990
    3SAPS  H18Z  399   5.277   5.126   8.780 -1.2322  1.0844 -1.8198
    4SAPS     N  400   6.040   0.312  11.046  0.0702 -0.3352  0.7656
    4SAPS   HN1  401   6.074   0.214  11.032 -1.8929 -0.8346 -1.0573
    4SAPS   HN2  402   6.128   0.366  11.056 -0.9326  1.5984 -0.1815
    4SAPS   HN3  403   5.985   0.318  11.133 -1.1503  0.4861 -0.0345
    4SAPS   C12  404   5.955   0.358  10.929 -0.0358 -0.1483 -0.4566
    4SAPS  H12A  405   5.877   0.285  10.926 -0.2708  0.0542  0.6331
    4SAPS   C13  406   5.879   0.495  10.956  0.0721 -0.0270 -0.1538
    4SAPS  O13A  407   5.877   0.530  11.077  0.1761 -0.5224 -0.0909
    4SAPS  O13B  408   5.801   0.542  10.866 -0.1204 -0.1610 -0.5452
    4SAPS   C11  409   6.029   0.372  10.798 -0.0794 -0.2347 -0.2049
    4SAPS  H11A  410   6.105   0.453  10.790 -0.9898  0.4935 -2.5284
    4SAPS  H11B  411   5.953   0.401  10.721 -2.2451 -1.2538  1.4462
    4SAPS     P  412   6.019   0.116  10.723 -0.3692  0.4969 -0.1747
    4SAPS   O13  413   6.087   0.002  10.783 -0.3749 -0.0801  0.4071
    4SAPS   O14  414   5.874   0.129  10.759  0.4892  0.2679  0.1680
    4SAPS   O12  415   6.091   0.248  10.765  0.2575 -0.0347  0.0858
    4SAPS   O11  416   6.028   0.124  10.567 -0.0003  0.8494 -0.2534
    4SAPS    C1  417   6.156   0.116  10.502  0.1358 -0.6511  0.2115
    4SAPS    HA  418   6.191   0.221  10.491 -0.1709 -0.3804  1.6708
    4SAPS    HB  419   6.241   0.072  10.558  1.3473 -0.7875 -1.6333
    4SAPS    C2  420   6.153   0.030  10.369 -0.3909 -0.0924  0.3198
    4SAPS    HS  421   6.257   0.039  10.329 -0.9666 -0.0534 -1.2330
    4SAPS   O21  422   6.055   0.082  10.269 -0.1685 -0.4673 -0.5537
    4SAPS   C21  423   6.079   0.208  10.231 -0.2464  0.5293 -0.2052
    4SAPS   O22  424   6.174   0.274  10.268  1.0445 -0.1685 -0.2191
    4SAPS   C22  425   5.982   0.241  10.125  0.9883 -0.2370  0.4500
    4SAPS   H2R  426   5.893   0.176  10.114  1.7390 -1.5210  1.6492
    4SAPS   H2S  427   5.944   0.340  10.159  0.6555  0.5192 -1.9461
    4SAPS    C3  428   6.126  -0.124  10.405 -0.0253 -0.9234  0.1896
    4SAPS    HX  429   6.032  -0.119  10.464 -0.6643  2.3836 -0.8652
    4SAPS    HY  430   6.204  -0.167  10.470 -0.1430 -0.3964  0.6894
    4SAPS   O31  431   6.101  -0.207  10.287 -0.3463 -0.1537  0.5334
    4SAPS   C31  432   6.204  -0.244  10.216  0.0508 -0.4087 -0.2579
    4SAPS   O32  433   6.322  -0.237  10.249 -0.2251 -0.2685 -0.0251
    4SAPS   C32  434   6.156  -0.298  10.084 -0.7442 -0.2682 -0.2145
    4SAPS   H2X  435   6.191  -0.216  10.018  0.1645 -0.0809  0.4799
    4SAPS   H2Y  436   6.048  -0.314  10.067 -0.3323 -0.9799 -2.6924
    4SAPS   C23  437   6.050   0.251   9.988 -0.0539  0.5086  0.1864
    4SAPS   H3R  438   5.995   0.207   9.903  0.1220 -0.0713  0.3623
    4SAPS   H3S  439   6.143   0.189   9.989 -0.1385  0.2763  3.1755
    4SAPS   C24  440   6.095   0.396   9.964 -0.4362  0.5235 -0.4915
    4SAPS   H4R  441   6.182   0.386   9.894 -1.5808 -0.0850 -1.8733
    4SAPS   H4S  442   6.146   0.434  10.055  2.8557 -0.1865 -1.8560
    4SAPS   C25  443   5.981   0.477   9.912 -0.3839  0.4042 -0.2473
    4SAPS   H5R  444   5.920   0.518   9.995  1.2606 -0.8320  1.6739
    4SAPS   C26  445   5.951   0.497   9.783 -0.3823  0.4185 -0.1868
    4SAPS   H6R  446   5.862   0.558   9.758 -0.2636  0.8750  0.4935
    4SAPS   C27  447   6.011   0.430   9.658 -0.6930  1.0010 -0.0056
    4SAPS   H7R  448   6.109   0.385   9.687 -0.6771  1.7151  1.1551
    4SAPS   H7S  449   6.034   0.513   9.587 -2.4691  2.5860  1.1719
    4SAPS   C28  450   5.925   0.322   9.605  0.5012 -0.7603 -0.0310
    4SAPS   H8R  451   5.905   0.243   9.680  0.8932 -1.6677 -0.8643
    4SAPS   C29  452   5.868   0.311   9.482 -0.1344  0.1533 -0.3817
    4SAPS   H9R  453   5.822   0.217   9.451 -2.2419  1.2526 -0.7501
    4SAPS  C210  454   5.881   0.421   9.377  0.0630  0.3244  0.2420
    4SAPS  H10R  455   5.969   0.410   9.311  0.5144 -1.8922  1.1201
    4SAPS  H10S  456   5.905   0.514   9.433  3.2482 -0.5254  0.4601
    4SAPS  C211  457   5.747   0.437   9.302  0.2213  0.1237  0.9079
    4SAPS  H11R  458   5.665   0.490   9.351 -0.4849  0.3267 -0.4292
    4SAPS  C212  459   5.723   0.371   9.188 -0.0198  0.2645 -0.3904
    4SAPS  H12R  460   5.620   0.379   9.150 -0.4628 -0.5870  0.5651
    4SAPS  C213  461   5.816   0.285   9.103 -0.0788 -0.2263  0.8378
    4SAPS  H13R  462   5.765   0.187   9.103 -0.1259 -0.2085  0.1388
    4SAPS  H13S  463   5.921   0.266   9.134  1.3543  1.6450 -2.3591
    4SAPS  C214  464   5.821   0.340   8.963  0.1462 -0.2728  0.6056
    4SAPS  H14R  465   5.852   0.446   8.958 -0.0142 -0.2481  0.1470
    4SAPS  C215  466   5.792   0.280   8.838  0.0095 -0.1392 -0.6214
    4SAPS  H15R  467   5.788   0.347   8.751 -2.4574  0.5744 -0.0273
    4SAPS  C216  468   5.763   0.135   8.817 -0.0656  0.3195 -0.1163
    4SAPS  H16R  469   5.769   0.076   8.911  3.5749 -1.5953 -1.3932
    4SAPS  H16S  470   5.834   0.086   8.747  0.2376  0.8139 -0.1617
    4SAPS  C217  471   5.614   0.119   8.779 -0.0398 -0.1732  0.1281
    4SAPS  H17R  472   5.600   0.166   8.680 -1.0643 -0.0133  0.3381
    4SAPS  H17S  473   5.545   0.169   8.850 -0.6693  1.1193 -1.3518
    4SAPS  C218  474   5.577  -0.031   8.770  0.3251 -0.2395  0.5119
    4SAPS  H18R  475   5.592  -0.085   8.866 -0.0250 -1.5109 -0.1250
    4SAPS  H18S  476   5.648  -0.078   8.698  0.4236  1.2969 -0.4404
    4SAPS  C219  477   5.430  -0.036   8.731  0.8078 -1.0735  1.1237
    4SAPS  H19R  478   5.360   0.037   8.777  1.9004  1.0158 -0.3214
    4SAPS  H19S  479   5.393  -0.139   8.750 -2.8086  0.0309  0.8611
    4SAPS  C220  480   5.401  -0.021   8.578  0.1367  0.0557 -0.1647
    4SAPS  H20R  481   5.449   0.072   8.542 -1.9107  0.5530 -1.8349
    4SAPS  H20S  482   5.291  -0.016   8.559  0.4256  0.3633 -1.9508
    4SAPS  H20T  483   5.446  -0.104   8.519  1.1944 -1.1195  2.1677
    4SAPS   C33  484   6.226  -0.429  10.038 -0.1008  0.3405  0.1055
    4SAPS   H3X  485   6.217  -0.507  10.116 -1.4856 -0.6383 -0.9553
    4SAPS   H3Y  486   6.332  -0.397  10.037 -0.3831  1.3319 -0.6064
    4SAPS   C34  487   6.184  -0.472   9.894  0.5797  0.0113  1.5610
    4SAPS   H4X  488   6.168  -0.391   9.820  1.3144 -2.4706 -1.5507
    4SAPS   H4Y  489   6.097  -0.541   9.899  1.8426 -1.9279 -0.8970
    4SAPS   C35  490   6.302  -0.551   9.821 -0.2175 -0.0566 -1.2462
    4SAPS   H5X  491   6.327  -0.635   9.890  2.8792  0.2253 -1.8656
    4SAPS   H5Y  492   6.392  -0.486   9.818 -1.1682  1.3626 -0.2839
    4SAPS   C36  493   6.264  -0.607   9.687  0.5640  0.0364  0.2998
    4SAPS   H6X  494   6.162  -0.648   9.704  1.4376 -3.2280 -1.5135
    4SAPS   H6Y  495   6.331  -0.694   9.671 -1.4255 -1.5468  0.1808
    4SAPS   C37  496   6.266  -0.514   9.569  0.4649 -0.8011 -1.0817
    4SAPS   H7X  497   6.370  -0.477   9.554  0.6655 -2.2300 -3.8278
    4SAPS   H7Y  498   6.207  -0.420   9.579  0.5040 -0.3563 -4.0123
    4SAPS   C38  499   6.226  -0.573   9.431 -0.6666 -0.1364  0.0794
    4SAPS   H8X  500   6.127  -0.624   9.426 -1.2359  1.0561 -1.6404
    4SAPS   H8Y  501   6.300  -0.653   9.408  0.3679  1.1703 -1.3861
    4SAPS   C39  502   6.230  -0.470   9.324  0.0797 -0.6404  0.3673
    4SAPS   H9X  503   6.331  -0.425   9.320 -0.6206  0.9120 -0.9064
    4SAPS   H9Y  504   6.159  -0.391   9.353 -2.1033 -2.0279 -0.9293
    4SAPS  C310  505   6.205  -0.533   9.191 -0.6120 -0.2881  0.2590
    4SAPS  H10X  506   6.098  -0.517   9.165 -0.0921 -0.8253 -2.5814
    4SAPS  H10Y  507   6.214  -0.644   9.181  0.3496 -0.3494  1.6041
    4SAPS  C311  508   6.289  -0.466   9.082 -0.5275 -0.5729 -0.2997
    4SAPS  H11X  509   6.396  -0.496   9.088 -0.0465  0.2590 -3.1772
    4SAPS  H11Y  510   6.280  -0.356   9.091 -1.7507 -0.8032  2.0370
    4SAPS  C312  511   6.246  -0.511   8.944  0.1460 -1.3945 -1.3635
    4SAPS  H12X  512   6.142  -0.471   8.936  0.0930 -1.4591 -1.0340
    4SAPS  H12Y  513   6.235  -0.621   8.954 -2.4396 -1.1043  0.1233
    4SAPS  C313  514   6.346  -0.473   8.835  0.3630  0.2768  0.4655
    4SAPS  H13X  515   6.450  -0.468   8.872  0.8827  0.0962 -0.8952
    4SAPS  H13Y  516   6.319  -0.369   8.809 -2.0167 -0.4444 -0.1754
    4SAPS  C314  517   6.331  -0.549   8.697  0.1170  0.2348 -0.0686
    4SAPS  H14X  518   6.226  -0.542   8.662 -0.1304 -0.9631  0.4007
    4SAPS  H14Y  519   6.363  -0.653   8.719  1.1205  0.4194 -0.6127
    4SAPS  C315  520   6.420  -0.478   8.598  0.2279 -0.2493  0.7739
    4SAPS  H15X  521   6.524  -0.514   8.616  1.1968  1.4081 -1.0596
    4SAPS  H15Y  522   6.424  -0.368   8.607 -1.6726 -0.1065  0.1973
    4SAPS  C316  523   6.399  -0.520   8.451  0.3922  0.2294 -0.0066
    4SAPS  H16X  524   6.450  -0.617   8.433  1.0020  0.5626 -0.1035
    4SAPS  H16Y  525   6.448  -0.438   8.393 -0.8970  1.5747  0.7348
    4SAPS  C317  526   6.259  -0.524   8.393  0.0669 -0.3102  1.5248
    4SAPS  H17X  527   6.191  -0.600   8.436 -0.8303  0.6343  1.8290
    4SAPS  H17Y  528   6.273  -0.559   8.288 -0.9429 -1.1459  1.6490
    4SAPS  C318  529   6.181  -0.397   8.394  0.6317 -0.5378 -0.2387
    4SAPS  H18X  530   6.164  -0.344   8.491 -0.2514 -3.1483  1.1340
    4SAPS  H18Y  531   6.075  -0.416   8.367 -0.0978 -0.4079  2.2116
    4SAPS  H18Z  532   6.234  -0.330   8.324  0.6261  1.1061  1.2409
    5SAPS     N  533   4.942   0.015  11.143  0.4686  0.2668 -0.6055
    5SAPS   HN1  534   4.925   0.079  11.224  1.3534 -0.4377  0.1576
    5SAPS   HN2  535   4.911   0.070  11.061  0.2013  0.2263 -0.5315
    5SAPS   HN3  536   4.886  -0.073  11.148 -0.9625  1.1916  1.8776
    5SAPS   C12  537   5.090  -0.007  11.121  0.3728 -0.0228  0.3917
    5SAPS  H12A  538   5.141   0.087  11.107  0.0279 -0.0936 -1.6672
    5SAPS   C13  539   5.172  -0.069  11.237 -0.5534 -0.1483 -0.3932
    5SAPS  O13A  540   5.118  -0.087  11.347  0.0372 -0.1609  0.2674
    5SAPS  O13B  541   5.296  -0.085  11.234  0.5330  0.3227  0.1576
    5SAPS   C11  542   5.102  -0.096  10.997 -0.0392  0.7441  0.4001
    5SAPS  H11A  543   5.211  -0.108  10.976 -0.0657 -2.3308  1.4999
    5SAPS  H11B  544   5.060  -0.041  10.911 -1.4134 -1.1999 -0.2377
    5SAPS     P  545   5.095  -0.337  10.909 -0.3198 -0.0495 -0.0514
    5SAPS   O13  546   5.240  -0.348  10.911  0.1871 -0.2871 -0.7888
    5SAPS   O14  547   5.023  -0.462  10.933 -0.0315 -0.6675 -0.2397
    5SAPS   O12  548   5.053  -0.228  11.015 -0.2297 -0.2380 -0.5203
    5SAPS   O11  549   5.055  -0.272  10.765  0.1081  0.0326 -0.7262
    5SAPS    C1  550   4.919  -0.288  10.732  0.2973 -0.9285 -0.0552
    5SAPS    HA  551   4.903  -0.395  10.707  0.4540 -0.6878 -1.2802
    5SAPS    HB  552   4.854  -0.242  10.808  0.0495  0.0595 -0.8434
    5SAPS    C2  553   4.879  -0.205  10.606  0.1957  0.1648  0.3687
    5SAPS    HS  554   4.772  -0.227  10.590  0.5780 -1.4153 -0.1655
    5SAPS   O21  555   4.967  -0.229  10.489  0.0104 -0.0767  0.3001
    5SAPS   C21  556   4.937  -0.343  10.437  0.2490  0.3426  0.5816
    5SAPS   O22  557   4.856  -0.420  10.479 -0.0319 -0.0699  0.0461
    5SAPS   C22  558   4.994  -0.351  10.298  0.5858  0.1269 -0.3710
    5SAPS   H2R  559   4.924  -0.299  10.230 -0.0393  0.4748  0.5103
    5SAPS   H2S  560   5.088  -0.292  10.301  0.1671  0.8187 -0.8440
    5SAPS    C3  561   4.889  -0.053  10.641  0.2764  0.4755 -0.7009
    5SAPS    HX  562   4.995  -0.034  10.668  0.3209 -0.1341 -0.4260
    5SAPS    HY  563   4.825  -0.036  10.729  0.8032  1.5661 -0.5164
    5SAPS   O31  564   4.853   0.031  10.534  0.0541  0.0367 -0.5551
    5SAPS   C31  565   4.734   0.033  10.481 -0.4226  0.2724  1.1446
    5SAPS   O32  566   4.630  -0.006  10.529  0.1580 -0.3934  0.5339
    5SAPS   C32  567   4.731   0.089  10.330  0.2920  0.1298 -0.2868
    5SAPS   H2X  568   4.745  -0.003  10.269 -0.7054  1.2808 -2.3501
    5SAPS   H2Y  569   4.825   0.147  10.327  0.1262  0.3780 -0.6810
    5SAPS   C23  570   5.002  -0.500  10.253 -1.6574 -0.2677 -0.4204
    5SAPS   H3R  571   4.908  -0.558  10.268 -1.8311  0.1561  0.1472
    5SAPS   H3S  572   5.083  -0.545  10.315 -2.5921 -2.2104 -0.5197
    5SAPS   C24  573   5.024  -0.521  10.102 -0.1424  0.2642  0.2799
    5SAPS   H4R  574   4.938  -0.487  10.041 -0.4645  1.0328  1.1348
    5SAPS   H4S  575   5.024  -0.632  10.090 -1.5349  0.1294  1.2612
    5SAPS   C25  576   5.164  -0.472  10.053  0.1982 -0.0921  0.3710
    5SAPS   H5R  577   5.246  -0.499  10.120  0.9755  0.2012 -0.4470
    5SAPS   C26  578   5.188  -0.404   9.938  0.0417  0.1532 -0.4041
    5SAPS   H6R  579   5.284  -0.352   9.921 -1.8764  4.1352 -0.1770
    5SAPS   C27  580   5.084  -0.368   9.834 -0.2635  0.2190  0.1489
    5SAPS   H7R  581   4.981  -0.360   9.874 -0.1165  4.2200  0.1609
    5SAPS   H7S  582   5.077  -0.445   9.755  2.2139  2.6264 -2.7166
    5SAPS   C28  583   5.108  -0.234   9.770 -0.7952  0.7106  0.6456
    5SAPS   H8R  584   5.075  -0.146   9.828  0.5921  3.8145 -2.8113
    5SAPS   C29  585   5.164  -0.204   9.658  0.0843 -0.2967  0.4594
    5SAPS   H9R  586   5.175  -0.096   9.639 -2.1789 -0.0814  0.1600
    5SAPS  C210  587   5.225  -0.298   9.555 -0.6179  0.2593  0.4179
    5SAPS  H10R  588   5.251  -0.398   9.597  2.9312  1.5913  1.8513
    5SAPS  H10S  589   5.327  -0.262   9.529 -0.2157  0.3265  1.9696
    5SAPS  C211  590   5.142  -0.294   9.427  0.2002 -0.6274  0.0416
    5SAPS  H11R  591   5.042  -0.336   9.449  0.6007 -0.6849  1.9867
    5SAPS  C212  592   5.183  -0.273   9.299 -0.7060  0.3670 -0.6698
    5SAPS  H12R  593   5.111  -0.268   9.216 -2.5269  1.0697  0.8858
    5SAPS  C213  594   5.333  -0.258   9.257 -0.1147 -0.0547 -0.6701
    5SAPS  H13R  595   5.362  -0.362   9.232  3.8711 -0.1365  2.9876
    5SAPS  H13S  596   5.404  -0.247   9.342 -0.3972  0.4237 -0.4915
    5SAPS  C214  597   5.365  -0.156   9.155 -0.0152  0.2849  0.4217
    5SAPS  H14R  598   5.383  -0.198   9.056 -1.4535  1.8286 -0.5469
    5SAPS  C215  599   5.370  -0.022   9.168  0.8808 -0.2632 -0.0477
    5SAPS  H15R  600   5.406   0.037   9.082  4.6730 -0.6598  1.0658
    5SAPS  C216  601   5.346   0.051   9.297  0.4484  0.3227 -0.1441
    5SAPS  H16R  602   5.249   0.028   9.347 -0.9710  3.0016 -1.4193
    5SAPS  H16S  603   5.345   0.157   9.262 -0.3074  0.8141  1.2593
    5SAPS  C217  604   5.462   0.040   9.407 -0.3739 -0.3361  0.6707
    5SAPS  H17R  605   5.560   0.077   9.367  0.5725  0.6086  3.5726
    5SAPS  H17S  606   5.449  -0.066   9.435 -1.7223 -0.8747 -1.7254
    5SAPS  C218  607   5.439   0.118   9.537  0.5587 -0.6866  0.6741
    5SAPS  H18R  608   5.423   0.226   9.518 -0.7006 -0.7759  1.1046
    5SAPS  H18S  609   5.346   0.076   9.580 -0.3369  1.0379  0.5063
    5SAPS  C219  610   5.565   0.099   9.637  0.3348  0.3341  0.5008
    5SAPS  H19R  611   5.658   0.111   9.578  1.3482  1.9486  2.3214
    5SAPS  H19S  612   5.557  -0.009   9.664 -0.7939 -0.0583 -1.1844
    5SAPS  C220  613   5.560   0.199   9.748  0.0086 -0.1784 -0.2042
    5SAPS  H20R  614   5.564   0.305   9.714 -1.3018  0.6862  2.1608
    5SAPS  H20S  615   5.638   0.191   9.826  0.5887 -2.5144 -0.9209
    5SAPS  H20T  616   5.469   0.190   9.809  0.2688 -0.9833  0.0851
    5SAPS   C33  617   4.593   0.150  10.296  0.2843 -1.0020  0.4821
    5SAPS   H3X  618   4.586   0.232  10.370  0.6376 -2.3431  2.0708
    5SAPS   H3Y  619   4.508   0.081  10.313 -1.6144  1.2924  0.7773
    5SAPS   C34  620   4.600   0.191  10.149  0.6348 -0.7571  0.0860
    5SAPS   H4X  621   4.562   0.107  10.087 -1.8166  0.6960 -0.5128
    5SAPS   H4Y  622   4.702   0.204  10.106  0.3727 -1.6308 -0.8341
    5SAPS   C35  623   4.522   0.315  10.105  0.4009 -0.1197  0.2048
    5SAPS   H5X  624   4.555   0.397  10.173  1.3972 -1.0029  0.8210
    5SAPS   H5Y  625   4.412   0.319  10.120 -0.1006  1.4972 -3.1073
    5SAPS   C36  626   4.558   0.351   9.962 -0.1383 -0.3926  0.4964
    5SAPS   H6X  627   4.668   0.355   9.948 -0.1532  0.4222  0.5858
    5SAPS   H6Y  628   4.526   0.452   9.928  2.3580 -0.4950 -2.6001
    5SAPS   C37  629   4.507   0.253   9.853 -0.0520  0.2744  0.8909
    5SAPS   H7X  630   4.398   0.240   9.867  0.0870 -2.3738  0.0402
    5SAPS   H7Y  631   4.547   0.152   9.875  0.9441  0.2145 -1.0438
    5SAPS   C38  632   4.534   0.313   9.715  0.2408  0.1488  0.5458
    5SAPS   H8X  633   4.644   0.310   9.696  0.3122  2.2458  0.3576
    5SAPS   H8Y  634   4.498   0.418   9.719  2.8151  1.1703 -0.5929
    5SAPS   C39  635   4.458   0.257   9.591 -0.2150  0.3618 -0.2750
    5SAPS   H9X  636   4.350   0.256   9.617 -0.1047 -0.3748  0.1732
    5SAPS   H9Y  637   4.502   0.156   9.573  0.5401  0.6761 -0.2643
    5SAPS  C310  638   4.483   0.347   9.469 -0.3898 -0.6709  0.3340
    5SAPS  H10X  639   4.592   0.360   9.448 -0.2255  2.0201  2.3217
    5SAPS  H10Y  640   4.437   0.446   9.486  0.1521 -0.5048  0.8662
    5SAPS  C311  641   4.416   0.304   9.340 -0.2278  0.2598  0.8570
    5SAPS  H11X  642   4.407   0.379   9.259 -0.5940  1.8107  2.2627
    5SAPS  H11Y  643   4.308   0.295   9.364 -0.0708  0.3658  1.6406
    5SAPS  C312  644   4.465   0.167   9.286  0.1069  0.0894  0.6830
    5SAPS  H12X  645   4.378   0.137   9.223 -0.4653  1.7965  0.5982
    5SAPS  H12Y  646   4.491   0.099   9.369 -0.4328  0.1164  0.8795
    5SAPS  C313  647   4.579   0.193   9.186  0.4522 -0.0263  0.6544
    5SAPS  H13X  648   4.678   0.169   9.229  1.4025 -0.1171 -1.4995
    5SAPS  H13Y  649   4.580   0.303   9.172 -1.3155  0.1483  1.5795
    5SAPS  C314  650   4.563   0.115   9.060  0.3970  0.7127  0.5859
    5SAPS  H14X  651   4.631   0.169   8.992  1.8909 -2.0913 -0.2933
    5SAPS  H14Y  652   4.461   0.112   9.015  0.1245 -0.3087  1.2372
    5SAPS  C315  653   4.595  -0.037   9.073 -0.5294 -0.7095 -0.0058
    5SAPS  H15X  654   4.512  -0.082   9.131 -1.6573  1.7725  0.4690
    5SAPS  H15Y  655   4.690  -0.047   9.129 -0.5974 -2.9161 -0.2177
    5SAPS  C316  656   4.599  -0.110   8.935 -0.3304 -0.1696  0.0205
    5SAPS  H16X  657   4.515  -0.066   8.878  0.6472  2.1544  0.2540
    5SAPS  H16Y  658   4.591  -0.220   8.941 -1.5029 -0.0494  0.7542
    5SAPS  C317  659   4.725  -0.073   8.855  0.4107  0.5304  0.4180
    5SAPS  H17X  660   4.735   0.038   8.852  1.5762  0.5107  1.9071
    5SAPS  H17Y  661   4.720  -0.117   8.753  2.2816 -3.4153  1.8294
    5SAPS  C318  662   4.864  -0.123   8.909  0.0355  0.3453 -0.1261
    5SAPS  H18X  663   4.938  -0.043   8.889  0.6952 -0.5014 -1.1960
    5SAPS  H18Y  664   4.908  -0.217   8.870  0.1030  0.4064 -0.1949
    5SAPS  H18Z  665   4.851  -0.141   9.018 -0.2556 -2.1003 -0.4978
    6SAPS     N  666   2.584   0.985  11.039 -0.2677  0.6076 -0.3535
    6SAPS   HN1  667   2.574   0.980  10.935 -0.9833 -0.5041 -0.2509
    6SAPS   HN2  668   2.675   0.946  11.071  0.6176  2.6232 -0.2592
    6SAPS   HN3  669   2.501   0.941  11.085 -0.9472  2.1088 -0.0686
    6SAPS   C12  670   2.599   1.132  11.071 -0.1660 -0.7016 -0.2548
    6SAPS  H12A  671   2.508   1.190  11.062 -0.2281  0.0655  3.6117
    6SAPS   C13  672   2.642   1.163  11.219 -0.4362 -0.2865  0.4407
    6SAPS  O13A  673   2.667   1.069  11.291 -0.1259 -0.2331 -0.5776
    6SAPS  O13B  674   2.662   1.283  11.248  0.2533 -0.0099 -0.2118
    6SAPS   C11  675   2.709   1.190  10.977 -0.3060 -0.1911  0.5526
    6SAPS  H11A  676   2.804   1.139  11.007  1.8654  1.8966 -2.2085
    6SAPS  H11B  677   2.712   1.298  11.000 -3.6280 -0.2065  1.5174
    6SAPS     P  678   2.761   1.174  10.721 -0.4052  0.3883 -0.2368
    6SAPS   O13  679   2.683   1.212  10.600 -0.2740  0.0429 -0.4938
    6SAPS   O14  680   2.884   1.255  10.755  0.7447 -0.0762  0.3081
    6SAPS   O12  681   2.661   1.172  10.842 -0.1763 -0.3628  0.3157
    6SAPS   O11  682   2.802   1.022  10.701 -0.5788 -0.1358 -0.1546
    6SAPS    C1  683   2.940   0.979  10.724  0.4211 -0.2803  0.9998
    6SAPS    HA  684   2.997   1.042  10.796 -0.4498  1.4234  0.2544
    6SAPS    HB  685   2.933   0.879  10.773  2.1979 -0.4041  1.0990
    6SAPS    C2  686   3.028   0.979  10.597  0.4756  0.1620 -0.6325
    6SAPS    HS  687   3.057   1.084  10.575 -0.4893  0.3830 -0.9344
    6SAPS   O21  688   2.963   0.927  10.482  0.5167 -0.0238 -0.1447
    6SAPS   C21  689   2.901   1.016  10.401 -0.2769  0.5033  0.0297
    6SAPS   O22  690   2.916   1.138  10.401  0.1748 -0.5220 -0.7255
    6SAPS   C22  691   2.840   0.933  10.296  0.4230  0.3587 -0.9727
    6SAPS   H2R  692   2.920   0.874  10.247  0.6978 -1.3890  1.4136
    6SAPS   H2S  693   2.763   0.864  10.337  0.9708  0.5700  0.4622
    6SAPS    C3  694   3.160   0.899  10.624  0.4419  0.3756  0.5970
    6SAPS    HX  695   3.214   0.955  10.703 -0.3420 -0.1113  1.4993
    6SAPS    HY  696   3.225   0.904  10.534 -0.3431  0.7571  0.0381
    6SAPS   O31  697   3.123   0.763  10.666 -0.5639 -0.5985  0.0162
    6SAPS   C31  698   3.165   0.662  10.589  0.3107 -0.3361  0.1269
    6SAPS   O32  699   3.236   0.681  10.492  0.0275  0.6363  0.1582
    6SAPS   C32  700   3.108   0.530  10.657  0.2315 -0.2257 -0.0268
    6SAPS   H2X  701   3.025   0.554  10.727  0.8964 -0.3711  0.8333
    6SAPS   H2Y  702   3.198   0.494  10.711 -0.4409  0.6334  1.7501
    6SAPS   C23  703   2.764   1.028  10.199  0.1726 -0.6000 -0.4110
    6SAPS   H3R  704   2.844   1.085  10.146  0.4227 -1.8305 -1.4198
    6SAPS   H3S  705   2.704   1.094  10.266  0.7416  0.0669 -0.5447
    6SAPS   C24  706   2.669   0.959  10.108  0.5291  0.1410 -0.3828
    6SAPS   H4R  707   2.596   0.897  10.165 -0.4017  0.1142 -1.5519
    6SAPS   H4S  708   2.715   0.872  10.057 -2.6265 -2.1092  0.3252
    6SAPS   C25  709   2.588   1.052  10.026 -0.6947 -0.5113 -0.0294
    6SAPS   H5R  710   2.516   1.116  10.079  0.9748  0.3646  1.2468
    6SAPS   C26  711   2.582   1.051   9.891  0.3513  0.2289 -0.6637
    6SAPS   H6R  712   2.501   1.108   9.842  1.6216  0.6682 -2.3395
    6SAPS   C27  713   2.668   0.967   9.804  0.5242 -0.3308 -0.6591
    6SAPS   H7R  714   2.739   0.902   9.859  1.3205  1.6091  0.7133
    6SAPS   H7S  715   2.745   1.032   9.755  0.3397  0.1441 -0.3266
    6SAPS   C28  716   2.604   0.893   9.687  0.2431  0.4317 -0.0493
    6SAPS   H8R  717   2.553   0.798   9.709  1.9403 -0.2246  1.3033
    6SAPS   C29  718   2.614   0.924   9.558  1.0841  0.0746  0.3190
    6SAPS   H9R  719   2.573   0.854   9.484 -1.7853  1.8527  0.0639
    6SAPS  C210  720   2.680   1.047   9.493 -0.1739  0.6549 -0.5662
    6SAPS  H10R  721   2.782   1.013   9.464  0.0609 -2.1760  2.8719
    6SAPS  H10S  722   2.709   1.126   9.566  2.0090 -0.8431  0.3117
    6SAPS  C211  723   2.618   1.097   9.366 -0.2678 -0.9280  0.1540
    6SAPS  H11R  724   2.549   1.179   9.391 -0.1172 -0.3167 -1.3336
    6SAPS  C212  725   2.627   1.060   9.237 -0.0745  0.1300 -0.5080
    6SAPS  H12R  726   2.571   1.112   9.158 -0.3700  0.2714 -0.2079
    6SAPS  C213  727   2.706   0.939   9.188 -0.5865  0.4667 -0.3231
    6SAPS  H13R  728   2.804   0.927   9.239 -0.0569  1.2543 -1.1311
    6SAPS  H13S  729   2.745   0.954   9.085 -0.9187  1.0672 -0.3656
    6SAPS  C214  730   2.624   0.815   9.198 -0.0730  0.5146  0.4891
    6SAPS  H14R  731   2.610   0.774   9.299 -0.8220  0.2354  0.2792
    6SAPS  C215  732   2.560   0.748   9.095  0.0569  0.0522 -1.0431
    6SAPS  H15R  733   2.496   0.660   9.109  1.3794 -0.8342 -0.3077
    6SAPS  C216  734   2.549   0.800   8.953 -0.8437  0.0891  0.1753
    6SAPS  H16R  735   2.490   0.717   8.907 -0.8116 -1.5052  2.7760
    6SAPS  H16S  736   2.644   0.803   8.896 -0.4028  0.8525  0.9224
    6SAPS  C217  737   2.469   0.928   8.926  0.0910  0.1940 -0.5369
    6SAPS  H17R  738   2.508   1.009   8.993  0.7973  0.5438 -1.3643
    6SAPS  H17S  739   2.359   0.918   8.942 -0.2039  0.1242 -2.4046
    6SAPS  C218  740   2.500   0.981   8.782 -0.4444 -0.5182 -0.1437
    6SAPS  H18R  741   2.609   0.983   8.761 -0.6169  1.6070 -1.1066
    6SAPS  H18S  742   2.470   1.088   8.783  2.7841  0.5360  2.7998
    6SAPS  C219  743   2.427   0.911   8.671 -0.6833 -0.4591 -0.8263
    6SAPS  H19R  744   2.350   0.982   8.635 -0.2385 -0.6315 -2.1737
    6SAPS  H19S  745   2.379   0.820   8.711 -2.3582  1.2671  1.3507
    6SAPS  C220  746   2.524   0.869   8.551  0.2405 -0.0953 -0.1187
    6SAPS  H20R  747   2.587   0.952   8.514 -1.3560  2.0256  1.6729
    6SAPS  H20S  748   2.463   0.833   8.465  0.6758  2.7081 -1.7195
    6SAPS  H20T  749   2.586   0.784   8.586 -1.2583 -1.4569 -0.6066
    6SAPS   C33  750   3.051   0.427  10.551 -0.0647  0.3844  0.4739
    6SAPS   H3X  751   3.036   0.328  10.597  1.6511 -0.5867 -0.9316
    6SAPS   H3Y  752   3.134   0.399  10.482 -0.1344  0.4010  0.3825
    6SAPS   C34  753   2.920   0.465  10.467 -0.3499 -0.0245 -0.4503
    6SAPS   H4X  754   2.852   0.515  10.540  1.6736 -2.2573  3.2954
    6SAPS   H4Y  755   2.881   0.367  10.434 -1.4486  0.4050 -0.4894
    6SAPS   C35  756   2.953   0.550  10.346 -0.6464  0.4449  0.2400
    6SAPS   H5X  757   3.034   0.503  10.286 -0.7743  0.7091 -0.1445
    6SAPS   H5Y  758   2.981   0.652  10.380  0.0662 -0.0179  1.0872
    6SAPS   C36  759   2.830   0.568  10.256 -0.1198  0.2088 -0.2813
    6SAPS   H6X  760   2.822   0.670  10.212  1.3431  1.0076  1.1559
    6SAPS   H6Y  761   2.734   0.560  10.310  0.5867 -0.7240  0.9025
    6SAPS   C37  762   2.833   0.461  10.140 -0.0456  0.4676 -0.1035
    6SAPS   H7X  763   2.849   0.364  10.192 -0.0770 -0.2531 -1.3917
    6SAPS   H7Y  764   2.930   0.479  10.089  0.0579  2.3231  0.6495
    6SAPS   C38  765   2.704   0.463  10.057  0.1886  0.5674 -0.1099
    6SAPS   H8X  766   2.674   0.565  10.024 -0.2668  0.4426 -0.0813
    6SAPS   H8Y  767   2.612   0.425  10.105  0.3585  0.0034 -0.2296
    6SAPS   C39  768   2.723   0.387   9.929  0.9742 -0.6019  0.0195
    6SAPS   H9X  769   2.742   0.278   9.941 -2.6254 -1.2623  0.9187
    6SAPS   H9Y  770   2.804   0.432   9.869  0.1614  1.1724  0.1907
    6SAPS  C310  771   2.600   0.386   9.842 -0.1500 -0.3242 -0.4675
    6SAPS  H10X  772   2.538   0.477   9.859 -0.6585 -0.9957  1.5743
    6SAPS  H10Y  773   2.540   0.303   9.884  1.1732 -1.0633 -0.0097
    6SAPS  C311  774   2.631   0.362   9.695  0.4606 -0.4589 -0.4743
    6SAPS  H11X  775   2.670   0.259   9.690 -2.1461 -1.7008  1.9465
    6SAPS  H11Y  776   2.706   0.442   9.671 -0.4370  0.3623 -0.6024
    6SAPS  C312  777   2.503   0.387   9.618 -0.6695 -0.8671  0.6330
    6SAPS  H12X  778   2.484   0.495   9.639  0.1285 -0.9508  1.9046
    6SAPS  H12Y  779   2.412   0.332   9.649 -0.1527 -1.5391  0.9750
    6SAPS  C313  780   2.527   0.366   9.471 -0.0084 -0.1138 -0.0069
    6SAPS  H13X  781   2.545   0.258   9.456  3.9202  0.0511  2.1663
    6SAPS  H13Y  782   2.625   0.411   9.447  0.1007 -0.0270  0.5740
    6SAPS  C314  783   2.416   0.414   9.378  0.1328  0.5637  0.1798
    6SAPS  H14X  784   2.405   0.522   9.399 -0.5707  0.5008  0.1554
    6SAPS  H14Y  785   2.325   0.351   9.384 -0.8117  1.2793 -3.9928
    6SAPS  C315  786   2.454   0.396   9.229  0.2213  0.4028 -0.2617
    6SAPS  H15X  787   2.457   0.285   9.226  1.2391  0.3685  1.1385
    6SAPS  H15Y  788   2.552   0.432   9.190 -0.9863  0.1173 -3.9556
    6SAPS  C316  789   2.353   0.452   9.133  0.1833  0.0265  0.7839
    6SAPS  H16X  790   2.337   0.556   9.167  0.5747 -0.4515  2.5200
    6SAPS  H16Y  791   2.260   0.391   9.144  1.9145 -2.7361  1.1694
    6SAPS  C317  792   2.402   0.435   8.984  0.2685  0.3892 -0.1382
    6SAPS  H17X  793   2.441   0.331   8.980  1.5048  0.7591  1.2663
    6SAPS  H17Y  794   2.488   0.506   8.989 -0.3675  1.1451  3.8539
    6SAPS  C318  795   2.300   0.469   8.877 -0.3836  0.2065 -0.5126
    6SAPS  H18X  796   2.268   0.574   8.891  0.2643  0.4677 -0.9751
    6SAPS  H18Y  797   2.208   0.407   8.887  0.2826 -0.4282  2.9695
    6SAPS  H18Z  798   2.330   0.474   8.770 -0.8395 -1.3745 -0.7496
    7SAPS     N  799   4.765   1.010  10.937 -1.1521 -1.1668 -0.3143
    7SAPS   HN1  800   4.797   0.919  10.975  0.9040 -0.3245  0.1124
    7SAPS   HN2  801   4.719   1.066  11.011  1.6954  0.7709  0.1856
    7SAPS   HN3  802   4.699   1.010  10.856 -0.7747 -1.4982 -0.6265
    7SAPS   C12  803   4.895   1.093  10.901  0.1015  0.6781 -1.0286
    7SAPS  H12A  804   4.853   1.169  10.837 -0.5122 -1.6614 -3.5795
    7SAPS   C13  805   4.964   1.164  11.016 -0.4399  0.2072 -0.2536
    7SAPS  O13A  806   4.926   1.157  11.133 -0.0077  0.1794  0.9577
    7SAPS  O13B  807   5.071   1.222  10.984 -0.5056  0.0927  0.1202
    7SAPS   C11  808   4.990   0.993  10.829  0.6542 -0.0253  0.1480
    7SAPS  H11A  809   5.019   0.909  10.895 -0.4521 -1.3868 -1.0377
    7SAPS  H11B  810   5.086   1.049  10.815 -0.3197  2.4123  2.4000
    7SAPS     P  811   4.947   0.793  10.662  0.0758  0.0511 -0.6717
    7SAPS   O13  812   4.980   0.718  10.787  0.0562  0.0599  0.0167
    7SAPS   O14  813   4.836   0.757  10.577  0.0162 -0.8081  0.0349
    7SAPS   O12  814   4.919   0.938  10.712  0.3202 -0.3758 -0.2637
    7SAPS   O11  815   5.077   0.803  10.575 -0.9074 -0.2412  0.0988
    7SAPS    C1  816   5.118   0.920  10.503  0.1471  0.0949 -0.1828
    7SAPS    HA  817   5.056   1.005  10.536  0.5025  0.6340 -0.8975
    7SAPS    HB  818   5.226   0.943  10.515  0.9325 -2.2658 -1.9142
    7SAPS    C2  819   5.104   0.904  10.348  0.4498  0.1247  0.2037
    7SAPS    HS  820   5.126   1.004  10.306  1.8104 -0.7520 -1.2578
    7SAPS   O21  821   4.970   0.861  10.310 -0.7667 -0.2334 -0.3191
    7SAPS   C21  822   4.930   0.894  10.193  0.2873 -0.2895 -1.0564
    7SAPS   O22  823   4.971   0.986  10.126  0.0802 -0.2122  0.3012
    7SAPS   C22  824   4.805   0.806  10.162 -0.5871 -0.1643 -0.2924
    7SAPS   H2R  825   4.851   0.705  10.156  2.6316  1.1826 -0.3356
    7SAPS   H2S  826   4.728   0.818  10.241  0.2048 -0.7975  0.5962
    7SAPS    C3  827   5.204   0.804  10.293  0.1386 -0.3982  0.1564
    7SAPS    HX  828   5.177   0.703  10.331 -0.3778 -0.4985 -0.4494
    7SAPS    HY  829   5.302   0.833  10.335  0.5277 -2.6915  0.9670
    7SAPS   O31  830   5.209   0.816  10.147  0.0327 -0.4192  0.1951
    7SAPS   C31  831   5.269   0.711  10.090 -1.0086 -0.1157  0.5089
    7SAPS   O32  832   5.306   0.613  10.149 -0.3482 -0.1380  0.3423
    7SAPS   C32  833   5.294   0.739   9.938 -0.3362  0.0510 -0.3234
    7SAPS   H2X  834   5.383   0.805   9.930  0.4563 -0.9504 -0.0591
    7SAPS   H2Y  835   5.214   0.799   9.890  0.0353  0.6918 -0.1602
    7SAPS   C23  836   4.750   0.831  10.018  0.3596  0.2447  0.2580
    7SAPS   H3R  837   4.835   0.846   9.949  0.8031 -0.7215  0.5738
    7SAPS   H3S  838   4.686   0.921  10.003  2.2366  1.3700 -1.5852
    7SAPS   C24  839   4.676   0.703   9.976  0.3348 -0.5594  0.0848
    7SAPS   H4R  840   4.601   0.686  10.056  0.2754 -0.1624  0.1185
    7SAPS   H4S  841   4.738   0.612   9.984  0.1438 -0.7691 -0.7788
    7SAPS   C25  842   4.610   0.727   9.842 -0.2830 -0.3700 -0.1492
    7SAPS   H5R  843   4.517   0.785   9.836 -0.6235 -1.0934 -2.7019
    7SAPS   C26  844   4.659   0.688   9.721 -0.2582  0.2066  0.0054
    7SAPS   H6R  845   4.609   0.720   9.629 -1.2861  1.5919  1.0176
    7SAPS   C27  846   4.794   0.622   9.699 -0.2577 -0.0933  0.2729
    7SAPS   H7R  847   4.787   0.514   9.674  0.6911 -0.5191  1.7440
    7SAPS   H7S  848   4.853   0.625   9.792  0.9573  0.1185 -0.4850
    7SAPS   C28  849   4.873   0.697   9.595  0.2253  0.2669  0.1177
    7SAPS   H8R  850   4.943   0.769   9.640 -1.8428  2.8886 -0.5600
    7SAPS   C29  851   4.872   0.679   9.458  0.4323  0.3878 -0.4244
    7SAPS   H9R  852   4.958   0.721   9.403 -0.9422  0.1306 -2.9208
    7SAPS  C210  853   4.789   0.593   9.372 -0.3260  0.0417  0.1933
    7SAPS  H10R  854   4.703   0.554   9.431  0.2607 -2.0008 -0.2490
    7SAPS  H10S  855   4.844   0.499   9.353 -1.9894 -1.0793  0.6325
    7SAPS  C211  856   4.753   0.672   9.250  0.2810 -0.1022  0.2177
    7SAPS  H11R  857   4.646   0.688   9.232 -0.1907 -0.9023  2.1270
    7SAPS  C212  858   4.835   0.713   9.152  0.0079 -0.1120  0.2288
    7SAPS  H12R  859   4.785   0.775   9.076  0.7527 -0.6731 -0.7521
    7SAPS  C213  860   4.980   0.700   9.138  0.6320  0.2272  0.4079
    7SAPS  H13R  861   5.018   0.606   9.183  0.4504 -0.5065 -0.9275
    7SAPS  H13S  862   5.030   0.779   9.199 -0.0561 -0.2035  1.5618
    7SAPS  C214  863   5.032   0.704   8.996  0.3171  0.2854  0.3899
    7SAPS  H14R  864   5.093   0.616   8.971  0.5539  0.4484  0.3917
    7SAPS  C215  865   5.029   0.788   8.888  0.6270  0.3990 -0.4125
    7SAPS  H15R  866   5.070   0.763   8.790  0.5025 -5.0538  0.6327
    7SAPS  C216  867   4.963   0.914   8.900 -0.0860  0.0371  0.0318
    7SAPS  H16R  868   5.042   0.991   8.887 -0.3034  0.3645  0.5865
    7SAPS  H16S  869   4.906   0.937   8.993  1.8929  2.9719  0.6377
    7SAPS  C217  870   4.860   0.943   8.790 -0.1965  0.1557  0.4189
    7SAPS  H17R  871   4.768   0.889   8.820 -0.8099  1.8209  1.6709
    7SAPS  H17S  872   4.885   0.900   8.690 -1.2225  3.5222 -1.4422
    7SAPS  C218  873   4.819   1.093   8.773 -0.3474  0.1927  0.3344
    7SAPS  H18R  874   4.888   1.170   8.813 -1.9475  0.6831  2.3152
    7SAPS  H18S  875   4.724   1.097   8.830 -0.4190 -0.5008  0.2669
    7SAPS  C219  876   4.804   1.133   8.624  0.3538 -0.1531  0.6150
    7SAPS  H19R  877   4.899   1.120   8.568  0.1558 -0.4250  0.3347
    7SAPS  H19S  878   4.772   1.239   8.621 -0.4450 -0.3710  0.9478
    7SAPS  C220  879   4.695   1.053   8.547 -0.1998 -0.1355  0.4411
    7SAPS  H20R  880   4.689   1.077   8.438  1.0787 -2.5077 -0.2219
    7SAPS  H20S  881   4.596   1.076   8.593 -0.2999 -0.6782  0.5044
    7SAPS  H20T  882   4.721   0.945   8.549 -1.6754 -0.5400 -0.4063
    7SAPS   C33  883   5.320   0.613   9.861 -0.1143  0.0565  0.1920
    7SAPS   H3X  884   5.246   0.531   9.860 -0.7828  0.6523 -0.6932
    7SAPS   H3Y  885   5.416   0.572   9.900 -1.1585 -2.0325  0.7173
    7SAPS   C34  886   5.350   0.646   9.714 -0.8437  0.0575 -0.1548
    7SAPS   H4X  887   5.439   0.709   9.692 -1.0292  0.5059  0.3633
    7SAPS   H4Y  888   5.261   0.708   9.691 -0.0470  1.3292  0.0950
    7SAPS   C35  889   5.352   0.524   9.614 -0.3422  0.6160 -1.0923
    7SAPS   H5X  890   5.250   0.483   9.628  0.6235 -1.0114  2.1733
    7SAPS   H5Y  891   5.425   0.445   9.642 -2.2639 -1.3696 -1.3817
    7SAPS   C36  892   5.389   0.553   9.465  0.1486  0.0825  0.4588
    7SAPS   H6X  893   5.406   0.459   9.408  2.7142  1.1022 -0.6134
    7SAPS   H6Y  894   5.484   0.608   9.452 -0.7115  1.1275 -2.1363
    7SAPS   C37  895   5.280   0.628   9.386  0.0715  0.6908  0.0600
    7SAPS   H7X  896   5.252   0.727   9.427 -0.4548  1.9893 -3.1283
    7SAPS   H7Y  897   5.184   0.573   9.379  0.5012  0.0191 -0.6923
    7SAPS   C38  898   5.334   0.650   9.244 -0.3742 -0.0823  0.0517
    7SAPS   H8X  899   5.440   0.683   9.252 -0.4070  0.0582 -0.0809
    7SAPS   H8Y  900   5.291   0.745   9.204  1.3263  0.7494  0.1265
    7SAPS   C39  901   5.332   0.527   9.151  0.2024  0.0978  0.0012
    7SAPS   H9X  902   5.229   0.489   9.137 -0.0253  0.3467  0.9858
    7SAPS   H9Y  903   5.389   0.442   9.194 -1.5038 -1.3473 -0.4593
    7SAPS  C310  904   5.406   0.554   9.018  0.6322  0.0209  0.0951
    7SAPS  H10X  905   5.513   0.555   9.048  0.9408  1.8772 -0.9677
    7SAPS  H10Y  906   5.378   0.651   8.972 -1.6300 -0.1398  0.9883
    7SAPS  C311  907   5.381   0.445   8.908 -0.0721  0.1790 -0.3817
    7SAPS  H11X  908   5.275   0.414   8.894 -0.0243 -0.0190 -0.3125
    7SAPS  H11Y  909   5.436   0.355   8.945 -1.1365 -0.3905 -0.1377
    7SAPS  C312  910   5.427   0.494   8.769 -0.3852  0.2789  0.2648
    7SAPS  H12X  911   5.458   0.405   8.711  0.5446 -1.0701  2.6943
    7SAPS  H12Y  912   5.519   0.555   8.775 -0.0123  0.0865 -2.4539
    7SAPS  C313  913   5.314   0.560   8.693 -0.2051  0.3070 -0.0921
    7SAPS  H13X  914   5.287   0.654   8.746 -0.2698  0.2497 -0.0218
    7SAPS  H13Y  915   5.222   0.498   8.693 -0.2537  0.3449 -1.9131
    7SAPS  C314  916   5.330   0.572   8.541  0.0065 -0.1464 -0.1673
    7SAPS  H14X  917   5.374   0.481   8.496 -1.1255 -1.4073  1.1915
    7SAPS  H14Y  918   5.409   0.650   8.533  2.2379 -2.2444  0.3643
    7SAPS  C315  919   5.193   0.618   8.480  0.3821  0.5349  0.5573
    7SAPS  H15X  920   5.147   0.701   8.538  0.8902  1.4282 -0.2813
    7SAPS  H15Y  921   5.134   0.527   8.502 -1.4886  1.9208  1.5652
    7SAPS  C316  922   5.193   0.646   8.330 -0.6869  0.3899 -0.8302
    7SAPS  H16X  923   5.259   0.568   8.288  1.0986  0.0764  2.2136
    7SAPS  H16Y  924   5.231   0.750   8.319 -0.4964  0.4298  0.1008
    7SAPS  C317  925   5.062   0.633   8.260 -0.5928 -0.5859 -0.2545
    7SAPS  H17X  926   4.988   0.711   8.285  1.2872  1.7001 -1.4624
    7SAPS  H17Y  927   5.012   0.534   8.270 -1.2604 -1.0426 -5.5436
    7SAPS  C318  928   5.086   0.633   8.109 -0.7099 -0.1613 -0.4349
    7SAPS  H18X  929   5.143   0.723   8.076 -1.4534  0.3720 -0.2804
    7SAPS  H18Y  930   4.989   0.630   8.055  1.2474 -2.1340 -4.3201
    7SAPS  H18Z  931   5.127   0.533   8.085 -1.6908 -0.3649 -1.3306
    8SAPS     N  932   2.319   0.404  11.169  0.0460  0.1096 -0.0487
    8SAPS   HN1  933   2.339   0.376  11.070  0.9771 -1.7122  0.6012
    8SAPS   HN2  934   2.307   0.316  11.223  1.2620  0.4657  0.8500
    8SAPS   HN3  935   2.235   0.465  11.173 -0.3421 -0.4932  2.7973
    8SAPS   C12  936   2.439   0.488  11.214  1.3896 -0.4825  0.0081
    8SAPS  H12A  937   2.435   0.492  11.322  0.4482 -0.5235 -0.0229
    8SAPS   C13  938   2.582   0.444  11.175  0.0987  0.3813 -0.5855
    8SAPS  O13A  939   2.603   0.334  11.116 -0.2402  0.0398 -0.3116
    8SAPS  O13B  940   2.673   0.524  11.212 -0.0181  0.2841  0.0731
    8SAPS   C11  941   2.424   0.631  11.153  0.8265  0.1875  0.3035
    8SAPS  H11A  942   2.453   0.635  11.046 -0.1562  1.4547  0.0617
    8SAPS  H11B  943   2.499   0.691  11.210  1.1063 -0.7418  0.9375
    8SAPS     P  944   2.245   0.808  11.105 -0.4354  0.0192 -0.3817
    8SAPS   O13  945   2.112   0.857  11.147  0.1817 -0.1025  0.3388
    8SAPS   O14  946   2.362   0.898  11.129  0.4750 -0.0649 -0.1619
    8SAPS   O12  947   2.276   0.672  11.169 -0.1681 -0.5981  0.6938
    8SAPS   O11  948   2.233   0.770  10.949 -0.5712 -0.4660 -0.0700
    8SAPS    C1  949   2.211   0.640  10.888 -0.1041 -0.2762 -0.2405
    8SAPS    HA  950   2.306   0.583  10.902  0.4284  0.1816 -1.7711
    8SAPS    HB  951   2.132   0.588  10.945 -0.3790 -1.8621 -1.9787
    8SAPS    C2  952   2.168   0.660  10.739  0.5632 -0.8793  0.0900
    8SAPS    HS  953   2.157   0.560  10.690  0.6524 -0.5549 -0.6040
    8SAPS   O21  954   2.263   0.743  10.662  0.2159  0.2489 -0.7903
    8SAPS   C21  955   2.355   0.670  10.611 -0.6123  0.6604  0.0007
    8SAPS   O22  956   2.385   0.556  10.635 -0.2831 -0.3488 -0.1710
    8SAPS   C22  957   2.424   0.758  10.502 -0.1187  0.4177 -0.5171
    8SAPS   H2R  958   2.433   0.863  10.537  1.5010  0.0733  0.2005
    8SAPS   H2S  959   2.528   0.719  10.499 -0.6218 -1.0998  0.2797
    8SAPS    C3  960   2.032   0.732  10.728 -0.3431 -0.0987 -0.5913
    8SAPS    HX  961   2.049   0.840  10.747 -0.2653 -0.4620  1.5495
    8SAPS    HY  962   1.966   0.694  10.809  0.3946 -3.7160 -1.4929
    8SAPS   O31  963   1.985   0.717  10.592 -0.1866 -0.0853 -0.2451
    8SAPS   C31  964   1.883   0.796  10.558  0.7277  0.0737  0.6657
    8SAPS   O32  965   1.833   0.887  10.623  0.2556 -0.0233 -0.6701
    8SAPS   C32  966   1.844   0.744  10.419  0.5667 -0.8257 -0.1403
    8SAPS   H2X  967   1.833   0.633  10.417  1.4897 -0.9304  0.3438
    8SAPS   H2Y  968   1.929   0.765  10.351 -0.9551  3.0417 -1.1089
    8SAPS   C23  969   2.349   0.741  10.369 -0.5870 -0.2794 -1.0076
    8SAPS   H3R  970   2.321   0.636  10.349 -0.4317 -0.6083  0.4003
    8SAPS   H3S  971   2.419   0.753  10.283  1.0973  0.0595  0.3589
    8SAPS   C24  972   2.222   0.825  10.352  0.6290 -0.9871 -0.2108
    8SAPS   H4R  973   2.146   0.782  10.421  2.3798 -1.2330  1.6687
    8SAPS   H4S  974   2.181   0.795  10.253 -1.5490  0.7610  0.0892
    8SAPS   C25  975   2.228   0.969  10.362  0.4200  0.2498 -0.2562
    8SAPS   H5R  976   2.215   1.014  10.462 -0.5378  0.8763 -0.6520
    8SAPS   C26  977   2.218   1.055  10.262  0.4773  0.0590  1.1695
    8SAPS   H6R  978   2.230   1.159  10.293 -1.3989  0.9777 -0.8861
    8SAPS   C27  979   2.197   1.032  10.112 -0.7657 -0.2013 -0.4431
    8SAPS   H7R  980   2.236   0.936  10.073 -1.5472 -0.7682  0.1257
    8SAPS   H7S  981   2.256   1.104  10.051  1.0063 -1.6604 -0.5583
    8SAPS   C28  982   2.048   1.057  10.087 -0.2603  0.7653 -0.3659
    8SAPS   H8R  983   1.984   1.079  10.174  0.4175 -0.3373  0.4208
    8SAPS   C29  984   1.996   1.057   9.968  0.3814  0.2527  0.1243
    8SAPS   H9R  985   1.888   1.077   9.962  0.7794  2.8924  0.7900
    8SAPS  C210  986   2.075   1.040   9.842 -0.8735  0.1263 -0.7112
    8SAPS  H10R  987   2.008   0.999   9.764 -3.3392  2.0039  0.3166
    8SAPS  H10S  988   2.152   0.961   9.856  0.4548  1.6970  1.3730
    8SAPS  C211  989   2.149   1.165   9.803 -0.7839  0.3994 -0.6009
    8SAPS  H11R  990   2.173   1.224   9.893 -0.7581  0.2129 -0.4848
    8SAPS  C212  991   2.155   1.210   9.681 -0.0034 -0.0020 -0.4993
    8SAPS  H12R  992   2.204   1.308   9.667  1.5935 -0.4468  1.4072
    8SAPS  C213  993   2.116   1.147   9.551 -0.5253  0.2999  0.0839
    8SAPS  H13R  994   2.075   1.222   9.480 -0.6984  1.9797  1.8503
    8SAPS  H13S  995   2.025   1.089   9.575 -0.8647  1.0590  0.6941
    8SAPS  C214  996   2.228   1.065   9.496  0.9699 -0.6005 -0.5212
    8SAPS  H14R  997   2.310   1.051   9.568  1.2789  1.5905 -0.3694
    8SAPS  C215  998   2.236   1.017   9.373 -0.1150  0.3727 -0.5159
    8SAPS  H15R  999   2.318   0.946   9.352 -1.1541 -1.2943  0.7773
    8SAPS  C216 1000   2.128   1.011   9.270  0.8166  0.0490  1.0545
    8SAPS  H16R 1001   2.026   1.038   9.305 -0.5569 -0.3045 -2.2731
    8SAPS  H16S 1002   2.117   0.914   9.216 -0.4489  1.2797 -1.0614
    8SAPS  C217 1003   2.151   1.114   9.157 -0.1484  0.2442 -0.8061
    8SAPS  H17R 1004   2.260   1.124   9.138  0.2892 -1.1922  0.7803
    8SAPS  H17S 1005   2.129   1.214   9.199 -0.4371 -0.5379  0.9547
    8SAPS  C218 1006   2.084   1.086   9.023  1.0238  0.5783  0.0788
    8SAPS  H18R 1007   1.975   1.105   9.018  0.9804  0.3783  0.2401
    8SAPS  H18S 1008   2.085   0.977   8.999  1.0654  1.0045 -2.0563
    8SAPS  C219 1009   2.149   1.157   8.905 -0.3339  0.4453 -0.0825
    8SAPS  H19R 1010   2.259   1.147   8.909 -0.5223 -2.5166  0.1014
    8SAPS  H19S 1011   2.132   1.265   8.922  0.7789  0.7048 -0.5404
    8SAPS  C220 1012   2.101   1.100   8.771 -0.0347  0.4407 -0.6592
    8SAPS  H20R 1013   2.162   1.138   8.686  1.3361  1.6080  0.7813
    8SAPS  H20S 1014   1.991   1.112   8.762 -0.5847 -2.7368  0.5268
    8SAPS  H20T 1015   2.109   0.989   8.768  0.4275  0.4773 -0.9290
    8SAPS   C33 1016   1.709   0.801  10.362  0.0061 -0.0595 -0.8604
    8SAPS   H3X 1017   1.724   0.911  10.362  1.9607 -0.2948 -0.8097
    8SAPS   H3Y 1018   1.623   0.776  10.429  1.7579  1.0914  2.0179
    8SAPS   C34 1019   1.685   0.761  10.217 -0.1660 -0.1499  0.1072
    8SAPS   H4X 1020   1.585   0.800  10.188  0.2107  2.1829  1.6028
    8SAPS   H4Y 1021   1.689   0.650  10.217  0.3741 -0.1920  2.5234
    8SAPS   C35 1022   1.789   0.840  10.124  0.8346  0.6458 -0.5110
    8SAPS   H5X 1023   1.883   0.838  10.182  0.0545  3.3098  1.0669
    8SAPS   H5Y 1024   1.758   0.947  10.117 -0.0623  0.3523 -1.3426
    8SAPS   C36 1025   1.807   0.765   9.991  0.1440  1.0201  0.0233
    8SAPS   H6X 1026   1.863   0.671  10.014 -1.6371  0.1296  0.9675
    8SAPS   H6Y 1027   1.867   0.822   9.917 -0.7280  0.3083 -1.2580
    8SAPS   C37 1028   1.683   0.718   9.915  0.0128  0.0973 -0.7888
    8SAPS   H7X 1029   1.614   0.804   9.915 -0.2723 -0.0626  1.9490
    8SAPS   H7Y 1030   1.629   0.636   9.967 -1.9670  2.4418  1.0302
    8SAPS   C38 1031   1.713   0.694   9.771 -0.9155 -0.1740 -0.4981
    8SAPS   H8X 1032   1.788   0.615   9.748 -0.2371  0.9361 -2.3671
    8SAPS   H8Y 1033   1.768   0.782   9.733  1.3309 -1.2039  0.2212
    8SAPS   C39 1034   1.591   0.654   9.686  0.4595 -0.9023 -0.0213
    8SAPS   H9X 1035   1.521   0.736   9.713  2.1668  0.1951  1.3194
    8SAPS   H9Y 1036   1.544   0.560   9.722 -3.8703  1.5188  1.2849
    8SAPS  C310 1037   1.622   0.655   9.539  0.1919  0.0493 -0.2675
    8SAPS  H10X 1038   1.696   0.577   9.512 -0.1027 -0.5946  0.7411
    8SAPS  H10Y 1039   1.664   0.754   9.511 -0.2170  0.1465 -0.5373
    8SAPS  C311 1040   1.498   0.624   9.454 -0.1286  0.6552 -0.1482
    8SAPS  H11X 1041   1.425   0.708   9.460 -0.7576  0.0578  1.0084
    8SAPS  H11Y 1042   1.446   0.530   9.482 -1.6075  1.7964  1.1318
    8SAPS  C312 1043   1.533   0.616   9.308 -0.0128 -0.8023  0.9732
    8SAPS  H12X 1044   1.587   0.521   9.289 -0.7470 -0.9046 -0.8470
    8SAPS  H12Y 1045   1.594   0.704   9.277  0.3798 -1.4840 -0.2539
    8SAPS  C313 1046   1.407   0.602   9.226 -0.6903  0.2239  0.6265
    8SAPS  H13X 1047   1.356   0.700   9.226 -1.6867 -0.2484  2.5646
    8SAPS  H13Y 1048   1.345   0.521   9.270 -2.6868  1.1595 -0.3635
    8SAPS  C314 1049   1.433   0.574   9.075  0.6094 -0.0389 -0.1680
    8SAPS  H14X 1050   1.471   0.469   9.072  0.9629 -0.1923  4.1734
    8SAPS  H14Y 1051   1.517   0.636   9.037  0.9382 -1.1950 -1.4264
    8SAPS  C315 1052   1.303   0.607   9.000  0.3197  0.1108  0.7170
    8SAPS  H15X 1053   1.281   0.716   8.999  1.8294  0.4498 -1.2231
    8SAPS  H15Y 1054   1.214   0.561   9.048 -1.8035  0.9004 -2.1681
    8SAPS  C316 1055   1.318   0.569   8.854 -0.1350  0.5907 -0.4744
    8SAPS  H16X 1056   1.371   0.471   8.847 -2.0072 -0.3789 -2.1301
    8SAPS  H16Y 1057   1.385   0.645   8.808  1.2366  0.1339  0.6817
    8SAPS  C317 1058   1.184   0.556   8.776  1.2361 -0.1172 -0.1435
    8SAPS  H17X 1059   1.129   0.653   8.779  1.0680 -0.2021 -0.4432
    8SAPS  H17Y 1060   1.109   0.481   8.807 -1.7175  2.1438 -1.3367
    8SAPS  C318 1061   1.213   0.522   8.630  0.4870 -0.0421  0.4840
    8SAPS  H18X 1062   1.267   0.426   8.619 -2.5328 -1.6769 -1.4511
    8SAPS  H18Y 1063   1.269   0.613   8.601 -0.2243 -0.0905 -1.0965
    8SAPS  H18Z 1064   1.121   0.514   8.569  0.6653  3.3187 -0.4332
    9SAPS     N 1065   2.297   0.911   5.970 -0.0451  0.4353  0.0051
    9SAPS   HN1 1066   2.205   0.930   5.926 -0.6362  1.9651  1.7836
    9SAPS   HN2 1067   2.339   0.827   5.926  2.0637  0.3296  2.0151
    9SAPS   HN3 1068   2.272   0.874   6.065 -0.7770  0.0705 -0.3179
    9SAPS   C12 1069   2.380   1.035   5.987 -0.7593 -0.1877  0.3242
    9SAPS  H12A 1070   2.459   0.995   6.050 -0.1596 -1.4094 -1.1450
    9SAPS   C13 1071   2.430   1.101   5.853  0.8035 -0.4690  0.1547
    9SAPS  O13A 1072   2.412   1.046   5.740  0.5803  0.1537  0.2113
    9SAPS  O13B 1073   2.488   1.213   5.849  0.3673 -0.6706  0.6466
    9SAPS   C11 1074   2.313   1.145   6.074 -0.0201  0.6967 -0.6714
    9SAPS  H11A 1075   2.222   1.170   6.016 -1.1246  0.9362  1.0599
    9SAPS  H11B 1076   2.377   1.236   6.076  0.8735  0.0913 -1.1024
    9SAPS     P 1077   2.367   1.118   6.325  0.1078 -0.2876 -0.4159
    9SAPS   O13 1078   2.506   1.095   6.278 -0.2555 -0.6253  0.3392
    9SAPS   O14 1079   2.332   1.250   6.385 -0.3344 -0.1820  0.1543
    9SAPS   O12 1080   2.272   1.095   6.204  0.2852 -0.6957 -0.3984
    9SAPS   O11 1081   2.319   1.006   6.430  0.2971  0.8671 -1.2294
    9SAPS    C1 1082   2.181   0.963   6.432 -0.3426 -0.1040 -0.1013
    9SAPS    HA 1083   2.122   1.001   6.345  1.0489  1.9017 -0.2369
    9SAPS    HB 1084   2.170   0.853   6.428 -1.1184 -0.0881  1.1239
    9SAPS    C2 1085   2.116   1.007   6.559 -0.3461  0.4498 -0.2895
    9SAPS    HS 1086   2.116   1.118   6.551 -0.6837  0.3403 -2.4242
    9SAPS   O21 1087   2.184   0.950   6.682  0.2346  0.2859  0.6287
    9SAPS   C21 1088   2.182   1.031   6.784  0.0207 -0.3558  0.6062
    9SAPS   O22 1089   2.124   1.137   6.784 -0.2139 -0.3757 -0.0440
    9SAPS   C22 1090   2.269   0.974   6.888  0.3622 -0.2116  0.0050
    9SAPS   H2R 1091   2.244   0.867   6.903 -2.1071  0.2798 -0.0977
    9SAPS   H2S 1092   2.373   0.998   6.858  0.0696 -0.3244 -1.1418
    9SAPS    C3 1093   1.966   0.953   6.566  0.2114 -0.2091  0.8376
    9SAPS    HX 1094   1.954   0.843   6.571 -0.7529 -0.1157  0.8221
    9SAPS    HY 1095   1.920   0.979   6.469  2.9223 -0.1898 -0.5505
    9SAPS   O31 1096   1.897   1.009   6.679  0.1713  0.3930 -0.3510
    9SAPS   C31 1097   1.853   1.129   6.667 -0.1305 -0.5898 -0.3861
    9SAPS   O32 1098   1.861   1.200   6.570 -0.0895  0.2506 -0.3514
    9SAPS   C32 1099   1.782   1.170   6.798  0.1216  0.6609  0.2498
    9SAPS   H2X 1100   1.827   1.110   6.880 -1.5031 -0.9723  0.0090
    9SAPS   H2Y 1101   1.673   1.151   6.783  0.1232 -0.0306  1.0292
    9SAPS   C23 1102   2.261   1.062   7.025 -0.1526 -0.2008  0.0601
    9SAPS   H3R 1103   2.249   1.171   7.011 -1.8038 -0.1393  1.5286
    9SAPS   H3S 1104   2.360   1.047   7.073 -0.6333  3.1484  2.4035
    9SAPS   C24 1105   2.157   0.998   7.128  0.3162 -0.2114  0.1340
    9SAPS   H4R 1106   2.194   1.043   7.223  0.0024 -0.3722  0.3341
    9SAPS   H4S 1107   2.174   0.888   7.127  0.1812 -0.2373 -1.2704
    9SAPS   C25 1108   2.016   1.037   7.091 -0.4219  0.6526 -0.0349
    9SAPS   H5R 1109   1.981   1.012   6.990  2.3868  0.4450 -1.0471
    9SAPS   C26 1110   1.934   1.090   7.183 -0.1115 -0.8029 -0.3896
    9SAPS   H6R 1111   1.831   1.118   7.159  0.0674  0.3626  0.1276
    9SAPS   C27 1112   1.965   1.113   7.329 -0.8142  0.1241 -0.9571
    9SAPS   H7R 1113   2.023   1.029   7.373 -0.5773  0.4005 -0.7327
    9SAPS   H7S 1114   1.870   1.129   7.385  0.2407  2.2877  0.3783
    9SAPS   C28 1115   2.048   1.239   7.349  0.3799 -0.6491  0.7419
    9SAPS   H8R 1116   2.105   1.272   7.261 -2.8765 -0.9606 -1.6391
    9SAPS   C29 1117   2.060   1.313   7.462  0.6371 -0.0568  0.8313
    9SAPS   H9R 1118   2.131   1.398   7.465 -0.3029  0.8615 -1.0728
    9SAPS  C210 1119   1.969   1.294   7.588 -0.5391  0.4735 -0.2417
    9SAPS  H10R 1120   1.936   1.188   7.595  0.5727  0.0434 -1.2192
    9SAPS  H10S 1121   1.875   1.353   7.584 -0.3444  0.7362 -1.2927
    9SAPS  C211 1122   2.040   1.334   7.715  0.2993  0.5310  0.2939
    9SAPS  H11R 1123   2.060   1.248   7.780 -0.5616  0.4051  0.4025
    9SAPS  C212 1124   2.080   1.453   7.764  0.2349 -0.1336 -0.4299
    9SAPS  H12R 1125   2.119   1.456   7.867 -1.4054 -1.9680  0.3109
    9SAPS  C213 1126   2.054   1.586   7.701  0.3532 -0.2105  0.2287
    9SAPS  H13R 1127   1.943   1.584   7.696  0.3332  0.6896  0.1510
    9SAPS  H13S 1128   2.093   1.588   7.596 -1.1665 -0.4461 -0.3610
    9SAPS  C214 1129   2.090   1.713   7.777 -0.2393  0.0676  0.2889
    9SAPS  H14R 1130   2.182   1.759   7.738  0.5966 -1.1587  0.7707
    9SAPS  C215 1131   2.021   1.760   7.889 -0.1155  0.3721  0.6298
    9SAPS  H15R 1132   2.058   1.856   7.926  0.1389  0.0471  1.2169
    9SAPS  C216 1133   1.895   1.706   7.947 -0.0878 -0.0178  0.3650
    9SAPS  H16R 1134   1.819   1.672   7.873 -1.6277  0.6456  1.5609
    9SAPS  H16S 1135   1.838   1.794   7.986 -1.6408 -1.1527  0.7623
    9SAPS  C217 1136   1.905   1.590   8.051  0.0529 -0.4752  0.2731
    9SAPS  H17R 1137   1.926   1.493   8.001  0.0775  0.5485 -1.8029
    9SAPS  H17S 1138   1.806   1.565   8.095 -1.2504  1.7995 -1.1437
    9SAPS  C218 1139   2.003   1.624   8.169  0.3562  0.9995  0.5678
    9SAPS  H18R 1140   1.963   1.709   8.228 -0.4467  1.5876 -0.7747
    9SAPS  H18S 1141   2.102   1.654   8.129  1.2663 -1.3078  0.8926
    9SAPS  C219 1142   2.009   1.498   8.266  0.8286 -0.3545 -0.0537
    9SAPS  H19R 1143   1.994   1.398   8.220 -0.1726 -0.7342  1.0527
    9SAPS  H19S 1144   1.932   1.500   8.346  0.3077 -0.0017 -0.5504
    9SAPS  C220 1145   2.147   1.483   8.330  0.4437  0.2235 -0.7236
    9SAPS  H20R 1146   2.214   1.450   8.249 -1.0627 -1.7156 -1.2479
    9SAPS  H20S 1147   2.135   1.405   8.408  0.2309  0.0993 -0.8803
    9SAPS  H20T 1148   2.181   1.577   8.378 -0.4528  0.6800 -0.9475
    9SAPS   C33 1149   1.815   1.319   6.823  0.9856  0.5725  0.1729
    9SAPS   H3X 1150   1.773   1.370   6.733  1.2906 -0.1334 -0.3785
    9SAPS   H3Y 1151   1.925   1.331   6.839  0.5968  2.4273  1.8705
    9SAPS   C34 1152   1.743   1.369   6.947  0.4896  0.5034  0.3359
    9SAPS   H4X 1153   1.752   1.284   7.018 -0.6002 -3.1371 -3.4571
    9SAPS   H4Y 1154   1.638   1.388   6.917  0.0056 -1.0790  0.9148
    9SAPS   C35 1155   1.797   1.500   7.008  0.0900  0.3899 -0.4789
    9SAPS   H5X 1156   1.787   1.583   6.936 -0.1516 -0.5101 -1.5051
    9SAPS   H5Y 1157   1.897   1.489   7.054 -0.2417 -2.5239 -0.2121
    9SAPS   C36 1158   1.702   1.537   7.124  0.3521  0.0538  0.4117
    9SAPS   H6X 1159   1.595   1.549   7.095 -0.4830 -0.7615  2.8525
    9SAPS   H6Y 1160   1.736   1.636   7.162 -1.5163 -0.3017  3.3749
    9SAPS   C37 1161   1.704   1.434   7.244 -0.1363 -0.6081  0.1576
    9SAPS   H7X 1162   1.811   1.416   7.269  0.2216  1.8754  0.6273
    9SAPS   H7Y 1163   1.647   1.348   7.202 -1.8375  0.0830  0.9607
    9SAPS   C38 1164   1.619   1.479   7.363 -0.4503 -0.1125 -0.3759
    9SAPS   H8X 1165   1.514   1.506   7.340 -0.2043  0.6108 -0.6551
    9SAPS   H8Y 1166   1.655   1.578   7.397  0.6460 -0.3965 -0.6849
    9SAPS   C39 1167   1.629   1.380   7.469  0.0090  0.2085 -0.3196
    9SAPS   H9X 1168   1.727   1.331   7.456 -0.1510 -0.6616  1.3738
    9SAPS   H9Y 1169   1.552   1.304   7.445 -2.6551  1.9128  2.1272
    9SAPS  C310 1170   1.590   1.445   7.603  0.1794  0.2388  0.0075
    9SAPS  H10X 1171   1.488   1.488   7.596 -0.6947 -1.3462  2.0426
    9SAPS  H10Y 1172   1.662   1.526   7.627 -0.2275  1.1372 -1.6611
    9SAPS  C311 1173   1.594   1.342   7.716 -0.2168 -0.6230 -0.5559
    9SAPS  H11X 1174   1.698   1.306   7.701  0.7271 -0.6559  4.3938
    9SAPS  H11Y 1175   1.519   1.261   7.720 -0.5275 -0.3020  0.3249
    9SAPS  C312 1176   1.602   1.410   7.853  0.5984  0.2303 -0.2749
    9SAPS  H12X 1177   1.694   1.472   7.854  0.1434  0.9705 -1.7950
    9SAPS  H12Y 1178   1.616   1.337   7.936  1.7295  1.6531  0.8518
    9SAPS  C313 1179   1.484   1.492   7.905 -0.2313 -0.1216  0.0928
    9SAPS  H13X 1180   1.388   1.439   7.890 -0.9421  0.4440  2.2078
    9SAPS  H13Y 1181   1.474   1.585   7.845  0.0279 -0.7096 -0.8684
    9SAPS  C314 1182   1.506   1.542   8.050  0.7316 -0.4780 -0.4677
    9SAPS  H14X 1183   1.595   1.606   8.066 -0.5323  0.6649  2.8264
    9SAPS  H14Y 1184   1.499   1.459   8.123 -0.8608  1.1291  1.3327
    9SAPS  C315 1185   1.387   1.634   8.092  0.0052  0.2280  0.0367
    9SAPS  H15X 1186   1.291   1.583   8.071  0.8551 -0.6797 -1.8229
    9SAPS  H15Y 1187   1.384   1.720   8.022  1.8873 -0.4966 -1.0058
    9SAPS  C316 1188   1.395   1.707   8.224 -0.5281  0.0254 -0.4421
    9SAPS  H16X 1189   1.484   1.771   8.210 -2.0135  1.9494 -1.5808
    9SAPS  H16Y 1190   1.413   1.642   8.312 -0.3538  1.5526  0.6971
    9SAPS  C317 1191   1.274   1.804   8.247 -0.3417  0.1727 -0.3002
    9SAPS  H17X 1192   1.197   1.724   8.251  0.1306 -0.2687  0.1843
    9SAPS  H17Y 1193   1.245   1.870   8.163  0.2425 -1.4193 -1.7949
    9SAPS  C318 1194   1.291   1.889   8.379  0.0315 -0.0375  0.9082
    9SAPS  H18X 1195   1.194   1.938   8.400  0.3857  2.4559 -2.3302
    9SAPS  H18Y 1196   1.376   1.959   8.361  0.2746 -0.5564 -0.0854
    9SAPS  H18Z 1197   1.321   1.824   8.463 -0.2427 -0.6331  0.5536
   10SAPS     N 1198   3.331   1.347   6.226 -0.1062 -0.1707  0.4739
   10SAPS   HN1 1199   3.269   1.426   6.199 -0.1164 -0.5704 -0.7542
   10SAPS   HN2 1200   3.307   1.314   6.322 -2.0250 -1.7807 -0.4766
   10SAPS   HN3 1201   3.425   1.390   6.223 -0.4663  0.6199  0.1206
   10SAPS   C12 1202   3.320   1.230   6.131 -0.3625  0.2612 -0.9118
   10SAPS  H12A 1203   3.354   1.265   6.034  1.1385  2.1455  0.2338
   10SAPS   C13 1204   3.399   1.101   6.174 -0.7021 -0.3373 -0.3300
   10SAPS  O13A 1205   3.477   1.099   6.275 -0.4460  0.1741  0.6778
   10SAPS  O13B 1206   3.403   1.004   6.089 -0.2434  0.5731 -0.3719
   10SAPS   C11 1207   3.173   1.197   6.108  0.2263  0.6103  0.4561
   10SAPS  H11A 1208   3.171   1.109   6.039  0.4648  1.2494 -0.3898
   10SAPS  H11B 1209   3.124   1.287   6.065 -0.0523  0.2295 -0.0407
   10SAPS     P 1210   2.963   1.125   6.250 -0.0674  0.2401 -0.3231
   10SAPS   O13 1211   2.905   1.191   6.366  0.5587 -0.0647  0.1754
   10SAPS   O14 1212   2.888   1.132   6.122 -0.2843  0.1491 -0.3736
   10SAPS   O12 1213   3.118   1.169   6.231  0.3913  0.1944 -0.2457
   10SAPS   O11 1214   2.965   0.973   6.301 -0.3436 -0.1815  0.5228
   10SAPS    C1 1215   3.069   0.929   6.389  0.1675 -0.0955  0.2097
   10SAPS    HA 1216   3.143   0.893   6.315 -0.8252  1.7260 -1.7798
   10SAPS    HB 1217   3.107   1.012   6.453 -0.2345  1.1280 -1.0806
   10SAPS    C2 1218   3.033   0.816   6.487 -0.1591 -0.2608 -0.8491
   10SAPS    HS 1219   2.969   0.751   6.423 -1.6758 -0.3225  0.6737
   10SAPS   O21 1220   2.957   0.883   6.588 -0.0491 -0.2442 -0.0549
   10SAPS   C21 1221   2.863   0.801   6.638 -0.1770  0.1966 -0.1666
   10SAPS   O22 1222   2.843   0.688   6.604  0.2958  0.0660  0.1402
   10SAPS   C22 1223   2.786   0.882   6.741  0.3988  0.1009  0.1131
   10SAPS   H2R 1224   2.863   0.946   6.788  1.9604 -3.1711  2.4129
   10SAPS   H2S 1225   2.722   0.953   6.684 -0.1824 -1.8552 -1.8156
   10SAPS    C3 1226   3.159   0.747   6.546  0.3030  0.2857 -0.5976
   10SAPS    HX 1227   3.232   0.818   6.589 -1.2615  0.9498  1.0981
   10SAPS    HY 1228   3.205   0.703   6.455 -0.5517 -2.0657  0.0348
   10SAPS   O31 1229   3.129   0.635   6.639  0.0883  0.0478  0.1829
   10SAPS   C31 1230   3.128   0.514   6.589 -0.0452 -0.2251  0.3686
   10SAPS   O32 1231   3.122   0.487   6.470  0.1892  0.2744  0.0268
   10SAPS   C32 1232   3.113   0.417   6.709  0.0072 -0.2647  0.4271
   10SAPS   H2X 1233   3.160   0.461   6.800  0.3174  1.9460 -0.7550
   10SAPS   H2Y 1234   3.174   0.327   6.684  0.8560 -0.5421  3.1305
   10SAPS   C23 1235   2.707   0.801   6.850 -0.1737 -0.9796  0.7115
   10SAPS   H3R 1236   2.611   0.772   6.801  1.2338 -1.1689 -2.1070
   10SAPS   H3S 1237   2.686   0.873   6.933  0.2391 -0.3275  0.2558
   10SAPS   C24 1238   2.776   0.680   6.911 -0.5328 -1.5087 -0.3030
   10SAPS   H4R 1239   2.765   0.595   6.840 -1.3334 -1.6428 -0.0374
   10SAPS   H4S 1240   2.732   0.654   7.010  0.9588  0.1281  0.8451
   10SAPS   C25 1241   2.926   0.704   6.935 -0.4882  0.4497  0.1462
   10SAPS   H5R 1242   2.986   0.670   6.849 -0.5641 -1.6000  0.8500
   10SAPS   C26 1243   2.981   0.760   7.041 -0.1261 -0.2800 -0.5727
   10SAPS   H6R 1244   3.091   0.773   7.044  0.0225 -1.5683  0.0676
   10SAPS   C27 1245   2.919   0.813   7.162  0.0049  0.0576 -0.3351
   10SAPS   H7R 1246   2.857   0.903   7.140  0.3898  0.2005 -0.8506
   10SAPS   H7S 1247   2.998   0.858   7.226  1.3712  1.8076 -3.0766
   10SAPS   C28 1248   2.838   0.706   7.238  0.2794  0.3716 -0.2635
   10SAPS   H8R 1249   2.888   0.609   7.248  0.9106  0.3888 -2.5953
   10SAPS   C29 1250   2.709   0.725   7.290 -0.6938  0.2871  0.0103
   10SAPS   H9R 1251   2.644   0.639   7.311 -0.4342  0.7704  3.4413
   10SAPS  C210 1252   2.623   0.847   7.279 -0.0209  0.1868 -0.0480
   10SAPS  H10R 1253   2.516   0.820   7.276  0.0059  0.0952 -0.2025
   10SAPS  H10S 1254   2.650   0.902   7.186  0.0935 -0.1273 -0.2012
   10SAPS  C211 1255   2.642   0.948   7.396 -0.2714  0.1085  0.1953
   10SAPS  H11R 1256   2.744   0.961   7.434 -0.1147  1.9029 -0.7489
   10SAPS  C212 1257   2.533   1.018   7.450 -0.1292 -0.2416  0.0851
   10SAPS  H12R 1258   2.550   1.079   7.539  0.8777 -2.2978  1.3799
   10SAPS  C213 1259   2.397   1.019   7.405  0.1634 -0.4608  0.1249
   10SAPS  H13R 1260   2.383   0.998   7.296  1.3661 -1.3652  0.1284
   10SAPS  H13S 1261   2.356   1.122   7.412  0.1780 -0.4367 -0.1341
   10SAPS  C214 1262   2.316   0.911   7.485 -0.0769  0.3401 -0.1452
   10SAPS  H14R 1263   2.278   0.825   7.427 -0.7042 -0.4712  1.4084
   10SAPS  C215 1264   2.270   0.913   7.616 -0.4797  0.0621  0.0936
   10SAPS  H15R 1265   2.213   0.827   7.655  1.6538 -1.1030  0.7753
   10SAPS  C216 1266   2.281   1.028   7.712 -1.3444  0.7186 -0.0964
   10SAPS  H16R 1267   2.181   1.076   7.720 -1.2199  0.9648  0.0159
   10SAPS  H16S 1268   2.343   1.111   7.673 -0.5387  1.0115  1.6725
   10SAPS  C217 1269   2.337   0.994   7.853  0.6064 -0.9660 -0.4498
   10SAPS  H17R 1270   2.446   0.974   7.854  1.0020  1.0020 -1.1030
   10SAPS  H17S 1271   2.282   0.904   7.890 -1.4829 -0.4380 -2.0703
   10SAPS  C218 1272   2.301   1.108   7.945  0.0357 -0.1779  0.0895
   10SAPS  H18R 1273   2.193   1.129   7.953 -0.8728 -3.6127 -1.4014
   10SAPS  H18S 1274   2.357   1.201   7.921  0.4669 -0.4495  0.0188
   10SAPS  C219 1275   2.339   1.079   8.094  0.1268 -0.2346  0.1296
   10SAPS  H19R 1276   2.322   0.972   8.119 -4.1682 -0.4491 -2.7805
   10SAPS  H19S 1277   2.275   1.132   8.167  1.2297 -0.0159  0.9669
   10SAPS  C220 1278   2.488   1.115   8.118  0.3928  0.2106 -0.4052
   10SAPS  H20R 1279   2.550   1.074   8.036 -0.4529 -0.0928 -0.9098
   10SAPS  H20S 1280   2.534   1.088   8.215 -2.9881  0.4501  1.4237
   10SAPS  H20T 1281   2.494   1.226   8.116  1.3197  0.1821  0.1778
   10SAPS   C33 1282   2.968   0.382   6.746 -0.7431 -0.1440 -0.0171
   10SAPS   H3X 1283   2.926   0.311   6.672  0.4467  1.1123 -1.9976
   10SAPS   H3Y 1284   2.909   0.476   6.748 -1.2518 -0.4167 -1.4026
   10SAPS   C34 1285   2.959   0.326   6.886  0.1852 -0.3535  0.2682
   10SAPS   H4X 1286   2.984   0.407   6.957  0.8068  1.8135 -2.2705
   10SAPS   H4Y 1287   3.042   0.252   6.888  1.0977  0.6568  0.3427
   10SAPS   C35 1288   2.828   0.250   6.926 -0.0790  0.3348  0.3210
   10SAPS   H5X 1289   2.789   0.185   6.845 -0.0997  0.4430  0.2447
   10SAPS   H5Y 1290   2.751   0.327   6.948 -0.6888  0.4112 -1.8831
   10SAPS   C36 1291   2.840   0.169   7.058  0.2798  0.3354  0.5525
   10SAPS   H6X 1292   2.924   0.097   7.047 -0.3466 -0.2674 -0.3664
   10SAPS   H6Y 1293   2.749   0.109   7.079 -0.9549  0.8294 -2.8220
   10SAPS   C37 1294   2.850   0.259   7.184  0.4683  0.5857 -0.1431
   10SAPS   H7X 1295   2.773   0.339   7.180 -0.4605 -0.0834  2.3678
   10SAPS   H7Y 1296   2.947   0.312   7.184  1.0020 -0.3612 -1.1803
   10SAPS   C38 1297   2.844   0.187   7.319 -0.0205  0.4273 -0.0189
   10SAPS   H8X 1298   2.940   0.132   7.323 -0.0629  0.4125  2.7377
   10SAPS   H8Y 1299   2.765   0.111   7.334  2.0194 -1.3486  2.5893
   10SAPS   C39 1300   2.841   0.286   7.438  0.2628 -0.7046 -0.9506
   10SAPS   H9X 1301   2.745   0.341   7.428  1.6715  1.7762 -1.7275
   10SAPS   H9Y 1302   2.920   0.364   7.432 -0.1243 -0.1630  0.5364
   10SAPS  C310 1303   2.847   0.220   7.572 -0.0770 -0.3595 -0.5587
   10SAPS  H10X 1304   2.851   0.287   7.660 -1.5014 -1.9889  0.8266
   10SAPS  H10Y 1305   2.927   0.142   7.575  0.0197 -0.2901  3.0890
   10SAPS  C311 1306   2.727   0.132   7.597  0.9989  0.7194 -0.7208
   10SAPS  H11X 1307   2.735   0.048   7.524  0.5956 -1.9516  2.1085
   10SAPS  H11Y 1308   2.630   0.183   7.581  0.0874 -1.5945 -3.4357
   10SAPS  C312 1309   2.723   0.051   7.717  0.1629  0.5022 -0.7834
   10SAPS  H12X 1310   2.818  -0.006   7.722 -1.1057 -1.6249  2.0592
   10SAPS  H12Y 1311   2.635  -0.018   7.724  0.8804 -0.4882 -1.2892
   10SAPS  C313 1312   2.719   0.135   7.846 -0.2297 -0.5300 -0.3008
   10SAPS  H13X 1313   2.637   0.210   7.848  1.9123  2.0059 -1.2713
   10SAPS  H13Y 1314   2.809   0.197   7.862 -0.9644  0.1803  1.3106
   10SAPS  C314 1315   2.696   0.049   7.969  0.0743  0.4530 -0.0074
   10SAPS  H14X 1316   2.783  -0.016   7.988  1.1730  0.1477 -4.7756
   10SAPS  H14Y 1317   2.610  -0.018   7.946 -0.7371  1.4478  0.0137
   10SAPS  C315 1318   2.668   0.130   8.095  0.2146  0.4567 -0.0047
   10SAPS  H15X 1319   2.582   0.198   8.079  0.9454  1.7569  1.3533
   10SAPS  H15Y 1320   2.756   0.197   8.106 -1.9030  3.2955  0.7605
   10SAPS  C316 1321   2.637   0.041   8.215 -0.0870 -0.3513 -0.7588
   10SAPS  H16X 1322   2.732  -0.015   8.234  1.1067  0.0905 -4.6553
   10SAPS  H16Y 1323   2.564  -0.038   8.189  0.4950 -1.1844  0.0340
   10SAPS  C317 1324   2.598   0.126   8.335  1.3238 -0.3026  0.0246
   10SAPS  H17X 1325   2.503   0.182   8.320  1.2337 -0.0499  1.3886
   10SAPS  H17Y 1326   2.684   0.193   8.354  0.1899  0.9096  1.1095
   10SAPS  C318 1327   2.566   0.049   8.468  0.1647 -0.5249 -0.3615
   10SAPS  H18X 1328   2.658  -0.005   8.501 -1.2922 -1.7865  1.8883
   10SAPS  H18Y 1329   2.480  -0.020   8.455 -0.2584  0.0197 -0.4533
   10SAPS  H18Z 1330   2.538   0.116   8.553 -1.9378  0.7782 -1.9908
   11SAPS     N 1331   5.054   3.120   5.596 -0.1206  0.2363 -0.5745
   11SAPS   HN1 1332   5.123   3.043   5.604 -0.1069  0.2353 -0.7058
   11SAPS   HN2 1333   5.044   3.153   5.498  0.3316  0.8430 -0.4261
   11SAPS   HN3 1334   5.075   3.200   5.660 -1.7259 -0.2551  0.6287
   11SAPS   C12 1335   4.926   3.071   5.647  0.5688 -0.5855 -0.5976
   11SAPS  H12A 1336   4.855   3.145   5.614  2.2375  2.3523  1.9071
   11SAPS   C13 1337   4.896   2.924   5.603  0.2687  0.3989  0.0400
   11SAPS  O13A 1338   4.968   2.873   5.511 -0.3545  0.0969  0.1943
   11SAPS  O13B 1339   4.796   2.862   5.649 -0.5077 -0.8836  0.2939
   11SAPS   C11 1340   4.936   3.079   5.799 -0.1228 -0.0873 -1.6709
   11SAPS  H11A 1341   5.025   3.016   5.824  1.1726  0.8688 -3.6426
   11SAPS  H11B 1342   4.848   3.033   5.848  1.0966  3.3672  4.8859
   11SAPS     P 1343   4.862   3.316   5.916  0.0446  0.0027  0.0249
   11SAPS   O13 1344   4.936   3.435   5.968  0.3244  0.3973  0.0894
   11SAPS   O14 1345   4.742   3.344   5.836 -0.0768  0.2558  0.8911
   11SAPS   O12 1346   4.964   3.215   5.849 -0.1934  0.2727  0.2380
   11SAPS   O11 1347   4.814   3.237   6.042  0.0542  0.5969 -0.2539
   11SAPS    C1 1348   4.732   3.297   6.138  0.6339  0.4090 -0.6470
   11SAPS    HA 1349   4.773   3.395   6.170  1.4636 -0.1733  0.1274
   11SAPS    HB 1350   4.639   3.316   6.079  0.4699  0.4953 -0.3598
   11SAPS    C2 1351   4.695   3.200   6.257 -0.2507 -0.5121  0.3030
   11SAPS    HS 1352   4.780   3.201   6.329  0.9341 -1.1150 -1.0417
   11SAPS   O21 1353   4.668   3.071   6.208 -0.2583 -0.7237  0.5031
   11SAPS   C21 1354   4.781   2.995   6.224 -0.3984 -0.3626 -0.0388
   11SAPS   O22 1355   4.895   3.027   6.261  0.5516  0.1661  0.4407
   11SAPS   C22 1356   4.728   2.853   6.233 -0.0917 -0.1644 -0.2988
   11SAPS   H2R 1357   4.642   2.846   6.303  0.6215 -0.8716  0.5304
   11SAPS   H2S 1358   4.676   2.842   6.135 -0.0879  3.2954 -0.8198
   11SAPS    C3 1359   4.573   3.251   6.334 -0.0877 -0.1426 -0.2022
   11SAPS    HX 1360   4.482   3.246   6.269  1.1139  1.1571 -2.0860
   11SAPS    HY 1361   4.596   3.355   6.364  0.8904  0.0405 -1.4788
   11SAPS   O31 1362   4.550   3.179   6.458 -0.1326  0.1919 -0.3772
   11SAPS   C31 1363   4.483   3.067   6.458 -0.1560 -0.1364 -0.1887
   11SAPS   O32 1364   4.442   3.008   6.362 -0.4914 -0.1399 -0.0087
   11SAPS   C32 1365   4.464   3.021   6.598  0.3782  0.0537 -0.6767
   11SAPS   H2X 1366   4.360   3.039   6.633  0.6375 -1.6069  1.1086
   11SAPS   H2Y 1367   4.536   3.076   6.662 -0.7929  0.1786  0.5548
   11SAPS   C23 1368   4.829   2.733   6.269 -0.0902  0.4313  0.5807
   11SAPS   H3R 1369   4.916   2.740   6.201 -0.5108 -1.0872 -0.1598
   11SAPS   H3S 1370   4.776   2.640   6.240  1.0281 -0.9289  2.6432
   11SAPS   C24 1371   4.868   2.722   6.415 -0.1166  0.4988  0.0193
   11SAPS   H4R 1372   4.775   2.698   6.472 -0.3021 -0.5295 -0.6782
   11SAPS   H4S 1373   4.900   2.823   6.448 -0.6694  0.7182 -0.1047
   11SAPS   C25 1374   4.974   2.621   6.432 -0.3833 -0.2264  0.2320
   11SAPS   H5R 1375   5.067   2.650   6.380 -1.6278  0.6709 -1.6024
   11SAPS   C26 1376   4.961   2.504   6.491 -0.1736 -0.2460  0.8118
   11SAPS   H6R 1377   5.053   2.445   6.478  0.3796  0.9975 -1.3619
   11SAPS   C27 1378   4.831   2.450   6.545 -0.2749  0.9635  0.3954
   11SAPS   H7R 1379   4.738   2.463   6.485  0.7039 -0.4847 -1.5508
   11SAPS   H7S 1380   4.805   2.500   6.641  1.9861 -0.3129  1.7666
   11SAPS   C28 1381   4.847   2.302   6.580  0.5821  0.1432 -0.2392
   11SAPS   H8R 1382   4.807   2.243   6.496 -3.3451  1.4773  0.4488
   11SAPS   C29 1383   4.901   2.250   6.696  0.5676 -0.3914 -0.5080
   11SAPS   H9R 1384   4.905   2.142   6.718 -1.4522 -0.2778  0.7162
   11SAPS  C210 1385   4.959   2.329   6.805 -0.1069 -0.0894 -0.5140
   11SAPS  H10R 1386   5.001   2.422   6.762  0.1523 -0.3353 -0.7995
   11SAPS  H10S 1387   5.041   2.276   6.858  0.6698  0.0848 -1.5029
   11SAPS  C211 1388   4.851   2.382   6.899 -0.6972  0.1604  0.0946
   11SAPS  H11R 1389   4.748   2.384   6.861 -0.5641 -2.7751 -0.6834
   11SAPS  C212 1390   4.862   2.418   7.025 -0.0147 -0.0555 -0.4454
   11SAPS  H12R 1391   4.767   2.453   7.070 -0.8817 -1.4717 -1.0954
   11SAPS  C213 1392   4.988   2.424   7.103 -0.1839  0.1238 -0.6268
   11SAPS  H13R 1393   5.024   2.526   7.131  3.1736 -1.3733  1.0927
   11SAPS  H13S 1394   5.075   2.389   7.045  0.5983  2.6735 -1.1351
   11SAPS  C214 1395   4.968   2.350   7.234  0.0376  0.3971  0.5993
   11SAPS  H14R 1396   4.926   2.249   7.225 -0.6210  0.7805 -1.0611
   11SAPS  C215 1397   5.006   2.398   7.355 -0.2885  0.0976 -0.7006
   11SAPS  H15R 1398   4.994   2.329   7.440 -0.8459 -1.3864 -1.9384
   11SAPS  C216 1399   5.073   2.532   7.385 -0.3911  0.0694 -0.2123
   11SAPS  H16R 1400   5.024   2.590   7.467 -0.4253 -0.6063  0.2577
   11SAPS  H16S 1401   5.074   2.606   7.302 -0.3269  1.1873  0.7405
   11SAPS  C217 1402   5.219   2.516   7.429  0.0145  0.0303  0.1340
   11SAPS  H17R 1403   5.216   2.463   7.527  1.7154 -0.5318 -0.0744
   11SAPS  H17S 1404   5.273   2.612   7.443 -0.2856  0.3537 -0.8746
   11SAPS  C218 1405   5.305   2.450   7.321 -0.0086 -0.3018 -0.0461
   11SAPS  H18R 1406   5.260   2.363   7.268 -0.9492 -0.0967  0.3915
   11SAPS  H18S 1407   5.402   2.412   7.359  0.8865 -0.0171 -1.9558
   11SAPS  C219 1408   5.359   2.537   7.205 -0.5439 -0.9632  0.1027
   11SAPS  H19R 1409   5.445   2.604   7.229 -1.2383 -0.1623  0.4243
   11SAPS  H19S 1410   5.277   2.609   7.181 -1.0096 -1.0004  1.4916
   11SAPS  C220 1411   5.405   2.454   7.084  0.2916  0.6923 -0.0484
   11SAPS  H20R 1412   5.454   2.528   7.018 -1.8474  2.3076  0.0502
   11SAPS  H20S 1413   5.310   2.407   7.048 -1.1516  2.5262  1.1929
   11SAPS  H20T 1414   5.467   2.367   7.114 -0.3591  0.7829  1.6554
   11SAPS   C33 1415   4.497   2.872   6.607 -0.2249  0.6907  0.1781
   11SAPS   H3X 1416   4.600   2.846   6.574 -0.1931  0.7095  0.2628
   11SAPS   H3Y 1417   4.418   2.831   6.541 -0.5884  0.6712  0.6234
   11SAPS   C34 1418   4.458   2.814   6.742  0.2894  0.2437  0.4311
   11SAPS   H4X 1419   4.357   2.852   6.767  0.7929  3.5930 -1.9422
   11SAPS   H4Y 1420   4.524   2.854   6.822 -1.6779  0.1185  2.1794
   11SAPS   C35 1421   4.458   2.661   6.743 -0.7309  0.0200  0.4063
   11SAPS   H5X 1422   4.564   2.640   6.719 -0.4921  3.2583 -2.2100
   11SAPS   H5Y 1423   4.402   2.616   6.658  0.6967  0.4493 -0.8090
   11SAPS   C36 1424   4.409   2.597   6.880 -0.1357 -0.2829 -0.1795
   11SAPS   H6X 1425   4.431   2.488   6.880 -0.0540 -0.3062  1.7448
   11SAPS   H6Y 1426   4.299   2.607   6.889 -0.2327  0.6447 -1.9705
   11SAPS   C37 1427   4.480   2.657   6.998  0.1905  0.7372 -0.3159
   11SAPS   H7X 1428   4.465   2.766   7.014 -0.1910  0.4576  1.3523
   11SAPS   H7Y 1429   4.590   2.647   6.987  0.2100 -1.0833  1.1600
   11SAPS   C38 1430   4.433   2.589   7.127  0.1124  0.0642  0.0317
   11SAPS   H8X 1431   4.445   2.480   7.108 -0.0860  0.2578 -1.2875
   11SAPS   H8Y 1432   4.327   2.587   7.157  0.0850  0.8278  0.0124
   11SAPS   C39 1433   4.512   2.623   7.254 -0.0537 -0.1380 -1.7420
   11SAPS   H9X 1434   4.533   2.732   7.260  2.4619 -0.6568  2.1671
   11SAPS   H9Y 1435   4.611   2.574   7.254  0.5497  1.0515 -2.7136
   11SAPS  C310 1436   4.441   2.579   7.391 -0.0244 -0.5133  0.6480
   11SAPS  H10X 1437   4.422   2.469   7.389 -0.0771 -0.4997  0.1962
   11SAPS  H10Y 1438   4.341   2.627   7.395 -0.0558 -0.4386 -0.5355
   11SAPS  C311 1439   4.519   2.586   7.527 -0.3611 -0.2306  0.6527
   11SAPS  H11X 1440   4.532   2.694   7.554 -0.0619  0.0739 -0.6637
   11SAPS  H11Y 1441   4.616   2.535   7.512 -0.5562 -0.8493  1.4190
   11SAPS  C312 1442   4.456   2.508   7.645 -0.1092 -0.3011  0.1222
   11SAPS  H12X 1443   4.467   2.400   7.622 -2.0607 -0.4836 -0.1551
   11SAPS  H12Y 1444   4.347   2.529   7.642 -0.3254 -1.2664  0.9397
   11SAPS  C313 1445   4.516   2.556   7.779  0.3126  0.0904  0.0623
   11SAPS  H13X 1446   4.472   2.656   7.798  0.4232  0.8376 -3.0876
   11SAPS  H13Y 1447   4.626   2.557   7.771  0.4347 -0.7207  1.3344
   11SAPS  C314 1448   4.487   2.446   7.882  0.1455  0.1952 -0.1506
   11SAPS  H14X 1449   4.526   2.353   7.836 -0.0442 -1.7674  3.2662
   11SAPS  H14Y 1450   4.377   2.438   7.894  0.2399 -0.6508  0.2255
   11SAPS  C315 1451   4.549   2.480   8.017  0.1534  1.7513 -0.5107
   11SAPS  H15X 1452   4.508   2.580   8.044  1.1211  1.9663  0.2087
   11SAPS  H15Y 1453   4.658   2.486   7.997  0.2160 -0.2969 -0.9944
   11SAPS  C316 1454   4.545   2.368   8.118  0.2144  0.0470  0.8591
   11SAPS  H16X 1455   4.606   2.287   8.072 -0.7883 -0.8029  1.0001
   11SAPS  H16Y 1456   4.441   2.329   8.127 -0.4370  0.9624 -1.9365
   11SAPS  C317 1457   4.584   2.405   8.263 -0.2268  0.3935 -0.1915
   11SAPS  H17X 1458   4.513   2.476   8.310 -0.8388 -1.1037  1.2504
   11SAPS  H17Y 1459   4.683   2.456   8.262  1.0729 -1.9803 -0.3412
   11SAPS  C318 1460   4.587   2.290   8.364 -0.1213 -0.4784 -0.0886
   11SAPS  H18X 1461   4.655   2.205   8.340 -1.0275 -0.7873 -1.6845
   11SAPS  H18Y 1462   4.484   2.249   8.374 -0.4335  0.6659  2.1547
   11SAPS  H18Z 1463   4.619   2.318   8.467 -3.0260 -2.5129  1.5148
   12SAPS     N 1464   5.768   3.460   5.948  0.3711  0.2330 -0.3053
   12SAPS   HN1 1465   5.795   3.555   5.981 -0.2460  0.7344 -1.1947
   12SAPS   HN2 1466   5.860   3.412   5.939  0.1538 -0.3075  0.2437
   12SAPS   HN3 1467   5.739   3.467   5.848 -0.0468  0.7519 -0.1502
   12SAPS   C12 1468   5.683   3.387   6.042  0.2339  0.1404  0.5637
   12SAPS  H12A 1469   5.595   3.450   6.049  0.4219  0.2873  1.9836
   12SAPS   C13 1470   5.644   3.235   6.009  0.0418  0.4064  0.4206
   12SAPS  O13A 1471   5.687   3.187   5.907 -0.4500  0.0821  0.1043
   12SAPS  O13B 1472   5.561   3.178   6.085 -0.2444 -0.2743  0.1855
   12SAPS   C11 1473   5.742   3.383   6.186  0.0734 -0.3007  0.2431
   12SAPS  H11A 1474   5.828   3.312   6.186  1.1465  0.9779  0.1831
   12SAPS  H11B 1475   5.666   3.327   6.245 -1.4366 -0.3197 -1.6383
   12SAPS     P 1476   5.683   3.587   6.339  0.6910  0.0895 -0.1898
   12SAPS   O13 1477   5.740   3.719   6.379  0.0545 -0.4564 -0.3135
   12SAPS   O14 1478   5.550   3.606   6.266  0.2555  0.2941 -0.1360
   12SAPS   O12 1479   5.782   3.507   6.247 -0.0296  0.3060  0.4846
   12SAPS   O11 1480   5.668   3.494   6.468 -0.6392 -0.0225 -0.1651
   12SAPS    C1 1481   5.552   3.499   6.551 -0.1478 -0.3083 -1.4517
   12SAPS    HA 1482   5.469   3.549   6.497  0.9934  0.7128 -2.3416
   12SAPS    HB 1483   5.512   3.402   6.586  0.9034  0.3526  1.8953
   12SAPS    C2 1484   5.562   3.592   6.680  0.1004 -0.2587 -0.8162
   12SAPS    HS 1485   5.627   3.675   6.644  1.9067 -0.7923  1.0245
   12SAPS   O21 1486   5.624   3.517   6.785 -0.5501  0.0072  0.1515
   12SAPS   C21 1487   5.667   3.598   6.875  0.5669 -0.4960 -0.6909
   12SAPS   O22 1488   5.673   3.720   6.863  0.2878 -0.2395 -0.2144
   12SAPS   C22 1489   5.714   3.528   7.003 -0.2295 -0.1656 -0.1103
   12SAPS   H2R 1490   5.796   3.456   6.981  1.8387  1.0388  3.0663
   12SAPS   H2S 1491   5.750   3.611   7.067  2.1934 -0.7477 -0.6172
   12SAPS    C3 1492   5.428   3.647   6.726  0.4942 -0.7583  0.2412
   12SAPS    HX 1493   5.374   3.691   6.640  0.0445 -1.1314  0.3239
   12SAPS    HY 1494   5.442   3.729   6.799  2.0942  2.1140 -3.0165
   12SAPS   O31 1495   5.338   3.536   6.762 -0.4081  1.0251  0.3384
   12SAPS   C31 1496   5.293   3.535   6.887  0.2438  0.0269 -0.0044
   12SAPS   O32 1497   5.313   3.624   6.967 -0.0823 -0.4738 -0.5487
   12SAPS   C32 1498   5.224   3.400   6.919  0.0440  0.6043 -0.2949
   12SAPS   H2X 1499   5.310   3.331   6.932 -0.0837  0.5699  0.4134
   12SAPS   H2Y 1500   5.165   3.368   6.831  1.1376 -0.4640 -0.6646
   12SAPS   C23 1501   5.597   3.458   7.079 -0.6616 -0.9916  0.4812
   12SAPS   H3R 1502   5.533   3.391   7.018 -2.4715  1.0379  0.0238
   12SAPS   H3S 1503   5.524   3.538   7.104  0.3632 -0.1226  0.8272
   12SAPS   C24 1504   5.654   3.397   7.201 -0.4762 -0.5389  0.0741
   12SAPS   H4R 1505   5.706   3.484   7.246  0.1095 -0.9766  0.2549
   12SAPS   H4S 1506   5.727   3.315   7.184 -1.5011 -1.8399  1.6142
   12SAPS   C25 1507   5.542   3.330   7.271  0.5345 -0.6039  0.2721
   12SAPS   H5R 1508   5.482   3.258   7.213 -0.8840 -0.1537  1.1439
   12SAPS   C26 1509   5.506   3.348   7.399  0.0977  0.9466  0.2288
   12SAPS   H6R 1510   5.420   3.294   7.444 -1.3121  1.3049 -1.8876
   12SAPS   C27 1511   5.544   3.437   7.509  0.1374  0.3275  0.2611
   12SAPS   H7R 1512   5.642   3.488   7.498 -0.2131  0.6453 -1.5489
   12SAPS   H7S 1513   5.567   3.367   7.592 -0.3592  1.8581  1.7528
   12SAPS   C28 1514   5.434   3.531   7.547 -0.3937  0.5144 -0.2587
   12SAPS   H8R 1515   5.380   3.565   7.458  1.8698  0.4392 -1.7320
   12SAPS   C29 1516   5.400   3.562   7.672 -0.2970  0.6734 -0.3887
   12SAPS   H9R 1517   5.309   3.624   7.684  0.8444  2.8262 -2.1430
   12SAPS  C210 1518   5.466   3.511   7.793 -0.0463 -0.3484  0.0176
   12SAPS  H10R 1519   5.561   3.567   7.809 -0.4673  0.2559  0.4111
   12SAPS  H10S 1520   5.475   3.403   7.767  0.5409 -0.1858 -0.4858
   12SAPS  C211 1521   5.384   3.538   7.913  0.0517  0.0647 -0.4744
   12SAPS  H11R 1522   5.297   3.605   7.914  0.6123  0.8253  1.2209
   12SAPS  C212 1523   5.407   3.490   8.036  0.3796  1.1990 -0.2427
   12SAPS  H12R 1524   5.337   3.512   8.118 -1.5109  2.6264 -2.1522
   12SAPS  C213 1525   5.516   3.390   8.075 -0.3979 -0.1946  0.5390
   12SAPS  H13R 1526   5.569   3.370   7.980 -1.6264 -0.9279 -0.0067
   12SAPS  H13S 1527   5.477   3.289   8.100  0.3432 -0.0073  2.6456
   12SAPS  C214 1528   5.613   3.437   8.183  0.1419  0.5114  0.1567
   12SAPS  H14R 1529   5.715   3.451   8.145 -0.5893  0.6743 -1.8774
   12SAPS  C215 1530   5.589   3.434   8.318  0.0339 -0.0565 -0.4000
   12SAPS  H15R 1531   5.675   3.460   8.382  1.0950  0.1418 -1.8407
   12SAPS  C216 1532   5.459   3.406   8.389 -0.6143 -0.4507 -0.3458
   12SAPS  H16R 1533   5.468   3.319   8.457  0.0632  0.2841  0.5260
   12SAPS  H16S 1534   5.368   3.392   8.326  0.0072  0.5009 -1.4847
   12SAPS  C217 1535   5.412   3.524   8.469  0.0699 -0.6107 -0.0993
   12SAPS  H17R 1536   5.313   3.492   8.506  0.0698 -0.1989  0.2686
   12SAPS  H17S 1537   5.398   3.607   8.396 -1.8294 -0.6278  0.2169
   12SAPS  C218 1538   5.494   3.575   8.587  0.5814  0.1125  1.0401
   12SAPS  H18R 1539   5.450   3.668   8.629  0.2990  1.6526 -2.3548
   12SAPS  H18S 1540   5.602   3.577   8.562  0.3254 -1.3336 -0.3704
   12SAPS  C219 1541   5.487   3.472   8.700  0.6066 -0.6581 -0.4885
   12SAPS  H19R 1542   5.549   3.387   8.663 -0.8176 -1.6245 -0.7004
   12SAPS  H19S 1543   5.382   3.446   8.725  0.1589  1.5073  0.0437
   12SAPS  C220 1544   5.549   3.528   8.830  0.7479  0.1773 -0.3595
   12SAPS  H20R 1545   5.635   3.586   8.789  0.3218  0.1510 -1.3088
   12SAPS  H20S 1546   5.586   3.459   8.909 -0.8820  1.2753  1.4787
   12SAPS  H20T 1547   5.484   3.598   8.888 -0.0011 -1.0725  0.3433
   12SAPS   C33 1548   5.137   3.390   7.052 -0.3061  0.1411  0.0106
   12SAPS   H3X 1549   5.044   3.441   7.020  0.4221  1.5747  0.1078
   12SAPS   H3Y 1550   5.188   3.452   7.128 -1.6931  2.0260 -0.5357
   12SAPS   C34 1551   5.092   3.248   7.094  0.5299 -0.0391 -0.0730
   12SAPS   H4X 1552   5.182   3.187   7.119 -0.2859 -1.7135 -1.0206
   12SAPS   H4Y 1553   5.040   3.194   7.012 -1.1994 -0.1251  1.0389
   12SAPS   C35 1554   5.009   3.244   7.216 -0.2973  0.1153  0.1649
   12SAPS   H5X 1555   4.957   3.146   7.225  0.2241 -0.4436 -2.1394
   12SAPS   H5Y 1556   4.923   3.313   7.199 -0.0516  0.7668  1.5053
   12SAPS   C36 1557   5.090   3.283   7.332  0.0204  0.1938  0.1912
   12SAPS   H6X 1558   5.107   3.393   7.327 -0.0430  0.2663  1.3237
   12SAPS   H6Y 1559   5.195   3.247   7.332 -0.7995 -2.4675 -0.6859
   12SAPS   C37 1560   5.031   3.236   7.470 -0.9333  0.1109 -0.1826
   12SAPS   H7X 1561   5.014   3.126   7.464 -3.9902  0.3311  2.0813
   12SAPS   H7Y 1562   4.934   3.288   7.483 -0.1460  1.3310  1.1470
   12SAPS   C38 1563   5.131   3.258   7.591 -0.1191 -0.1551 -0.2587
   12SAPS   H8X 1564   5.145   3.367   7.605  0.3213  0.0876 -2.3955
   12SAPS   H8Y 1565   5.231   3.217   7.566 -1.5428 -5.4625  1.3904
   12SAPS   C39 1566   5.082   3.202   7.725 -0.3170 -0.8467 -0.8507
   12SAPS   H9X 1567   5.046   3.097   7.727 -1.0068 -0.6049 -0.3647
   12SAPS   H9Y 1568   5.004   3.272   7.761  2.8852  2.2629  0.6362
   12SAPS  C310 1569   5.194   3.204   7.834 -0.3336 -0.8057 -0.3238
   12SAPS  H10X 1570   5.223   3.311   7.842  2.3671 -1.2376 -2.5921
   12SAPS  H10Y 1571   5.274   3.142   7.787  0.9930 -2.3974  3.6526
   12SAPS  C311 1572   5.150   3.157   7.972 -0.0760  0.7507 -0.3989
   12SAPS  H11X 1573   5.234   3.185   8.040  0.5060 -1.3530 -0.1923
   12SAPS  H11Y 1574   5.145   3.047   7.977 -1.4842  0.7895 -0.6722
   12SAPS  C312 1575   5.016   3.219   8.024 -0.2417  0.8877 -0.1278
   12SAPS  H12X 1576   4.941   3.184   7.949  1.3563 -0.0674 -1.3462
   12SAPS  H12Y 1577   5.021   3.330   8.020 -0.4343  0.8645 -1.4483
   12SAPS  C313 1578   4.969   3.196   8.167 -0.2970  0.9915  1.0812
   12SAPS  H13X 1579   4.954   3.088   8.189  0.2513  0.3323 -1.4722
   12SAPS  H13Y 1580   4.871   3.248   8.179 -0.6228  1.8665 -3.6630
   12SAPS  C314 1581   5.069   3.249   8.272  0.2592 -0.4197  0.2861
   12SAPS  H14X 1582   5.083   3.359   8.263  0.4273 -0.4418  0.2809
   12SAPS  H14Y 1583   5.169   3.216   8.235  0.1653  0.3393 -0.7009
   12SAPS  C315 1584   5.070   3.210   8.420 -0.2048  0.1694  0.6194
   12SAPS  H15X 1585   4.972   3.228   8.469 -0.2194 -0.0026  0.6531
   12SAPS  H15Y 1586   5.156   3.260   8.469 -0.2940 -0.9820  2.0055
   12SAPS  C316 1587   5.089   3.061   8.446 -0.2757 -0.0062  0.5014
   12SAPS  H16X 1588   5.170   3.039   8.519 -0.2898  0.1760  0.5713
   12SAPS  H16Y 1589   5.103   3.008   8.349 -0.3205  2.9616 -1.2474
   12SAPS  C317 1590   4.956   3.008   8.511  0.5206  0.7825 -0.5319
   12SAPS  H17X 1591   4.884   3.006   8.426 -0.3077 -0.0826  0.1670
   12SAPS  H17Y 1592   4.925   3.085   8.584  2.1484  0.7675  0.2161
   12SAPS  C318 1593   4.957   2.874   8.585 -0.4571  0.2642 -0.2523
   12SAPS  H18X 1594   4.957   2.792   8.510  2.3461  1.1992 -1.4368
   12SAPS  H18Y 1595   4.865   2.873   8.647  0.4731  2.5018  1.2956
   12SAPS  H18Z 1596   5.051   2.860   8.644 -0.5892  0.8568  0.1032
   13SAPS     N 1597   6.050   0.553   6.120  0.6519 -0.0634  0.6040
   13SAPS   HN1 1598   5.985   0.605   6.183 -1.0479 -0.3131 -0.8777
   13SAPS   HN2 1599   5.997   0.477   6.073 -3.4936  0.2569  4.0689
   13SAPS   HN3 1600   6.128   0.512   6.175  2.4329  1.4570 -0.6706
   13SAPS   C12 1601   6.101   0.652   6.018  0.5449  0.1573 -0.1968
   13SAPS  H12A 1602   6.180   0.710   6.062  0.4342 -0.5858  1.0352
   13SAPS   C13 1603   6.168   0.571   5.900 -0.1534  0.2001 -0.2647
   13SAPS  O13A 1604   6.182   0.448   5.908 -0.0323  0.0520  0.2642
   13SAPS  O13B 1605   6.199   0.635   5.798  0.4253 -0.0236 -0.2960
   13SAPS   C11 1606   5.986   0.748   5.969  0.0102 -0.1528 -0.4031
   13SAPS  H11A 1607   5.918   0.689   5.904 -0.7658  1.5365 -1.1731
   13SAPS  H11B 1608   6.030   0.822   5.899  1.7466 -1.6420 -0.9865
   13SAPS     P 1609   5.960   0.930   6.154 -0.5583 -0.6150 -0.1831
   13SAPS   O13 1610   5.970   1.041   6.047 -0.0604 -0.1780  0.0251
   13SAPS   O14 1611   5.871   0.947   6.272  0.2148 -0.9156 -0.5508
   13SAPS   O12 1612   5.913   0.801   6.076  0.5524 -0.2392  0.0802
   13SAPS   O11 1613   6.100   0.878   6.205 -0.7981  0.0662 -0.5388
   13SAPS    C1 1614   6.221   0.957   6.188 -0.4611 -0.2025  0.7145
   13SAPS    HA 1615   6.301   0.896   6.139 -0.2351  0.1247  0.6775
   13SAPS    HB 1616   6.198   1.044   6.123 -0.1930  0.4137  1.4434
   13SAPS    C2 1617   6.279   1.014   6.315  0.3987 -0.1573 -0.3089
   13SAPS    HS 1618   6.306   0.934   6.386 -0.1843  0.2670  0.4055
   13SAPS   O21 1619   6.187   1.097   6.380  0.0062  0.1409  0.2992
   13SAPS   C21 1620   6.127   1.045   6.489  0.0247 -0.4212 -1.1392
   13SAPS   O22 1621   6.165   0.951   6.555  0.5276 -0.2007  0.0977
   13SAPS   C22 1622   6.015   1.134   6.530  0.4256  0.1658  0.2709
   13SAPS   H2R 1623   6.053   1.237   6.514  0.6883  0.2034  1.0739
   13SAPS   H2S 1624   5.936   1.131   6.452  0.8946 -0.4912 -0.1929
   13SAPS    C3 1625   6.416   1.089   6.286  0.8926  0.0384 -0.7817
   13SAPS    HX 1626   6.395   1.175   6.219 -0.8184  0.8669  0.7349
   13SAPS    HY 1627   6.487   1.020   6.235  0.2280 -1.3909  0.1467
   13SAPS   O31 1628   6.463   1.143   6.413 -0.0178 -0.4910  0.4013
   13SAPS   C31 1629   6.449   1.274   6.440  0.3412 -0.1988  0.2102
   13SAPS   O32 1630   6.395   1.354   6.363 -0.5851 -0.1595  0.2527
   13SAPS   C32 1631   6.521   1.304   6.572 -0.8582  0.3383  0.1095
   13SAPS   H2X 1632   6.555   1.410   6.568 -1.6492  0.5628 -0.8702
   13SAPS   H2Y 1633   6.605   1.232   6.588 -0.5901  1.0178  2.1314
   13SAPS   C23 1634   5.964   1.121   6.671 -0.3377 -0.0017  0.6180
   13SAPS   H3R 1635   6.041   1.080   6.740  0.0043 -0.5388 -0.0724
   13SAPS   H3S 1636   5.880   1.049   6.679  0.0728 -0.3705  1.6846
   13SAPS   C24 1637   5.910   1.252   6.735 -0.0625 -0.2395  0.2022
   13SAPS   H4R 1638   5.868   1.234   6.836  1.1381  0.2150  0.8001
   13SAPS   H4S 1639   5.829   1.281   6.665 -1.4268 -3.1908  0.4120
   13SAPS   C25 1640   6.015   1.358   6.759  0.0257  0.0652 -0.5494
   13SAPS   H5R 1641   6.037   1.404   6.662  0.1818 -0.3664 -0.7240
   13SAPS   C26 1642   6.091   1.386   6.872  0.1188 -0.3815  0.4092
   13SAPS   H6R 1643   6.173   1.459   6.876 -0.6583  0.4590  1.7161
   13SAPS   C27 1644   6.079   1.316   7.004 -0.2815 -0.4028  0.4079
   13SAPS   H7R 1645   6.179   1.274   7.028 -0.2732 -0.6658 -0.0731
   13SAPS   H7S 1646   6.016   1.225   7.007  0.5514 -0.9676  2.8741
   13SAPS   C28 1647   6.046   1.408   7.121 -0.3367 -0.5580  0.0274
   13SAPS   H8R 1648   5.968   1.481   7.094 -0.5148 -0.5949  0.4346
   13SAPS   C29 1649   6.090   1.392   7.253 -0.0045  0.3694  0.5471
   13SAPS   H9R 1650   6.044   1.453   7.332  0.2877  1.6147 -0.2240
   13SAPS  C210 1651   6.181   1.275   7.295 -0.5811 -0.4628  0.0245
   13SAPS  H10R 1652   6.285   1.312   7.290 -2.0143  4.2033  0.0695
   13SAPS  H10S 1653   6.164   1.191   7.224  0.8366 -0.8974  0.1768
   13SAPS  C211 1654   6.139   1.225   7.435  0.5060 -0.2803  0.9998
   13SAPS  H11R 1655   6.049   1.163   7.432 -0.4463  1.0827  0.2246
   13SAPS  C212 1656   6.187   1.271   7.550 -0.1162  0.2868  0.1774
   13SAPS  H12R 1657   6.130   1.247   7.641  1.1754  0.9039  1.1846
   13SAPS  C213 1658   6.295   1.374   7.577 -1.1627 -0.2527  0.3023
   13SAPS  H13R 1659   6.269   1.441   7.661 -1.3602 -0.8833  0.7524
   13SAPS  H13S 1660   6.308   1.441   7.489 -2.0173  0.0286  0.3875
   13SAPS  C214 1661   6.424   1.299   7.600 -1.2438 -0.4040 -0.3997
   13SAPS  H14R 1662   6.466   1.251   7.510  3.6098 -0.6973  1.6753
   13SAPS  C215 1663   6.505   1.307   7.710 -0.0355  0.2057 -0.4111
   13SAPS  H15R 1664   6.593   1.240   7.711 -0.9892 -1.0761  0.2358
   13SAPS  C216 1665   6.472   1.381   7.849 -0.2095  0.3935  0.5367
   13SAPS  H16R 1666   6.429   1.295   7.904  1.9519 -0.8637  0.4059
   13SAPS  H16S 1667   6.391   1.457   7.853  0.8992  1.7582 -1.4096
   13SAPS  C217 1668   6.607   1.433   7.911  0.4283  0.4352 -0.6034
   13SAPS  H17R 1669   6.631   1.527   7.857 -1.0405  1.0572 -0.2435
   13SAPS  H17S 1670   6.685   1.355   7.900  1.5782  1.5892 -0.7815
   13SAPS  C218 1671   6.585   1.456   8.059 -0.2645  0.1996 -0.7283
   13SAPS  H18R 1672   6.578   1.358   8.111  4.2090 -0.5059 -1.0845
   13SAPS  H18S 1673   6.483   1.502   8.057 -0.1233  0.4983 -1.2000
   13SAPS  C219 1674   6.686   1.553   8.126 -0.1283 -0.0385 -0.8533
   13SAPS  H19R 1675   6.647   1.651   8.093 -1.3517 -0.3754 -0.4563
   13SAPS  H19S 1676   6.778   1.529   8.068  1.1094  2.2387  0.0502
   13SAPS  C220 1677   6.698   1.557   8.281 -0.5407 -0.1725 -0.0165
   13SAPS  H20R 1678   6.595   1.569   8.321 -0.1413 -2.3431  1.8384
   13SAPS  H20S 1679   6.756   1.646   8.314  0.7813 -0.7452 -0.7160
   13SAPS  H20T 1680   6.753   1.470   8.321  1.8298  0.0635 -2.4859
   13SAPS   C33 1681   6.424   1.277   6.693  0.1280  0.1431  0.6580
   13SAPS   H3X 1682   6.358   1.192   6.664  1.0226  0.0668 -1.2989
   13SAPS   H3Y 1683   6.369   1.368   6.724  0.6720  1.0394 -0.8922
   13SAPS   C34 1684   6.495   1.231   6.822  0.1369 -0.4015  0.0952
   13SAPS   H4X 1685   6.571   1.151   6.807 -1.9329 -2.0638 -2.4258
   13SAPS   H4Y 1686   6.416   1.176   6.878  0.0586 -0.0719  0.3094
   13SAPS   C35 1687   6.546   1.356   6.901 -0.2396 -0.0496  0.4011
   13SAPS   H5X 1688   6.457   1.420   6.919 -0.4374  0.3823 -1.8014
   13SAPS   H5Y 1689   6.616   1.415   6.838  1.2997  1.1192  3.0138
   13SAPS   C36 1690   6.618   1.317   7.032 -0.1350 -0.6539 -0.2128
   13SAPS   H6X 1691   6.708   1.254   7.016 -0.4103 -1.5027  1.3558
   13SAPS   H6Y 1692   6.549   1.244   7.080  2.6499 -3.5473 -0.2796
   13SAPS   C37 1693   6.668   1.432   7.114 -0.0484 -0.2822 -0.6011
   13SAPS   H7X 1694   6.589   1.509   7.124  0.6740  0.2867  0.9958
   13SAPS   H7Y 1695   6.757   1.475   7.062 -0.0667 -0.8117 -1.0779
   13SAPS   C38 1696   6.716   1.403   7.260 -0.0923  0.5403  0.6884
   13SAPS   H8X 1697   6.803   1.334   7.270  0.2396  0.9696  0.8088
   13SAPS   H8Y 1698   6.633   1.348   7.309 -0.2516 -0.9010 -1.1152
   13SAPS   C39 1699   6.741   1.534   7.336  0.4339 -0.3048 -0.4374
   13SAPS   H9X 1700   6.651   1.600   7.335 -1.8407 -3.2064 -0.1848
   13SAPS   H9Y 1701   6.818   1.586   7.275 -1.6881 -0.2712 -3.3074
   13SAPS  C310 1702   6.775   1.501   7.478  0.8959  0.2795 -0.1255
   13SAPS  H10X 1703   6.727   1.412   7.523  2.4225  0.1655  1.3461
   13SAPS  H10Y 1704   6.734   1.589   7.533  0.7399  1.2139 -1.6792
   13SAPS  C311 1705   6.922   1.482   7.498 -0.1606  0.7502  0.1053
   13SAPS  H11X 1706   6.983   1.568   7.464 -2.0837  2.7198  1.3309
   13SAPS  H11Y 1707   6.952   1.395   7.436  0.7302  0.6078  0.7260
   13SAPS  C312 1708   6.957   1.477   7.646 -0.3203  0.0900  0.0773
   13SAPS  H12X 1709   7.054   1.427   7.668 -0.1966  0.8960  1.5011
   13SAPS  H12Y 1710   6.878   1.421   7.700 -0.1836  0.9294  1.1992
   13SAPS  C313 1711   6.968   1.610   7.731  0.2224  0.0704  0.4344
   13SAPS  H13X 1712   6.915   1.591   7.826  0.3613 -2.2455  0.0890
   13SAPS  H13Y 1713   6.916   1.690   7.674  1.7661  1.9481  1.5352
   13SAPS  C314 1714   7.113   1.657   7.747  0.7276 -0.2762  0.2620
   13SAPS  H14X 1715   7.149   1.670   7.643  0.5535  0.3447  0.2766
   13SAPS  H14Y 1716   7.162   1.575   7.803 -2.1837 -1.2321  1.6538
   13SAPS  C315 1717   7.120   1.789   7.824  0.0534 -0.1919 -0.6272
   13SAPS  H15X 1718   7.091   1.873   7.758 -0.9381  0.8938  1.0846
   13SAPS  H15Y 1719   7.230   1.804   7.836  0.2869 -0.9407 -1.7435
   13SAPS  C316 1720   7.054   1.780   7.958 -0.4432  0.2643  0.6737
   13SAPS  H16X 1721   7.076   1.688   8.016  1.3923  0.5190  0.4235
   13SAPS  H16Y 1722   6.943   1.790   7.956 -0.4347  0.2244 -0.6853
   13SAPS  C317 1723   7.087   1.903   8.043  0.2084 -1.1498 -1.1708
   13SAPS  H17X 1724   7.016   1.981   8.007 -1.5054 -1.7080  0.8147
   13SAPS  H17Y 1725   7.189   1.939   8.018  0.3530  1.6059  2.6316
   13SAPS  C318 1726   7.065   1.886   8.191 -0.1301 -0.2282 -0.2189
   13SAPS  H18X 1727   6.955   1.900   8.201  0.0085  0.5412  0.2948
   13SAPS  H18Y 1728   7.123   1.963   8.246 -0.7525 -0.5194  0.8739
   13SAPS  H18Z 1729   7.099   1.788   8.229  0.9939  0.9734  2.1033
   14SAPS     N 1730   5.204   3.461   5.923 -0.4382 -0.1058  0.2541
   14SAPS   HN1 1731   5.104   3.437   5.915 -0.1629 -1.2003 -0.1677
   14SAPS   HN2 1732   5.259   3.373   5.910 -0.7085 -0.5256  1.7214
   14SAPS   HN3 1733   5.231   3.495   6.018 -3.0458 -0.6063  1.2495
   14SAPS   C12 1734   5.228   3.552   5.812 -0.3604  0.0206  0.0201
   14SAPS  H12A 1735   5.333   3.560   5.789  0.0888 -1.6969  1.2916
   14SAPS   C13 1736   5.157   3.505   5.675  0.2559 -0.6329 -0.5401
   14SAPS  O13A 1737   5.100   3.392   5.682  0.4647  0.3861  0.0815
   14SAPS  O13B 1738   5.188   3.562   5.567 -0.1667  0.7758  0.1124
   14SAPS   C11 1739   5.166   3.691   5.846 -0.0372  0.2557 -0.2920
   14SAPS  H11A 1740   5.059   3.686   5.874 -0.2177 -0.0605 -1.0144
   14SAPS  H11B 1741   5.165   3.764   5.763 -1.1233  0.4255 -0.1413
   14SAPS     P 1742   5.197   3.880   6.021 -0.4219  0.0525 -0.0321
   14SAPS   O13 1743   5.304   3.967   5.984  0.2294  0.0590  0.0633
   14SAPS   O14 1744   5.062   3.922   5.993  0.1272  0.1336  0.2846
   14SAPS   O12 1745   5.237   3.736   5.958  0.2339  0.0484 -0.3360
   14SAPS   O11 1746   5.218   3.854   6.175 -0.6218  0.2138  0.2664
   14SAPS    C1 1747   5.171   3.729   6.226 -0.2785 -0.3792 -0.3380
   14SAPS    HA 1748   5.199   3.645   6.160 -1.3341 -1.3032  0.3568
   14SAPS    HB 1749   5.230   3.717   6.319 -0.9754  2.4708  0.5899
   14SAPS    C2 1750   5.022   3.743   6.241  0.5674 -0.4831  0.0106
   14SAPS    HS 1751   4.986   3.772   6.140  2.6905  0.4744 -0.5168
   14SAPS   O21 1752   4.983   3.840   6.335 -0.3616 -0.1947  0.1621
   14SAPS   C21 1753   4.870   3.854   6.394 -0.5835 -0.3929  0.0621
   14SAPS   O22 1754   4.768   3.790   6.369  0.4985 -0.8578 -0.4343
   14SAPS   C22 1755   4.876   3.963   6.494 -0.1986 -0.5514 -0.1328
   14SAPS   H2R 1756   4.976   3.969   6.543 -0.7803  0.6947  0.9797
   14SAPS   H2S 1757   4.856   4.064   6.452  4.9248  0.8090  0.0521
   14SAPS    C3 1758   4.968   3.601   6.263 -0.5889  0.2816 -0.1007
   14SAPS    HX 1759   5.020   3.529   6.196  0.1294  1.4555 -0.8371
   14SAPS    HY 1760   4.859   3.603   6.241 -1.3427 -0.3728  3.0193
   14SAPS   O31 1761   4.999   3.557   6.397  0.6459 -0.1519 -0.2665
   14SAPS   C31 1762   4.898   3.511   6.467  0.3441  0.4391  0.0908
   14SAPS   O32 1763   4.782   3.495   6.434 -0.0979  0.5889  0.1685
   14SAPS   C32 1764   4.959   3.480   6.603  0.3581 -0.3126  0.3237
   14SAPS   H2X 1765   4.981   3.577   6.653  3.0499 -0.9910  0.6077
   14SAPS   H2Y 1766   5.057   3.429   6.595  0.1102 -0.7958  0.3720
   14SAPS   C23 1767   4.787   3.934   6.614  0.5899  0.6746 -0.3396
   14SAPS   H3R 1768   4.693   3.903   6.566  1.4116 -0.2462 -1.4038
   14SAPS   H3S 1769   4.777   4.028   6.672  0.5513  1.3004 -1.3361
   14SAPS   C24 1770   4.826   3.821   6.701 -0.3432 -0.0161  0.0186
   14SAPS   H4R 1771   4.818   3.726   6.644 -1.7755 -0.0930  0.3196
   14SAPS   H4S 1772   4.740   3.806   6.771  0.4081  0.4170  1.0700
   14SAPS   C25 1773   4.962   3.832   6.761 -0.2123  0.2113  0.5430
   14SAPS   H5R 1774   5.034   3.888   6.699 -0.2898 -0.7772 -0.4845
   14SAPS   C26 1775   4.993   3.779   6.880 -0.1472 -0.0964 -0.2285
   14SAPS   H6R 1776   5.100   3.778   6.905 -0.2868  1.3008  0.5094
   14SAPS   C27 1777   4.898   3.700   6.970  0.0463  0.3875 -0.4639
   14SAPS   H7R 1778   4.948   3.628   7.038  0.8084 -2.5296 -3.8033
   14SAPS   H7S 1779   4.835   3.629   6.912 -2.2204  1.0415  1.0390
   14SAPS   C28 1780   4.808   3.786   7.058 -0.4730 -0.0471  1.0793
   14SAPS   H8R 1781   4.782   3.876   7.001  2.7918 -0.5563 -1.5127
   14SAPS   C29 1782   4.788   3.769   7.189  0.4932  0.7960  0.0903
   14SAPS   H9R 1783   4.729   3.847   7.239 -0.2113 -1.4623  3.0371
   14SAPS  C210 1784   4.834   3.655   7.277  0.8230  0.1702 -0.0597
   14SAPS  H10R 1785   4.838   3.564   7.214  1.0382  0.2276 -0.1254
   14SAPS  H10S 1786   4.761   3.633   7.358 -0.5227 -1.3489 -1.5911
   14SAPS  C211 1787   4.974   3.683   7.323  0.3395  0.1887 -0.2401
   14SAPS  H11R 1788   5.044   3.711   7.243  0.9275 -2.6050 -0.8022
   14SAPS  C212 1789   5.025   3.668   7.441  0.5807 -0.2360  0.0386
   14SAPS  H12R 1790   5.132   3.693   7.450  0.0456  1.3604  2.8644
   14SAPS  C213 1791   4.964   3.626   7.572  0.0143  0.4659 -0.5243
   14SAPS  H13R 1792   5.038   3.575   7.637  1.7182  1.5310 -1.5232
   14SAPS  H13S 1793   4.885   3.551   7.550  0.4613 -0.1678 -0.0050
   14SAPS  C214 1794   4.885   3.728   7.655 -0.5060 -0.5213  0.4307
   14SAPS  H14R 1795   4.792   3.751   7.601  0.1825  0.3115 -0.4361
   14SAPS  C215 1796   4.912   3.777   7.775 -0.5524 -0.6688 -0.0440
   14SAPS  H15R 1797   4.840   3.855   7.804  0.4774 -0.2817  1.6408
   14SAPS  C216 1798   5.035   3.749   7.853 -0.3501 -0.0921  0.2794
   14SAPS  H16R 1799   5.064   3.845   7.900 -0.3948 -0.5072  1.1783
   14SAPS  H16S 1800   5.119   3.721   7.786 -0.3655 -0.4048  0.3904
   14SAPS  C217 1801   5.023   3.655   7.973 -1.1198 -0.0129  0.6070
   14SAPS  H17R 1802   5.119   3.646   8.029 -0.6582  0.2122 -0.1351
   14SAPS  H17S 1803   5.001   3.553   7.936  3.8985 -0.8885 -0.7411
   14SAPS  C218 1804   4.926   3.717   8.078  0.8499  0.4741 -0.5329
   14SAPS  H18R 1805   4.820   3.715   8.045 -0.6756 -0.5907  3.7519
   14SAPS  H18S 1806   4.952   3.824   8.093 -0.5137  0.7287  0.1260
   14SAPS  C219 1807   4.932   3.638   8.209  0.6907  0.7128 -0.1748
   14SAPS  H19R 1808   4.989   3.544   8.192  0.6162  0.7334 -0.5309
   14SAPS  H19S 1809   4.833   3.600   8.242  1.1703  1.4867  2.3995
   14SAPS  C220 1810   4.997   3.721   8.327 -0.2456  0.2255  0.1326
   14SAPS  H20R 1811   4.982   3.671   8.425 -2.2886 -1.1904 -0.8388
   14SAPS  H20S 1812   4.940   3.816   8.335  0.3897  0.7420 -1.1179
   14SAPS  H20T 1813   5.105   3.741   8.309  0.1541 -0.0216  2.0258
   14SAPS   C33 1814   4.871   3.397   6.700  0.3401 -0.5198  0.2605
   14SAPS   H3X 1815   4.766   3.420   6.671  1.0322  3.0426  0.1038
   14SAPS   H3Y 1816   4.905   3.405   6.806  1.3199 -1.6970  0.0536
   14SAPS   C34 1817   4.887   3.243   6.680  0.8864  0.2857 -0.5477
   14SAPS   H4X 1818   4.993   3.218   6.704  0.5595 -1.4122 -0.7104
   14SAPS   H4Y 1819   4.863   3.212   6.576 -0.7894  0.7718 -0.3282
   14SAPS   C35 1820   4.801   3.164   6.776  0.5189 -0.7016 -0.1996
   14SAPS   H5X 1821   4.694   3.174   6.750  0.6941  1.9390 -0.2015
   14SAPS   H5Y 1822   4.816   3.189   6.884  0.8532  0.4522 -0.5003
   14SAPS   C36 1823   4.836   3.014   6.774 -0.2771 -0.5537  1.2152
   14SAPS   H6X 1824   4.944   2.988   6.776  0.3567  1.1862 -2.0731
   14SAPS   H6Y 1825   4.794   2.972   6.679 -0.1580 -2.4417  1.9569
   14SAPS   C37 1826   4.757   2.946   6.888  0.2211  0.0903 -0.2802
   14SAPS   H7X 1827   4.745   2.842   6.850  0.7833  0.0440 -0.3355
   14SAPS   H7Y 1828   4.654   2.989   6.883  0.3115  0.1747 -2.9796
   14SAPS   C38 1829   4.834   2.940   7.017 -0.0208  0.4132  0.0493
   14SAPS   H8X 1830   4.842   3.044   7.054 -1.9656  1.1503 -1.4153
   14SAPS   H8Y 1831   4.935   2.900   6.992  0.5698  1.9283 -0.0946
   14SAPS   C39 1832   4.776   2.856   7.131  0.0204  0.3664  0.1828
   14SAPS   H9X 1833   4.760   2.749   7.105 -4.6037  0.6761  0.9768
   14SAPS   H9Y 1834   4.672   2.880   7.163  0.1104  0.4528  0.4113
   14SAPS  C310 1835   4.860   2.863   7.256  0.0437 -0.0852 -0.2538
   14SAPS  H10X 1836   4.869   2.970   7.286  0.4467 -0.1196 -0.2484
   14SAPS  H10Y 1837   4.966   2.830   7.248  0.2217  0.8239 -2.4414
   14SAPS  C311 1838   4.794   2.795   7.377 -0.4280 -0.5815  1.3447
   14SAPS  H11X 1839   4.786   2.686   7.358 -0.6509 -0.5136  1.0407
   14SAPS  H11Y 1840   4.690   2.829   7.392 -0.2857  1.7998 -1.8970
   14SAPS  C312 1841   4.875   2.827   7.503 -0.9762 -0.4148 -0.1330
   14SAPS  H12X 1842   4.880   2.938   7.512 -1.7830  0.1530 -4.3910
   14SAPS  H12Y 1843   4.977   2.784   7.494 -1.0455 -0.1935 -2.7709
   14SAPS  C313 1844   4.811   2.777   7.631  0.7094 -0.4343  0.3953
   14SAPS  H13X 1845   4.799   2.666   7.637 -0.6026 -0.3703 -0.6107
   14SAPS  H13Y 1846   4.718   2.832   7.655  0.7421 -0.4191  0.4873
   14SAPS  C314 1847   4.914   2.807   7.741  0.5888  0.1369  0.4043
   14SAPS  H14X 1848   4.932   2.916   7.743  0.5265  0.1876 -0.9764
   14SAPS  H14Y 1849   5.008   2.752   7.723  1.3338  0.9786  1.6275
   14SAPS  C315 1850   4.863   2.764   7.879 -0.1691 -0.0210 -0.2659
   14SAPS  H15X 1851   4.854   2.654   7.887 -2.8555  0.1469 -0.0950
   14SAPS  H15Y 1852   4.765   2.816   7.890 -0.2632  0.6614 -3.4015
   14SAPS  C316 1853   4.951   2.814   7.994  0.0548  0.8547 -0.4097
   14SAPS  H16X 1854   4.959   2.924   7.982  0.5698  0.6758 -1.9308
   14SAPS  H16Y 1855   5.046   2.756   7.992  0.3297  1.3199 -1.1867
   14SAPS  C317 1856   4.897   2.760   8.132  0.5027 -0.2450  0.1926
   14SAPS  H17X 1857   4.979   2.776   8.205  2.6528 -0.4705 -2.0259
   14SAPS  H17Y 1858   4.877   2.650   8.133 -1.4736  0.0719  1.0606
   14SAPS  C318 1859   4.767   2.830   8.173  0.6303  0.3877 -0.0162
   14SAPS  H18X 1860   4.681   2.765   8.143  1.1291 -0.8590  1.1408
   14SAPS  H18Y 1861   4.757   2.927   8.120  1.4809  1.0414  0.9973
   14SAPS  H18Z 1862   4.765   2.838   8.284 -0.0248  1.7512 -0.1096
   15SAPS     N 1863   4.653   4.689   5.899  0.4996  0.3667  0.2640
   15SAPS   HN1 1864   4.637   4.698   5.797  2.8941 -2.2192 -0.4612
   15SAPS   HN2 1865   4.594   4.763   5.943 -0.6983 -0.7817  0.6417
   15SAPS   HN3 1866   4.754   4.703   5.921  0.5649  1.0608 -0.4301
   15SAPS   C12 1867   4.596   4.547   5.917 -0.6939 -0.6486  0.1096
   15SAPS  H12A 1868   4.551   4.545   6.016  0.0138  0.0582  0.4623
   15SAPS   C13 1869   4.495   4.504   5.814  0.0930 -0.8390 -0.3496
   15SAPS  O13A 1870   4.468   4.580   5.716 -0.0727  0.4351 -0.0558
   15SAPS  O13B 1871   4.442   4.391   5.825  0.0296 -0.0542 -0.1780
   15SAPS   C11 1872   4.710   4.444   5.913  0.3690 -0.4271  1.0258
   15SAPS  H11A 1873   4.766   4.468   5.820  0.4983  1.1645  1.4801
   15SAPS  H11B 1874   4.678   4.338   5.907  0.0764 -0.2771 -0.3936
   15SAPS     P 1875   4.927   4.529   6.043 -0.7575 -0.2138  0.0086
   15SAPS   O13 1876   5.029   4.438   5.972  0.4787  0.1018 -0.2951
   15SAPS   O14 1877   4.934   4.667   5.995  0.0741 -0.7716 -0.4659
   15SAPS   O12 1878   4.780   4.464   6.033 -0.0180 -0.1574  0.0953
   15SAPS   O11 1879   4.944   4.540   6.199  0.0590  0.0212 -0.3943
   15SAPS    C1 1880   4.850   4.499   6.295 -0.3312 -0.2064  0.1763
   15SAPS    HA 1881   4.764   4.569   6.282 -0.4524 -0.0707  1.5514
   15SAPS    HB 1882   4.814   4.396   6.275  1.7197 -1.5652  2.8797
   15SAPS    C2 1883   4.884   4.510   6.440 -0.2640 -0.3245  0.0568
   15SAPS    HS 1884   4.792   4.501   6.502 -0.3882 -0.9215 -0.2038
   15SAPS   O21 1885   4.962   4.623   6.470  0.3233  0.3010  0.2191
   15SAPS   C21 1886   4.903   4.741   6.461 -0.2583 -0.5450  0.6993
   15SAPS   O22 1887   4.804   4.777   6.393 -0.0350  0.1643 -0.2316
   15SAPS   C22 1888   4.987   4.847   6.536  0.2543 -0.1705 -0.0007
   15SAPS   H2R 1889   5.095   4.824   6.532  0.2557 -0.0688 -0.7520
   15SAPS   H2S 1890   4.976   4.942   6.478 -2.6060  1.0014  2.2126
   15SAPS    C3 1891   4.968   4.389   6.472 -0.4624 -0.6350  0.3518
   15SAPS    HX 1892   5.055   4.362   6.409 -0.1681 -2.5627  1.5160
   15SAPS    HY 1893   4.895   4.307   6.455  0.2285 -1.3025  0.5699
   15SAPS   O31 1894   5.020   4.394   6.606 -0.5842  0.2570 -0.4794
   15SAPS   C31 1895   4.936   4.361   6.696  0.2280  0.2957 -0.1539
   15SAPS   O32 1896   4.815   4.341   6.670  0.0063  0.1371  0.5557
   15SAPS   C32 1897   4.998   4.323   6.826  1.1035  0.2604  0.3004
   15SAPS   H2X 1898   5.038   4.419   6.864 -1.5880  1.5517  0.1583
   15SAPS   H2Y 1899   5.075   4.245   6.805 -0.4315 -1.4380  0.6878
   15SAPS   C23 1900   4.934   4.872   6.677 -0.1551  0.1553 -0.0387
   15SAPS   H3R 1901   4.824   4.884   6.663 -0.2017  0.4898  0.5688
   15SAPS   H3S 1902   4.969   4.965   6.726  0.0330  0.0740 -0.0194
   15SAPS   C24 1903   4.947   4.752   6.769 -0.3809 -0.1903  0.2132
   15SAPS   H4R 1904   5.056   4.737   6.783 -0.6328 -2.9821 -0.2679
   15SAPS   H4S 1905   4.913   4.660   6.716  1.5946 -1.7947  1.6283
   15SAPS   C25 1906   4.877   4.774   6.899  0.2932  0.0375 -0.3289
   15SAPS   H5R 1907   4.774   4.809   6.882  0.4741  0.2126 -1.0901
   15SAPS   C26 1908   4.915   4.752   7.021 -0.1086 -0.8580  0.4429
   15SAPS   H6R 1909   4.832   4.756   7.093 -0.4551  2.9283  0.0415
   15SAPS   C27 1910   5.049   4.705   7.066 -0.1736  0.0564 -0.8146
   15SAPS   H7R 1911   5.126   4.699   6.986  1.3570 -1.0024  0.6641
   15SAPS   H7S 1912   5.024   4.599   7.090 -0.4079  0.1616 -0.5920
   15SAPS   C28 1913   5.108   4.786   7.184  0.1334  0.0808  0.6522
   15SAPS   H8R 1914   5.132   4.890   7.158 -1.8663  0.9982  2.2008
   15SAPS   C29 1915   5.114   4.752   7.309  0.4710  0.7533  0.0706
   15SAPS   H9R 1916   5.173   4.820   7.373 -0.9914  0.6093  1.6593
   15SAPS  C210 1917   5.066   4.611   7.367 -0.1871  0.4653  0.5337
   15SAPS  H10R 1918   4.979   4.574   7.308 -1.0021  0.0941  1.9195
   15SAPS  H10S 1919   5.023   4.632   7.468 -1.5703 -0.8053  0.2532
   15SAPS  C211 1920   5.171   4.498   7.381  0.6461  0.5988  0.5332
   15SAPS  H11R 1921   5.233   4.493   7.291 -1.3281 -0.2406 -0.8511
   15SAPS  C212 1922   5.180   4.410   7.478  0.4300  0.3870 -1.1084
   15SAPS  H12R 1923   5.255   4.330   7.476  0.5405  0.3037  1.8517
   15SAPS  C213 1924   5.102   4.398   7.608 -0.3368  0.3797 -0.1132
   15SAPS  H13R 1925   5.084   4.288   7.609  0.5964  0.1883  2.0551
   15SAPS  H13S 1926   5.008   4.453   7.585 -0.6881 -0.0352  0.3251
   15SAPS  C214 1927   5.169   4.463   7.724 -0.1906  0.1241 -0.2402
   15SAPS  H14R 1928   5.206   4.566   7.716  0.8752 -0.0893  1.4017
   15SAPS  C215 1929   5.190   4.406   7.841 -0.5128 -0.1163 -0.2300
   15SAPS  H15R 1930   5.221   4.478   7.918 -0.6729  0.2176 -0.4759
   15SAPS  C216 1931   5.155   4.263   7.881  0.1246  0.1956  0.0059
   15SAPS  H16R 1932   5.197   4.198   7.800 -2.0916 -0.8736 -0.3614
   15SAPS  H16S 1933   5.048   4.236   7.874  0.5623 -1.3388 -1.8461
   15SAPS  C217 1934   5.194   4.220   8.024  0.6610 -0.2547  0.1007
   15SAPS  H17R 1935   5.300   4.251   8.039  0.6978 -0.2670 -0.1320
   15SAPS  H17S 1936   5.192   4.110   8.033  0.9380 -0.5643 -2.7328
   15SAPS  C218 1937   5.121   4.286   8.134  0.0141  0.2367 -0.5706
   15SAPS  H18R 1938   5.012   4.269   8.125 -0.2574  1.2785  0.6457
   15SAPS  H18S 1939   5.134   4.396   8.130  1.1811  0.1265 -0.4209
   15SAPS  C219 1940   5.166   4.248   8.281  0.5180  0.1770 -0.3809
   15SAPS  H19R 1941   5.130   4.325   8.353 -1.3200  1.2349 -2.2997
   15SAPS  H19S 1942   5.277   4.245   8.277  0.5405  1.6596 -1.6253
   15SAPS  C220 1943   5.113   4.109   8.329  0.2735 -0.3988  0.0670
   15SAPS  H20R 1944   5.005   4.085   8.341  0.3573 -1.1929 -0.6940
   15SAPS  H20S 1945   5.155   4.111   8.432  3.7279  2.5439 -1.1840
   15SAPS  H20T 1946   5.158   4.035   8.261  1.8401 -0.2341  0.8758
   15SAPS   C33 1947   4.894   4.264   6.930 -0.1242 -0.1215  0.6351
   15SAPS   H3X 1948   4.829   4.185   6.888 -0.4816  1.4674 -1.9647
   15SAPS   H3Y 1949   4.816   4.335   6.962 -2.0587 -3.0332  2.9545
   15SAPS   C34 1950   4.975   4.199   7.046  0.0021  0.2172  0.5036
   15SAPS   H4X 1951   5.049   4.278   7.073  1.3953 -0.0057 -2.3015
   15SAPS   H4Y 1952   5.038   4.112   7.017 -0.3189  0.4325 -0.9425
   15SAPS   C35 1953   4.893   4.164   7.168  0.6789  0.1678 -0.0464
   15SAPS   H5X 1954   4.834   4.072   7.148  1.1635  0.0703 -1.0976
   15SAPS   H5Y 1955   4.824   4.248   7.193  0.5871  0.1345 -0.1842
   15SAPS   C36 1956   4.984   4.143   7.296 -0.2793 -0.1380  0.3761
   15SAPS   H6X 1957   5.033   4.241   7.315  0.7063 -0.4982 -0.1806
   15SAPS   H6Y 1958   5.060   4.074   7.254  0.5420  0.8718  0.1444
   15SAPS   C37 1959   4.917   4.098   7.419  0.6851 -0.0206 -0.3137
   15SAPS   H7X 1960   4.990   4.078   7.500  1.2103 -1.0393 -1.0170
   15SAPS   H7Y 1961   4.863   4.003   7.401  2.0024 -0.4497 -2.3480
   15SAPS   C38 1962   4.810   4.199   7.469  0.4310 -0.0072 -0.2550
   15SAPS   H8X 1963   4.732   4.210   7.391 -1.0682 -0.3373  1.1302
   15SAPS   H8Y 1964   4.856   4.299   7.483 -1.2177  0.5687  1.4796
   15SAPS   C39 1965   4.729   4.157   7.597 -0.7241 -0.7675  0.0339
   15SAPS   H9X 1966   4.671   4.066   7.571  0.5645 -0.6003 -4.0589
   15SAPS   H9Y 1967   4.653   4.237   7.612  0.6585  1.1623 -2.4045
   15SAPS  C310 1968   4.813   4.146   7.724  0.3092 -0.5184  0.6014
   15SAPS  H10X 1969   4.867   4.238   7.755  0.5076 -0.5438  0.3366
   15SAPS  H10Y 1970   4.891   4.069   7.708  1.4555  0.5649  0.8124
   15SAPS  C311 1971   4.729   4.112   7.845  0.0386  0.1961 -0.1617
   15SAPS  H11X 1972   4.673   4.020   7.818 -0.4656  0.9717 -1.9320
   15SAPS  H11Y 1973   4.660   4.199   7.854 -0.9683 -0.6603  0.6898
   15SAPS  C312 1974   4.807   4.089   7.973  0.0685 -0.1352  0.9394
   15SAPS  H12X 1975   4.861   4.180   8.007 -0.4025  1.0284 -1.2079
   15SAPS  H12Y 1976   4.882   4.017   7.933 -1.0232 -1.4691  1.1981
   15SAPS  C313 1977   4.728   4.040   8.097  0.1392  0.3135  0.2753
   15SAPS  H13X 1978   4.799   3.983   8.159  0.9705  1.4329  0.3941
   15SAPS  H13Y 1979   4.657   3.957   8.079 -0.6047 -0.0471  4.1524
   15SAPS  C314 1980   4.666   4.144   8.189 -0.3334 -1.1521 -0.2658
   15SAPS  H14X 1981   4.635   4.085   8.278 -0.9135 -1.3975 -0.6256
   15SAPS  H14Y 1982   4.587   4.199   8.135 -0.6895 -0.5228  0.8641
   15SAPS  C315 1983   4.755   4.261   8.240 -0.0817 -0.4304  1.0709
   15SAPS  H15X 1984   4.792   4.317   8.152 -2.0023  0.3736  0.7213
   15SAPS  H15Y 1985   4.831   4.220   8.310  0.2729  0.0698  0.9803
   15SAPS  C316 1986   4.671   4.361   8.317 -0.2679 -0.0983 -0.1933
   15SAPS  H16X 1987   4.624   4.302   8.399 -1.8288 -0.7374 -1.4919
   15SAPS  H16Y 1988   4.581   4.387   8.257 -0.2973  1.1028  0.3400
   15SAPS  C317 1989   4.747   4.491   8.359 -0.9559  0.2986  0.2802
   15SAPS  H17X 1990   4.779   4.545   8.267 -0.3931 -1.9620 -0.9468
   15SAPS  H17Y 1991   4.836   4.466   8.420  0.5035  0.8266 -1.5173
   15SAPS  C318 1992   4.670   4.584   8.451  0.4134 -0.9091  1.0130
   15SAPS  H18X 1993   4.662   4.552   8.557 -0.9415  0.7463  1.4521
   15SAPS  H18Y 1994   4.567   4.585   8.411  0.7188 -3.5051  0.0307
   15SAPS  H18Z 1995   4.705   4.689   8.438  0.8173 -1.3096 -1.5653
   16SAPS     N 1996   1.258   6.070   6.496  0.1957 -0.1713 -0.0192
   16SAPS   HN1 1997   1.353   6.091   6.534 -0.0049  0.1482  0.3123
   16SAPS   HN2 1998   1.198   6.082   6.580  1.6409 -0.9189  1.1729
   16SAPS   HN3 1999   1.249   5.969   6.473 -0.6927 -0.6065  2.0141
   16SAPS   C12 2000   1.219   6.152   6.385 -0.1459 -0.4672 -0.2913
   16SAPS  H12A 2001   1.262   6.250   6.400  0.5889 -1.0032  1.3192
   16SAPS   C13 2002   1.251   6.101   6.240  0.0771 -0.4850 -0.0611
   16SAPS  O13A 2003   1.325   6.002   6.215 -0.3356 -0.0755  0.1119
   16SAPS  O13B 2004   1.199   6.170   6.145  0.8596 -0.5219  0.8205
   16SAPS   C11 2005   1.067   6.184   6.390 -0.2579 -0.3722 -0.2757
   16SAPS  H11A 2006   1.020   6.085   6.405  1.1720 -0.6998  2.9180
   16SAPS  H11B 2007   1.041   6.219   6.288  2.9617  0.0285 -1.0679
   16SAPS     P 2008   0.883   6.276   6.557  0.1833  0.1482  0.0927
   16SAPS   O13 2009   0.874   6.369   6.675 -0.6297  0.2159 -0.4640
   16SAPS   O14 2010   0.783   6.304   6.452 -0.3206 -0.0191  0.2377
   16SAPS   O12 2011   1.022   6.280   6.484 -0.0528  0.1987 -0.2537
   16SAPS   O11 2012   0.846   6.125   6.602 -0.2953 -0.3418 -0.0357
   16SAPS    C1 2013   0.775   6.107   6.726 -0.8754 -0.3306 -0.4921
   16SAPS    HA 2014   0.721   6.201   6.749 -0.6303 -0.2731 -0.1418
   16SAPS    HB 2015   0.693   6.033   6.715 -1.2247 -0.1223  0.5906
   16SAPS    C2 2016   0.855   6.060   6.851  0.1970  0.1098 -0.3627
   16SAPS    HS 2017   0.937   6.131   6.875  0.6244  0.4256 -2.5478
   16SAPS   O21 2018   0.906   5.927   6.830  0.2226  0.9059 -0.2116
   16SAPS   C21 2019   1.023   5.908   6.768  0.2988  0.7798  0.1684
   16SAPS   O22 2020   1.084   5.991   6.703  0.2063 -0.3006  0.0817
   16SAPS   C22 2021   1.069   5.768   6.798 -0.7690  0.1157 -0.2479
   16SAPS   H2R 2022   0.984   5.697   6.804 -1.3505  0.8983  0.8744
   16SAPS   H2S 2023   1.138   5.744   6.714  0.0152 -0.7959  0.6240
   16SAPS    C3 2024   0.764   6.051   6.980 -0.4501  0.2605  0.3624
   16SAPS    HX 2025   0.829   6.024   7.066  0.4783  2.7286  0.5083
   16SAPS    HY 2026   0.708   5.957   6.964  2.2714 -1.5833  0.8903
   16SAPS   O31 2027   0.696   6.175   6.999 -0.6269 -0.2559  0.0010
   16SAPS   C31 2028   0.571   6.157   7.033 -0.3690  1.2462 -0.2729
   16SAPS   O32 2029   0.509   6.048   7.032 -0.7455 -0.2287 -0.4249
   16SAPS   C32 2030   0.509   6.294   7.056 -0.3457  0.6536 -0.0343
   16SAPS   H2X 2031   0.479   6.323   6.953  1.7046 -0.9372 -1.1501
   16SAPS   H2Y 2032   0.585   6.367   7.093  1.5048 -0.9767 -0.4525
   16SAPS   C23 2033   1.157   5.753   6.925 -0.2217 -0.4613 -0.2754
   16SAPS   H3R 2034   1.241   5.826   6.927  0.2743 -1.0225  0.9041
   16SAPS   H3S 2035   1.198   5.650   6.923  1.8061  0.2913 -0.0959
   16SAPS   C24 2036   1.065   5.768   7.054 -0.2750 -0.7154 -1.0766
   16SAPS   H4R 2037   0.982   5.695   7.041 -0.5280 -0.3213 -1.7435
   16SAPS   H4S 2038   1.021   5.870   7.048  3.2397  1.0970  0.6835
   16SAPS   C25 2039   1.127   5.761   7.200  0.1073 -0.4533 -0.0330
   16SAPS   H5R 2040   1.225   5.810   7.200  0.5173 -1.2382 -0.8226
   16SAPS   C26 2041   1.069   5.705   7.308  0.1228 -0.2057 -0.1948
   16SAPS   H6R 2042   1.122   5.729   7.401  0.1950 -0.7735 -0.0861
   16SAPS   C27 2043   0.931   5.647   7.320  0.4374 -0.5231  0.2851
   16SAPS   H7R 2044   0.932   5.536   7.316 -1.2383 -0.5301 -1.3438
   16SAPS   H7S 2045   0.863   5.678   7.237 -1.3526 -0.5179  1.7137
   16SAPS   C28 2046   0.856   5.707   7.434 -0.3430  0.2514 -0.1078
   16SAPS   H8R 2047   0.803   5.802   7.422  0.0788  0.4567 -0.3739
   16SAPS   C29 2048   0.848   5.643   7.553  0.4556  0.4658  0.0065
   16SAPS   H9R 2049   0.780   5.686   7.628  1.4807 -1.2647  2.0287
   16SAPS  C210 2050   0.901   5.510   7.605  0.6163  0.3498 -0.4240
   16SAPS  H10R 2051   1.000   5.533   7.652  1.3044  0.9052 -2.0868
   16SAPS  H10S 2052   0.927   5.450   7.515  1.2923 -0.4468  0.2811
   16SAPS  C211 2053   0.809   5.443   7.711  0.3365  0.5379  0.4424
   16SAPS  H11R 2054   0.742   5.375   7.657  1.7709  0.5520 -1.4555
   16SAPS  C212 2055   0.810   5.447   7.846 -0.6228 -0.0926 -0.2369
   16SAPS  H12R 2056   0.728   5.398   7.900 -0.4940 -0.2106 -0.1450
   16SAPS  C213 2057   0.911   5.524   7.928  0.3351 -0.2528  0.2140
   16SAPS  H13R 2058   0.863   5.600   7.993 -0.9146 -1.6916  1.0300
   16SAPS  H13S 2059   0.985   5.572   7.861 -2.0338  1.5748 -1.2373
   16SAPS  C214 2060   0.998   5.424   8.012  0.4147  0.2303  0.1870
   16SAPS  H14R 2061   1.061   5.362   7.947  0.3389  0.4775 -0.1293
   16SAPS  C215 2062   0.988   5.420   8.148  0.0185  0.9995  0.2268
   16SAPS  H15R 2063   1.062   5.360   8.202 -0.6137  0.4577  0.4981
   16SAPS  C216 2064   0.899   5.512   8.233 -0.5023 -0.2243  1.1078
   16SAPS  H16R 2065   0.801   5.525   8.181  0.4246  1.6894 -0.2640
   16SAPS  H16S 2066   0.946   5.612   8.234 -0.0570 -0.4357  1.4141
   16SAPS  C217 2067   0.884   5.474   8.378 -0.0600 -0.4343  0.4281
   16SAPS  H17R 2068   0.828   5.379   8.393  1.1632 -1.4552 -1.0696
   16SAPS  H17S 2069   0.826   5.559   8.418 -0.1861 -0.6794  0.7706
   16SAPS  C218 2070   1.013   5.469   8.461  0.6150  0.1790 -0.3102
   16SAPS  H18R 2071   1.080   5.557   8.449 -2.0829  2.2781 -1.1067
   16SAPS  H18S 2072   1.062   5.369   8.460  0.0051 -0.1312  0.2789
   16SAPS  C219 2073   0.971   5.484   8.608 -0.8832 -0.8559 -0.1630
   16SAPS  H19R 2074   0.897   5.415   8.653 -2.8872  1.0459 -0.3660
   16SAPS  H19S 2075   0.922   5.583   8.623  2.1441  0.4618  2.1947
   16SAPS  C220 2076   1.095   5.480   8.693  0.4966  0.0979  0.6420
   16SAPS  H20R 2077   1.079   5.521   8.795 -1.4873  0.0386  0.4058
   16SAPS  H20S 2078   1.166   5.545   8.636 -0.6442  0.5272 -0.3559
   16SAPS  H20T 2079   1.140   5.380   8.703  0.3015 -0.2013 -1.1213
   16SAPS   C33 2080   0.389   6.302   7.148  0.0195  0.3648 -0.8652
   16SAPS   H3X 2081   0.316   6.225   7.115  2.0207 -2.4063  0.7812
   16SAPS   H3Y 2082   0.347   6.404   7.137 -0.3607  0.2912 -0.1268
   16SAPS   C34 2083   0.429   6.290   7.296 -0.8410 -0.0970  0.2749
   16SAPS   H4X 2084   0.503   6.370   7.316 -1.3437  0.7170 -1.0382
   16SAPS   H4Y 2085   0.480   6.193   7.315 -0.6028 -0.6794 -2.9209
   16SAPS   C35 2086   0.317   6.309   7.402 -0.1961 -0.1475  0.5132
   16SAPS   H5X 2087   0.245   6.224   7.405  1.4227 -1.7065 -1.6500
   16SAPS   H5Y 2088   0.259   6.395   7.362 -0.2593 -0.4901 -0.1484
   16SAPS   C36 2089   0.364   6.339   7.546 -0.9070  0.5522  0.2797
   16SAPS   H6X 2090   0.430   6.429   7.537  0.4284 -0.4522 -0.3636
   16SAPS   H6Y 2091   0.432   6.261   7.588  0.8781  1.2856 -1.0961
   16SAPS   C37 2092   0.244   6.366   7.643  0.0646  0.0199 -0.1885
   16SAPS   H7X 2093   0.181   6.275   7.654 -3.6862  2.4869  0.3086
   16SAPS   H7Y 2094   0.179   6.436   7.587 -1.4780 -0.2275  1.2273
   16SAPS   C38 2095   0.290   6.412   7.784 -0.1104  0.1829 -0.0700
   16SAPS   H8X 2096   0.372   6.485   7.771  0.0875  0.6021  2.7852
   16SAPS   H8Y 2097   0.339   6.334   7.847  0.6813  1.0590  0.4297
   16SAPS   C39 2098   0.171   6.474   7.869  0.0871  0.4295 -0.3883
   16SAPS   H9X 2099   0.115   6.543   7.802 -1.9354 -0.4362  0.3224
   16SAPS   H9Y 2100   0.216   6.544   7.942 -0.5902  1.5056 -0.9775
   16SAPS  C310 2101   0.063   6.377   7.922 -0.0084 -0.1783  0.1271
   16SAPS  H10X 2102   0.117   6.301   7.982 -0.0210 -0.2554  0.0400
   16SAPS  H10Y 2103   0.010   6.324   7.840  0.2092  2.0315 -1.5353
   16SAPS  C311 2104  -0.046   6.440   8.012  0.9672  0.1535 -0.1407
   16SAPS  H11X 2105  -0.108   6.353   8.041  0.2458  0.3323 -1.0910
   16SAPS  H11Y 2106  -0.114   6.502   7.949 -0.1343 -0.7015  0.1699
   16SAPS  C312 2107   0.006   6.501   8.135 -0.4515 -1.6681 -0.5850
   16SAPS  H12X 2108   0.068   6.592   8.117  1.7756 -2.9454  0.1886
   16SAPS  H12Y 2109   0.068   6.432   8.197 -0.7350 -0.3739  1.2021
   16SAPS  C313 2110  -0.109   6.542   8.230  0.0098 -0.8378 -0.1748
   16SAPS  H13X 2111  -0.156   6.450   8.271 -1.2321 -0.2367 -0.1754
   16SAPS  H13Y 2112  -0.178   6.594   8.160  0.3095 -0.0752  0.0848
   16SAPS  C314 2113  -0.072   6.644   8.336 -0.5639 -0.3591 -0.0021
   16SAPS  H14X 2114  -0.021   6.732   8.291  1.0590 -1.8811 -1.3042
   16SAPS  H14Y 2115  -0.026   6.596   8.425 -0.1792  0.5566  0.3066
   16SAPS  C315 2116  -0.200   6.712   8.396  0.1148 -0.6975 -0.0926
   16SAPS  H15X 2117  -0.267   6.624   8.399  2.3416 -2.5125 -0.5358
   16SAPS  H15Y 2118  -0.238   6.784   8.321 -0.5233  0.6601  1.4661
   16SAPS  C316 2119  -0.183   6.780   8.534  0.3864  0.0467  0.0706
   16SAPS  H16X 2120  -0.267   6.851   8.553 -0.0099 -0.6067  0.8783
   16SAPS  H16Y 2121  -0.096   6.849   8.533  0.2003  0.3863  2.0632
   16SAPS  C317 2122  -0.172   6.680   8.647  0.4005 -0.7593 -0.6336
   16SAPS  H17X 2123  -0.100   6.599   8.625 -0.1907 -1.4614 -0.0420
   16SAPS  H17Y 2124  -0.269   6.625   8.647 -0.2482  0.2337  1.7865
   16SAPS  C318 2125  -0.145   6.745   8.784 -0.7642  0.4610 -0.9269
   16SAPS  H18X 2126  -0.147   6.667   8.863 -0.5632 -0.2808 -1.6361
   16SAPS  H18Y 2127  -0.216   6.825   8.809  0.1343  1.2865 -0.9580
   16SAPS  H18Z 2128  -0.044   6.790   8.778 -0.6443  0.4160  0.4238
   17SAPC     N 2129   3.140   6.073  10.736 -0.6429  0.2256  0.9794
   17SAPC   C12 2130   3.066   6.202  10.703  0.1672  0.0862  0.2288
   17SAPC  H12A 2131   3.141   6.279  10.716 -1.0470  1.1760  0.9053
   17SAPC  H12B 2132   2.980   6.220  10.766 -0.9409 -0.0823 -1.1931
   17SAPC   C13 2133   3.259   6.068  10.647 -0.6267 -0.2152 -0.2973
   17SAPC  H13A 2134   3.341   6.132  10.674 -0.9089  0.3935 -0.8549
   17SAPC  H13B 2135   3.291   5.965  10.656 -0.0777 -0.0301 -0.1098
   17SAPC  H13C 2136   3.229   6.075  10.543 -0.2254  0.6582 -0.3640
   17SAPC   C14 2137   3.188   6.074  10.877 -0.2766  0.6650  0.6060
   17SAPC  H14A 2138   3.211   5.975  10.914 -1.6842 -0.6141 -1.6758
   17SAPC  H14B 2139   3.270   6.142  10.892 -0.3228  0.0986  4.2737
   17SAPC  H14C 2140   3.109   6.119  10.935 -0.1916  0.3916  0.9358
   17SAPC   C15 2141   3.063   5.951  10.711  0.2397 -0.2931 -0.7364
   17SAPC  H15A 2142   2.976   5.938  10.773  0.8265  1.0180  0.4124
   17SAPC  H15B 2143   3.024   5.941  10.611 -0.7879 -1.1138 -0.2729
   17SAPC  H15C 2144   3.134   5.871  10.729  0.8399  0.2724 -0.5439
   17SAPC   C11 2145   3.016   6.224  10.554  0.0201  0.0169 -0.2297
   17SAPC  H11A 2146   3.088   6.200  10.473  0.6913  2.2316 -0.3553
   17SAPC  H11B 2147   2.978   6.327  10.536 -1.2496 -0.6716 -1.6261
   17SAPC     P 2148   2.761   6.176  10.596 -0.0390 -0.3147  0.1378
   17SAPC   O13 2149   2.697   6.059  10.657 -0.5747  0.3324  0.0876
   17SAPC   O14 2150   2.763   6.300  10.678 -0.3619 -0.1518  0.0873
   17SAPC   O12 2151   2.905   6.138  10.536  0.2244  0.4064 -0.1815
   17SAPC   O11 2152   2.674   6.207  10.472 -0.2691 -0.4100  0.1210
   17SAPC    C1 2153   2.721   6.193  10.338 -0.6064  0.3947 -0.4807
   17SAPC    HA 2154   2.783   6.102  10.326  0.6852  0.6277  3.1112
   17SAPC    HB 2155   2.633   6.171  10.274 -0.3319 -1.3254 -0.3090
   17SAPC    C2 2156   2.804   6.313  10.287 -0.4438 -0.5148 -0.4182
   17SAPC    HS 2157   2.869   6.345  10.370  2.5686  0.8842 -3.0883
   17SAPC   O21 2158   2.725   6.418  10.237  1.0816  0.2260 -0.5959
   17SAPC   C21 2159   2.785   6.534  10.220 -0.3776 -0.3232  1.1631
   17SAPC   O22 2160   2.897   6.558  10.264  0.2976 -0.0852  0.1326
   17SAPC   C22 2161   2.703   6.628  10.126  0.0751  0.5673  0.8546
   17SAPC   H2R 2162   2.778   6.699  10.084 -0.5946  0.6959 -0.1730
   17SAPC   H2S 2163   2.650   6.570  10.047  2.7019 -1.5444  0.4984
   17SAPC    C3 2164   2.897   6.260  10.174  0.1950 -0.4039 -0.4902
   17SAPC    HX 2165   2.964   6.182  10.216  0.9963  0.4453 -0.1337
   17SAPC    HY 2166   2.957   6.344  10.132 -0.3571  0.3250  0.1394
   17SAPC   O31 2167   2.818   6.199  10.061 -0.1663  0.3059 -0.5062
   17SAPC   C31 2168   2.802   6.273   9.953  0.6113  0.0175 -0.2502
   17SAPC   O32 2169   2.848   6.388   9.939  0.4208  0.3976 -0.0036
   17SAPC   C32 2170   2.721   6.200   9.846 -0.2073  0.1177  0.4522
   17SAPC   H2X 2171   2.622   6.168   9.883 -0.3287 -0.3325 -0.2469
   17SAPC   H2Y 2172   2.780   6.111   9.813  1.6434  0.9603  1.3332
   17SAPC   C23 2173   2.603   6.700  10.221 -0.0624 -0.6392  0.0800
   17SAPC   H3R 2174   2.662   6.750  10.301  0.8129 -0.4350 -0.6727
   17SAPC   H3S 2175   2.521   6.643  10.269  0.0507 -1.6022 -0.8373
   17SAPC   C24 2176   2.533   6.822  10.158  0.3304 -0.2595  0.1514
   17SAPC   H4R 2177   2.615   6.881  10.111  0.5981  1.0633  2.1750
   17SAPC   H4S 2178   2.475   6.881  10.232  0.4582 -2.3940  2.0677
   17SAPC   C25 2179   2.424   6.785  10.055 -1.0928  0.3658 -0.4686
   17SAPC   H5R 2180   2.323   6.770  10.098  0.1566  2.0368  3.4889
   17SAPC   C26 2181   2.432   6.760   9.925 -0.0984  0.3470  0.1516
   17SAPC   H6R 2182   2.342   6.722   9.874 -0.1145  0.7394 -0.1157
   17SAPC   C27 2183   2.557   6.749   9.846 -0.1114  0.6002  0.0437
   17SAPC   H7R 2184   2.589   6.645   9.825 -2.6269 -0.9366  3.0566
   17SAPC   H7S 2185   2.638   6.800   9.903 -0.6071 -1.1030  2.3951
   17SAPC   C28 2186   2.527   6.841   9.732 -0.2978  0.1811  0.6228
   17SAPC   H8R 2187   2.500   6.943   9.763  1.8406  0.8164  0.5564
   17SAPC   C29 2188   2.521   6.808   9.600  0.3073 -0.0838 -0.0967
   17SAPC   H9R 2189   2.497   6.890   9.531 -2.6434 -0.4584  0.3240
   17SAPC  C210 2190   2.558   6.677   9.540 -0.4207  0.1213 -0.1559
   17SAPC  H10R 2191   2.468   6.643   9.484 -1.4277 -1.0372  2.0324
   17SAPC  H10S 2192   2.575   6.597   9.615  0.2042  0.9856  0.6496
   17SAPC  C211 2193   2.673   6.688   9.443 -0.3140 -0.2084 -0.6923
   17SAPC  H11R 2194   2.769   6.673   9.494 -1.1781  0.2416  1.1617
   17SAPC  C212 2195   2.676   6.701   9.314 -0.2735  0.0515  0.3017
   17SAPC  H12R 2196   2.771   6.718   9.261  0.2254 -1.4636  0.6669
   17SAPC  C213 2197   2.555   6.706   9.224  0.6275 -0.3156 -0.2088
   17SAPC  H13R 2198   2.473   6.748   9.287  1.4315  0.5939  0.2505
   17SAPC  H13S 2199   2.527   6.601   9.198 -2.1818 -0.8126  3.8471
   17SAPC  C214 2200   2.572   6.800   9.105 -0.7508  0.1662  0.0501
   17SAPC  H14R 2201   2.669   6.851   9.108 -0.4186 -0.4299 -0.3330
   17SAPC  C215 2202   2.489   6.799   8.996 -0.2163 -0.1183 -0.5582
   17SAPC  H15R 2203   2.489   6.873   8.914 -0.3011 -0.2486 -0.6746
   17SAPC  C216 2204   2.361   6.720   8.989  0.0013  1.0196  0.2412
   17SAPC  H16R 2205   2.344   6.656   9.078  2.9785  0.1068  0.2283
   17SAPC  H16S 2206   2.357   6.653   8.900  2.9341  1.5023 -0.3390
   17SAPC  C217 2207   2.238   6.810   8.985  0.2173 -0.8428  0.7157
   17SAPC  H17R 2208   2.144   6.756   8.961 -2.0780  2.0226  2.5462
   17SAPC  H17S 2209   2.248   6.884   8.902 -1.2173 -2.5169 -1.0588
   17SAPC  C218 2210   2.211   6.881   9.115  0.3608  0.2778  0.2143
   17SAPC  H18R 2211   2.289   6.960   9.127 -0.7144  1.4819 -0.4764
   17SAPC  H18S 2212   2.198   6.796   9.185  0.0420  0.2110  0.0741
   17SAPC  C219 2213   2.076   6.959   9.108  0.3026  0.5696  0.1277
   17SAPC  H19R 2214   2.077   7.009   9.009  3.6615 -1.0562 -0.7964
   17SAPC  H19S 2215   2.080   7.036   9.188 -0.4846  0.6109  0.1361
   17SAPC  C220 2216   1.954   6.867   9.126  0.1653  0.0366 -0.1476
   17SAPC  H20R 2217   1.864   6.932   9.123  0.4415  0.5677  1.6519
   17SAPC  H20S 2218   1.968   6.814   9.224 -0.1295  3.4498  1.8871
   17SAPC  H20T 2219   1.955   6.793   9.043  0.8423  1.0454 -1.0521
   17SAPC   C33 2220   2.687   6.285   9.731  0.0290 -0.1266  0.2600
   17SAPC   H3X 2221   2.773   6.341   9.691 -0.1781 -1.0351 -1.5742
   17SAPC   H3Y 2222   2.613   6.363   9.759  0.6827  0.5106  0.2360
   17SAPC   C34 2223   2.624   6.215   9.605 -0.2616 -0.9366 -0.3241
   17SAPC   H4X 2224   2.518   6.196   9.633 -0.8915  2.5477  0.0851
   17SAPC   H4Y 2225   2.689   6.127   9.585 -1.0467 -1.6367  0.1376
   17SAPC   C35 2226   2.606   6.301   9.479  0.9329 -0.1783  0.3114
   17SAPC   H5X 2227   2.699   6.341   9.435  0.7372  0.7138  0.6943
   17SAPC   H5Y 2228   2.547   6.391   9.508  0.1698 -0.5017 -0.1977
   17SAPC   C36 2229   2.541   6.219   9.373 -0.4872 -0.0027 -0.4595
   17SAPC   H6X 2230   2.438   6.218   9.414 -0.8959 -0.8250 -1.4364
   17SAPC   H6Y 2231   2.572   6.112   9.376 -0.9131 -0.1105  0.8101
   17SAPC   C37 2232   2.548   6.273   9.230 -0.6591 -0.8801 -0.1970
   17SAPC   H7X 2233   2.652   6.286   9.192 -1.0913 -1.3540 -1.6178
   17SAPC   H7Y 2234   2.518   6.380   9.231 -0.2661 -0.7521  1.5238
   17SAPC   C38 2235   2.454   6.203   9.124 -0.1198  0.4528 -0.9189
   17SAPC   H8X 2236   2.356   6.200   9.177 -0.8487 -0.2411 -2.2587
   17SAPC   H8Y 2237   2.495   6.103   9.101 -0.5338  0.6258 -2.5100
   17SAPC   C39 2238   2.447   6.290   9.000  0.5147  0.0918 -0.0987
   17SAPC   H9X 2239   2.546   6.322   8.961 -0.9332  3.5918 -1.2155
   17SAPC   H9Y 2240   2.394   6.383   9.028  2.2248  0.8823  0.6827
   17SAPC  C310 2241   2.350   6.221   8.905 -0.4404  0.3867 -0.3936
   17SAPC  H10X 2242   2.247   6.232   8.943 -0.7451  0.1138 -1.1080
   17SAPC  H10Y 2243   2.383   6.115   8.899  2.3223  1.2435 -2.3828
   17SAPC  C311 2244   2.339   6.265   8.758 -0.0539 -0.4912 -0.0669
   17SAPC  H11X 2245   2.247   6.215   8.724 -0.4752 -1.1053  1.8362
   17SAPC  H11Y 2246   2.425   6.215   8.710 -0.5740  1.5009 -3.3709
   17SAPC  C312 2247   2.323   6.415   8.733 -0.2543  0.1501 -0.3048
   17SAPC  H12X 2248   2.398   6.470   8.793 -0.6522 -0.7078  1.0273
   17SAPC  H12Y 2249   2.223   6.426   8.780  0.4284  0.3496  1.1739
   17SAPC  C313 2250   2.322   6.456   8.584 -0.1263  1.0747 -0.5162
   17SAPC  H13X 2251   2.245   6.395   8.532  0.8794  0.0231 -0.8261
   17SAPC  H13Y 2252   2.423   6.415   8.561 -0.2390  0.3841  0.1769
   17SAPC  C314 2253   2.310   6.604   8.553 -0.8929  0.6585  0.5735
   17SAPC  H14X 2254   2.346   6.625   8.450 -3.8182 -0.1426 -0.7406
   17SAPC  H14Y 2255   2.370   6.658   8.629  0.3187  2.6160 -1.6483
   17SAPC  C315 2256   2.163   6.662   8.552 -0.2882  0.0355  0.0186
   17SAPC  H15X 2257   2.099   6.611   8.627 -1.1021 -0.6520 -1.1178
   17SAPC  H15Y 2258   2.125   6.650   8.449  0.1291  0.2379 -0.1606
   17SAPC  C316 2259   2.161   6.812   8.593 -0.2040 -0.2151  0.3234
   17SAPC  H16X 2260   2.250   6.869   8.559 -0.6907 -0.3376 -1.2524
   17SAPC  H16Y 2261   2.158   6.809   8.704 -2.4591  0.3278  0.3124
   17SAPC  C317 2262   2.036   6.878   8.541 -0.3009  0.1795  0.0584
   17SAPC  H17X 2263   1.953   6.808   8.566  1.5191 -1.6738  1.2487
   17SAPC  H17Y 2264   2.041   6.893   8.431  1.8044  0.9155  0.2069
   17SAPC  C318 2265   2.022   7.020   8.608 -0.2847  0.0553  0.6772
   17SAPC  H18X 2266   1.951   7.075   8.543 -0.8876 -1.8401 -0.3709
   17SAPC  H18Y 2267   1.996   7.013   8.716  0.2073 -0.8719  0.7447
   17SAPC  H18Z 2268   2.115   7.081   8.602 -0.2777 -0.0213 -0.0539
   18SAPC     N 2269   2.311   6.443  10.700  0.5251  0.1151 -0.3083
   18SAPC   C12 2270   2.249   6.483  10.564  0.6325  0.1280  1.0444
   18SAPC  H12A 2271   2.324   6.494  10.487  1.0565  1.7683  1.6469
   18SAPC  H12B 2272   2.212   6.585  10.559 -3.1359 -1.1549 -1.9797
   18SAPC   C13 2273   2.366   6.304  10.689 -0.7069  0.1283  0.3656
   18SAPC  H13A 2274   2.283   6.253  10.644 -0.9768  1.6229 -0.9047
   18SAPC  H13B 2275   2.452   6.287  10.625 -0.8125 -1.5972  0.6299
   18SAPC  H13C 2276   2.394   6.269  10.787 -0.1742  0.7695  0.4544
   18SAPC   C14 2277   2.428   6.542  10.736 -0.1367  0.3854 -0.5132
   18SAPC  H14A 2278   2.394   6.644  10.744  0.8237  0.6494  0.5553
   18SAPC  H14B 2279   2.456   6.519  10.838  0.9591 -1.8819 -1.2604
   18SAPC  H14C 2280   2.517   6.540  10.675  2.8659  2.1370  3.3541
   18SAPC   C15 2281   2.215   6.452  10.813 -0.3678 -0.5319 -0.1700
   18SAPC  H15A 2282   2.273   6.439  10.904  0.8184  3.3406 -0.1889
   18SAPC  H15B 2283   2.169   6.549  10.800  1.2450 -0.0579 -3.1650
   18SAPC  H15C 2284   2.138   6.376  10.805 -1.5116  0.5450  0.1601
   18SAPC   C11 2285   2.142   6.388  10.501  0.3156  0.0176 -0.1631
   18SAPC  H11A 2286   2.183   6.285  10.508  1.1147  0.2428 -1.2954
   18SAPC  H11B 2287   2.132   6.404  10.392  0.5428 -1.6580 -0.4531
   18SAPC     P 2288   1.906   6.483  10.517  0.1311  0.0825 -0.2419
   18SAPC   O13 2289   1.782   6.449  10.593  0.1162 -0.7350 -0.0091
   18SAPC   O14 2290   1.955   6.623  10.526  0.2876  0.1137  0.0907
   18SAPC   O12 2291   2.018   6.391  10.584 -0.3359 -0.1119  0.6112
   18SAPC   O11 2292   1.889   6.437  10.364 -0.3518  0.0277 -0.1025
   18SAPC    C1 2293   1.845   6.306  10.319  0.4054 -0.7331 -0.0873
   18SAPC    HA 2294   1.930   6.269  10.257 -2.2108 -2.2354 -3.0806
   18SAPC    HB 2295   1.839   6.226  10.395 -0.3100 -1.1345 -0.5598
   18SAPC    C2 2296   1.725   6.307  10.228  0.5921  0.3167  0.7350
   18SAPC    HS 2297   1.752   6.244  10.140 -1.0421  0.6005  0.0007
   18SAPC   O21 2298   1.691   6.442  10.189  0.4561  0.4070 -0.3326
   18SAPC   C21 2299   1.764   6.482  10.087 -0.3300 -0.1265  0.3881
   18SAPC   O22 2300   1.847   6.411  10.029 -0.1326 -0.1095  0.0489
   18SAPC   C22 2301   1.753   6.632  10.073  0.2294  0.5676  0.8598
   18SAPC   H2R 2302   1.676   6.667  10.144 -1.3009  2.3618 -1.4960
   18SAPC   H2S 2303   1.854   6.664  10.107 -0.3167  1.0492  2.0550
   18SAPC    C3 2304   1.609   6.246  10.313  0.0082 -0.2122  0.7047
   18SAPC    HX 2305   1.626   6.279  10.418  2.0460  1.1415  0.0101
   18SAPC    HY 2306   1.633   6.139  10.298 -1.6645 -0.3940 -1.0018
   18SAPC   O31 2307   1.473   6.268  10.264 -0.5065 -0.3333 -0.7979
   18SAPC   C31 2308   1.388   6.172  10.286 -0.2882 -0.3015  0.0754
   18SAPC   O32 2309   1.407   6.074  10.356 -0.1037  0.3718 -0.0229
   18SAPC   C32 2310   1.264   6.206  10.206 -0.4769 -0.2183 -0.2448
   18SAPC   H2X 2311   1.287   6.291  10.138 -1.6722 -0.4661 -0.9865
   18SAPC   H2Y 2312   1.188   6.240  10.279  0.7940  0.8675  0.6118
   18SAPC   C23 2313   1.726   6.675   9.922 -1.0061 -0.2417 -0.4410
   18SAPC   H3R 2314   1.794   6.633   9.845  1.7448 -0.8837  2.1418
   18SAPC   H3S 2315   1.751   6.783   9.934  0.5688 -0.5864 -0.3641
   18SAPC   C24 2316   1.582   6.649   9.879 -0.3006 -0.1217 -0.3178
   18SAPC   H4R 2317   1.573   6.725   9.799 -0.1755  0.8892  0.6078
   18SAPC   H4S 2318   1.511   6.676   9.960  1.2621 -1.4357  1.5760
   18SAPC   C25 2319   1.567   6.509   9.824  0.2531  0.0633  0.2897
   18SAPC   H5R 2320   1.547   6.427   9.895  2.1506 -1.1960 -0.5491
   18SAPC   C26 2321   1.557   6.469   9.696 -0.6648  0.0984  0.1694
   18SAPC   H6R 2322   1.549   6.361   9.676 -1.6384 -0.0473  1.2174
   18SAPC   C27 2323   1.573   6.546   9.572 -0.0393  0.7052 -0.1475
   18SAPC   H7R 2324   1.668   6.520   9.522  0.5198  0.3153  1.0790
   18SAPC   H7S 2325   1.604   6.648   9.601  0.1098  0.4231  0.7180
   18SAPC   C28 2326   1.447   6.542   9.489  0.4731 -0.4219  0.2939
   18SAPC   H8R 2327   1.357   6.575   9.543  0.7870  0.2304  0.4287
   18SAPC   C29 2328   1.433   6.513   9.360 -0.9124 -0.0466 -0.2561
   18SAPC   H9R 2329   1.339   6.512   9.302 -0.3678 -1.0140 -1.1527
   18SAPC  C210 2330   1.545   6.471   9.265 -0.3057 -0.2397 -0.1222
   18SAPC  H10R 2331   1.521   6.378   9.209  2.5101 -0.7293 -0.6877
   18SAPC  H10S 2332   1.637   6.439   9.319  1.0008  0.0750 -2.0576
   18SAPC  C211 2333   1.587   6.580   9.178  0.7582 -1.3288  1.4751
   18SAPC  H11R 2334   1.631   6.664   9.233  1.0405  0.5464 -1.3907
   18SAPC  C212 2335   1.582   6.574   9.042  0.0094 -0.5225  0.0469
   18SAPC  H12R 2336   1.642   6.648   8.987 -0.6894  1.1074  1.3771
   18SAPC  C213 2337   1.523   6.467   8.953  0.0922 -1.2959  0.0774
   18SAPC  H13R 2338   1.472   6.391   9.016  0.6701 -1.4050  0.4231
   18SAPC  H13S 2339   1.609   6.415   8.905  1.9034  0.8664  0.8184
   18SAPC  C214 2340   1.422   6.532   8.855  0.1451 -0.2618  0.4618
   18SAPC  H14R 2341   1.448   6.631   8.815 -0.3610 -0.2199  0.2332
   18SAPC  C215 2342   1.327   6.469   8.796  0.1007  0.6634 -0.5126
   18SAPC  H15R 2343   1.270   6.517   8.715 -1.2049  2.1333  1.1804
   18SAPC  C216 2344   1.289   6.321   8.809  0.0843 -0.1011 -0.4122
   18SAPC  H16R 2345   1.345   6.275   8.893 -1.4657  1.1081  1.3466
   18SAPC  H16S 2346   1.302   6.264   8.714 -3.5053 -0.5957 -0.7697
   18SAPC  C217 2347   1.142   6.295   8.857  0.3278  0.4175  0.9336
   18SAPC  H17R 2348   1.112   6.194   8.822 -0.5879  1.2965 -0.9978
   18SAPC  H17S 2349   1.076   6.366   8.802  1.9880  2.5526  1.5461
   18SAPC  C218 2350   1.115   6.307   9.004 -0.0750 -0.5835 -0.0441
   18SAPC  H18R 2351   1.113   6.414   9.034 -0.4231 -0.9305  1.2541
   18SAPC  H18S 2352   1.195   6.267   9.071 -0.7080  0.4915  1.4189
   18SAPC  C219 2353   0.975   6.246   9.042 -0.7061 -1.1040 -0.1339
   18SAPC  H19R 2354   0.969   6.136   9.023 -2.8842 -1.0867  0.2865
   18SAPC  H19S 2355   0.903   6.298   8.976 -2.0291 -0.0463  2.0358
   18SAPC  C220 2356   0.934   6.272   9.189 -0.2758 -0.2561  0.7135
   18SAPC  H20R 2357   0.823   6.271   9.185 -0.2716 -2.1799 -2.5604
   18SAPC  H20S 2358   0.967   6.369   9.233 -1.8294  0.3186  0.6722
   18SAPC  H20T 2359   0.986   6.203   9.258  0.9454 -0.1233 -0.0555
   18SAPC   C33 2360   1.198   6.100  10.112  0.2647  0.0643 -0.3794
   18SAPC   H3X 2361   1.119   6.052  10.175  1.5118 -0.0158  1.1789
   18SAPC   H3Y 2362   1.273   6.022  10.092 -1.0586 -0.7088 -2.6246
   18SAPC   C34 2363   1.142   6.157   9.984 -0.6280  0.4207 -0.5438
   18SAPC   H4X 2364   1.222   6.222   9.943 -0.0672 -0.8455 -1.4978
   18SAPC   H4Y 2365   1.050   6.213  10.012 -0.1532  0.4180  1.1606
   18SAPC   C35 2366   1.115   6.045   9.886  0.1060 -0.1351 -0.0658
   18SAPC   H5X 2367   1.050   5.969   9.933 -0.3744 -0.3444 -1.0404
   18SAPC   H5Y 2368   1.207   5.984   9.871 -0.3050 -0.7122 -0.2892
   18SAPC   C36 2369   1.063   6.097   9.756 -0.4865 -0.3736 -0.6880
   18SAPC   H6X 2370   1.127   6.181   9.724  0.5074 -1.5819 -1.9787
   18SAPC   H6Y 2371   0.957   6.126   9.773 -0.8989 -0.0266 -3.4737
   18SAPC   C37 2372   1.051   5.996   9.639 -0.0049 -0.3121  0.0100
   18SAPC   H7X 2373   0.989   5.913   9.680  0.2583  0.0789  1.2283
   18SAPC   H7Y 2374   1.148   5.955   9.605 -0.2836 -1.1721  0.2235
   18SAPC   C38 2375   0.970   6.062   9.529 -0.5773 -0.1027  0.3992
   18SAPC   H8X 2376   1.031   6.072   9.437 -0.9874 -1.1957 -0.0017
   18SAPC   H8Y 2377   0.928   6.161   9.559  0.2761  0.2529  0.4631
   18SAPC   C39 2378   0.837   5.992   9.490  0.0714  0.1143  0.1249
   18SAPC   H9X 2379   0.865   5.886   9.474  0.7198  0.3616 -0.4523
   18SAPC   H9Y 2380   0.799   6.032   9.394  1.1473 -1.3890 -0.9822
   18SAPC  C310 2381   0.723   5.990   9.588 -0.9830  0.5644 -0.3492
   18SAPC  H10X 2382   0.682   6.090   9.612 -0.9488  0.8910 -1.6186
   18SAPC  H10Y 2383   0.757   5.943   9.683  0.5167 -0.2426 -1.2376
   18SAPC  C311 2384   0.614   5.894   9.535  0.4457  0.3953  0.0654
   18SAPC  H11X 2385   0.661   5.793   9.528  0.3769  0.3121  0.6835
   18SAPC  H11Y 2386   0.583   5.928   9.434  1.0662 -0.5199 -0.4554
   18SAPC  C312 2387   0.502   5.878   9.638  0.4518 -0.0442 -0.3246
   18SAPC  H12X 2388   0.432   5.965   9.639 -1.0845 -1.2431  0.0547
   18SAPC  H12Y 2389   0.551   5.859   9.736  0.6766 -0.4495 -0.5151
   18SAPC  C313 2390   0.404   5.767   9.621  0.8049  0.4710 -0.4642
   18SAPC  H13X 2391   0.329   5.777   9.703  2.3872  0.4660  1.0376
   18SAPC  H13Y 2392   0.456   5.671   9.640  0.5481  0.1620 -1.2996
   18SAPC  C314 2393   0.327   5.756   9.484 -1.1820 -0.0973  0.0551
   18SAPC  H14X 2394   0.410   5.753   9.410 -0.0628 -0.3403  1.2772
   18SAPC  H14Y 2395   0.274   5.851   9.465 -1.3724 -0.0113  0.9672
   18SAPC  C315 2396   0.236   5.630   9.474  0.7271  0.1414  0.0409
   18SAPC  H15X 2397   0.298   5.539   9.462 -0.0389 -0.3460 -0.3769
   18SAPC  H15Y 2398   0.173   5.644   9.383 -0.7863 -0.2391  0.9880
   18SAPC  C316 2399   0.142   5.608   9.588  0.0378 -0.0443  0.0327
   18SAPC  H16X 2400   0.120   5.706   9.636  1.8722  0.7182 -0.6044
   18SAPC  H16Y 2401   0.183   5.538   9.663 -1.5835 -1.4182 -0.2949
   18SAPC  C317 2402   0.001   5.568   9.541 -0.4407  0.0772 -0.7859
   18SAPC  H17X 2403  -0.049   5.647   9.481 -0.5560  0.0131 -0.7756
   18SAPC  H17Y 2404  -0.060   5.553   9.633 -2.1830 -1.6336 -2.1438
   18SAPC  C318 2405  -0.007   5.437   9.459 -0.6892  0.1387  0.2978
   18SAPC  H18X 2406   0.052   5.451   9.365  1.7280 -0.4949  1.6341
   18SAPC  H18Y 2407  -0.112   5.411   9.436 -2.0486  0.1594  5.3538
   18SAPC  H18Z 2408   0.028   5.350   9.518 -2.1890 -1.7069 -1.4136
   19SAPC     N 2409   1.279   0.957  10.582 -0.8617 -0.5329 -0.1830
   19SAPC   C12 2410   1.141   1.026  10.564  0.2766  0.6277 -0.5569
   19SAPC  H12A 2411   1.147   1.133  10.577 -1.1552  0.4576  2.2470
   19SAPC  H12B 2412   1.085   0.981  10.644  2.4843  1.5739  1.6372
   19SAPC   C13 2413   1.333   0.999  10.711 -0.3964 -0.0464 -0.2777
   19SAPC  H13A 2414   1.256   0.981  10.785 -0.2645 -3.4357 -0.8028
   19SAPC  H13B 2415   1.420   0.945  10.745 -1.1025 -0.6444  0.6276
   19SAPC  H13C 2416   1.345   1.105  10.729  1.9683 -0.2570 -0.3404
   19SAPC   C14 2417   1.261   0.809  10.569  0.0551  0.1525  0.3046
   19SAPC  H14A 2418   1.220   0.750  10.649 -0.5934 -0.0390 -0.1575
   19SAPC  H14B 2419   1.203   0.789  10.480 -0.4434 -0.1713  0.6978
   19SAPC  H14C 2420   1.356   0.761  10.555 -0.6828 -1.1421 -0.4730
   19SAPC   C15 2421   1.375   1.002  10.483  0.3328 -0.0132 -0.5927
   19SAPC  H15A 2422   1.376   1.109  10.467 -0.1683  0.0958  0.0698
   19SAPC  H15B 2423   1.473   0.975  10.520 -0.3063  0.6530  1.7479
   19SAPC  H15C 2424   1.368   0.947  10.391  0.3248 -0.5489 -0.2761
   19SAPC   C11 2425   1.059   0.988  10.433  0.1629  0.4319 -0.3321
   19SAPC  H11A 2426   1.121   1.006  10.343  1.2709  0.2746  0.3775
   19SAPC  H11B 2427   0.972   1.056  10.419 -0.5602 -0.5584 -0.7631
   19SAPC     P 2428   0.887   0.814  10.514  0.1533 -0.2967  0.6597
   19SAPC   O13 2429   0.876   0.666  10.518  0.2653 -0.4810  0.0796
   19SAPC   O14 2430   0.885   0.889  10.642 -0.6781  0.3246 -0.0326
   19SAPC   O12 2431   1.012   0.850  10.435  0.4753  0.1453  0.1876
   19SAPC   O11 2432   0.761   0.866  10.435 -0.0012  0.8104 -0.6266
   19SAPC    C1 2433   0.766   0.868  10.290  0.5157 -0.1725 -0.4186
   19SAPC    HA 2434   0.869   0.880  10.251  1.4784 -1.2336  1.6284
   19SAPC    HB 2435   0.738   0.768  10.250 -0.1576 -0.3653  0.4882
   19SAPC    C2 2436   0.670   0.975  10.228 -0.8641 -0.6541 -0.0008
   19SAPC    HS 2437   0.583   0.949  10.291 -0.4907 -2.5730 -0.2090
   19SAPC   O21 2438   0.645   0.949  10.085 -0.2928  0.4614 -0.1411
   19SAPC   C21 2439   0.535   0.894  10.051 -0.8814 -0.6407  0.7267
   19SAPC   O22 2440   0.441   0.856  10.121 -0.7632 -0.3054  1.4410
   19SAPC   C22 2441   0.537   0.893   9.905 -0.5423  0.2069  0.3529
   19SAPC   H2R 2442   0.560   0.993   9.863  1.8636 -1.1384 -1.7989
   19SAPC   H2S 2443   0.623   0.827   9.880 -0.1303  0.4373  1.1325
   19SAPC    C3 2444   0.716   1.122  10.258  0.4971  0.3866 -0.9794
   19SAPC    HX 2445   0.816   1.157  10.224  1.5282 -2.3735 -1.0680
   19SAPC    HY 2446   0.739   1.129  10.367 -1.7889  1.8870 -0.5274
   19SAPC   O31 2447   0.617   1.215  10.207  0.0295  0.2446  0.6473
   19SAPC   C31 2448   0.549   1.282  10.295  0.4181 -0.1750 -0.2085
   19SAPC   O32 2449   0.561   1.289  10.416  0.5262  0.4415  0.1028
   19SAPC   C32 2450   0.451   1.369  10.219 -0.1580  0.1443 -0.3580
   19SAPC   H2X 2451   0.513   1.437  10.156  0.6151 -0.7372 -0.5787
   19SAPC   H2Y 2452   0.415   1.442  10.295 -0.4980 -3.2509  3.0037
   19SAPC   C23 2453   0.411   0.854   9.822  0.8204  0.5959  0.1530
   19SAPC   H3R 2454   0.331   0.921   9.860 -1.6690 -3.0555  1.9392
   19SAPC   H3S 2455   0.389   0.753   9.862 -1.2261  1.7614  2.2011
   19SAPC   C24 2456   0.429   0.871   9.667  0.0929 -0.3592  0.8227
   19SAPC   H4R 2457   0.522   0.818   9.637 -0.8699 -0.0230 -3.2842
   19SAPC   H4S 2458   0.445   0.979   9.648  0.9333 -0.8070 -1.2790
   19SAPC   C25 2459   0.308   0.832   9.595  0.2633  0.3540 -0.3442
   19SAPC   H5R 2460   0.251   0.749   9.640  1.9445 -1.1631 -0.8602
   19SAPC   C26 2461   0.267   0.878   9.480  0.2885  0.1457  0.2350
   19SAPC   H6R 2462   0.174   0.851   9.429  0.6060  2.5182 -1.7681
   19SAPC   C27 2463   0.347   0.990   9.407  0.9422  0.6694  0.0703
   19SAPC   H7R 2464   0.454   0.991   9.435  1.0569  0.6027 -0.3479
   19SAPC   H7S 2465   0.295   1.084   9.437 -1.2757 -0.3797 -0.3050
   19SAPC   C28 2466   0.338   0.968   9.254  0.3955  0.3415  0.2972
   19SAPC   H8R 2467   0.266   1.029   9.198 -0.1805 -0.5222  0.0777
   19SAPC   C29 2468   0.419   0.892   9.183 -0.5234  0.5198 -1.4010
   19SAPC   H9R 2469   0.395   0.869   9.078  0.3525 -2.8977 -0.9748
   19SAPC  C210 2470   0.533   0.810   9.240 -0.8055  0.5909  0.3286
   19SAPC  H10R 2471   0.526   0.799   9.350 -2.4499 -1.2784  0.0789
   19SAPC  H10S 2472   0.633   0.855   9.219  0.7530 -1.9326  1.8442
   19SAPC  C211 2473   0.532   0.675   9.179  0.0112 -0.3015 -0.1012
   19SAPC  H11R 2474   0.582   0.675   9.081  2.4806  1.7540  1.0279
   19SAPC  C212 2475   0.469   0.566   9.224  0.3546  0.3011 -0.7482
   19SAPC  H12R 2476   0.471   0.476   9.161  1.3165  1.2450 -2.1154
   19SAPC  C213 2477   0.378   0.555   9.348 -0.2697  0.5396 -0.1113
   19SAPC  H13R 2478   0.278   0.596   9.323 -0.2688  0.2075 -0.6880
   19SAPC  H13S 2479   0.424   0.621   9.424 -0.7736  1.6507 -0.7453
   19SAPC  C214 2480   0.363   0.409   9.390 -0.3494 -0.0434 -0.1296
   19SAPC  H14R 2481   0.348   0.334   9.311  1.8902 -0.4549 -0.2285
   19SAPC  C215 2482   0.381   0.362   9.518  0.9665  0.0969  0.3492
   19SAPC  H15R 2483   0.353   0.257   9.534 -0.4226  0.6866  2.1473
   19SAPC  C216 2484   0.420   0.434   9.645 -0.4561 -0.5142  0.7104
   19SAPC  H16R 2485   0.353   0.518   9.672  0.9261  2.1990 -3.3361
   19SAPC  H16S 2486   0.519   0.481   9.627 -0.2454 -1.1098  0.2919
   19SAPC  C217 2487   0.412   0.335   9.764  0.0335 -0.5801  0.2247
   19SAPC  H17R 2488   0.481   0.251   9.741 -0.1180 -0.6702  0.0967
   19SAPC  H17S 2489   0.308   0.302   9.783 -0.4368  1.5205  1.6431
   19SAPC  C218 2490   0.452   0.408   9.895 -0.0906  0.7516 -0.3537
   19SAPC  H18R 2491   0.449   0.332   9.977  3.2789  0.9546  0.1039
   19SAPC  H18S 2492   0.382   0.484   9.935  0.6332  0.8796  0.7294
   19SAPC  C219 2493   0.602   0.452   9.897 -0.0142  0.7366  0.2423
   19SAPC  H19R 2494   0.627   0.522   9.815  3.3768  0.1170  0.6103
   19SAPC  H19S 2495   0.670   0.365   9.888 -1.7761 -0.7847  0.9246
   19SAPC  C220 2496   0.638   0.524  10.034 -0.5154  0.2811  0.4338
   19SAPC  H20R 2497   0.555   0.596  10.054 -0.7691  0.3468 -0.7702
   19SAPC  H20S 2498   0.735   0.579  10.036 -0.5505  0.3222  1.5440
   19SAPC  H20T 2499   0.633   0.444  10.111 -2.6143 -0.7327 -0.6837
   19SAPC   C33 2500   0.339   1.296  10.147 -0.0701  0.8310  0.0576
   19SAPC   H3X 2501   0.267   1.373  10.112 -0.3987  0.3847 -0.2474
   19SAPC   H3Y 2502   0.287   1.227  10.216  0.6207  0.5525  0.3129
   19SAPC   C34 2503   0.381   1.236  10.009  0.1099 -0.4752  0.4415
   19SAPC   H4X 2504   0.286   1.195   9.967  0.5891 -0.6716 -0.4771
   19SAPC   H4Y 2505   0.457   1.156  10.025  0.9213  0.2732  0.4214
   19SAPC   C35 2506   0.442   1.340   9.915  0.1253 -0.1662  0.5552
   19SAPC   H5X 2507   0.548   1.362   9.942  0.3046 -0.1999 -0.0913
   19SAPC   H5Y 2508   0.379   1.431   9.926  2.4013  1.7449 -1.0863
   19SAPC   C36 2509   0.430   1.292   9.764  0.0740  0.1261  0.0022
   19SAPC   H6X 2510   0.322   1.283   9.738  0.0803  2.0348 -0.8295
   19SAPC   H6Y 2511   0.488   1.197   9.765 -0.2377 -0.0586  0.9349
   19SAPC   C37 2512   0.494   1.387   9.665 -0.2576 -0.2209 -0.0204
   19SAPC   H7X 2513   0.585   1.436   9.705 -0.4268 -0.3489  0.5223
   19SAPC   H7Y 2514   0.413   1.461   9.650 -0.5532 -0.0522  2.1051
   19SAPC   C38 2515   0.523   1.317   9.531 -0.1405  0.2738 -0.4740
   19SAPC   H8X 2516   0.432   1.256   9.512  1.1868 -2.1690  0.5426
   19SAPC   H8Y 2517   0.609   1.248   9.535 -0.5501 -0.1831  0.9298
   19SAPC   C39 2518   0.545   1.410   9.414  0.2221  0.2791  0.1084
   19SAPC   H9X 2519   0.648   1.450   9.420 -0.1309  1.2103  0.1285
   19SAPC   H9Y 2520   0.484   1.501   9.430  0.7159  0.8047 -0.9131
   19SAPC  C310 2521   0.513   1.347   9.276 -0.0531  0.3070 -1.0927
   19SAPC  H10X 2522   0.402   1.337   9.277 -0.1461  1.2045 -1.3119
   19SAPC  H10Y 2523   0.565   1.249   9.270 -1.1193 -0.5728  2.0756
   19SAPC  C311 2524   0.535   1.440   9.153 -0.1439  0.5996 -0.4835
   19SAPC  H11X 2525   0.492   1.541   9.172 -1.6054  0.4999 -2.9321
   19SAPC  H11Y 2526   0.505   1.401   9.054 -2.9736  0.5659  0.2797
   19SAPC  C312 2527   0.681   1.467   9.131 -0.0538 -0.4627  0.8612
   19SAPC  H12X 2528   0.738   1.376   9.102  0.3682 -0.6150  2.1190
   19SAPC  H12Y 2529   0.731   1.511   9.219  1.3373 -0.2094 -0.0317
   19SAPC  C313 2530   0.698   1.582   9.024 -0.1420 -0.1347 -0.0538
   19SAPC  H13X 2531   0.806   1.603   9.009 -0.2888 -0.3841 -1.6496
   19SAPC  H13Y 2532   0.661   1.682   9.055  0.4990  0.3970 -0.9426
   19SAPC  C314 2533   0.643   1.557   8.880 -0.8182  0.0936  0.0335
   19SAPC  H14X 2534   0.645   1.654   8.825  2.5673  0.6087  0.8150
   19SAPC  H14Y 2535   0.532   1.548   8.879 -1.2890  3.9401 -1.9367
   19SAPC  C315 2536   0.738   1.461   8.805  0.9570 -0.7650 -0.0222
   19SAPC  H15X 2537   0.723   1.358   8.844 -0.5995 -0.6484 -0.2431
   19SAPC  H15Y 2538   0.841   1.497   8.821  0.1257  1.1540  1.3699
   19SAPC  C316 2539   0.704   1.458   8.654  0.5318  0.0816 -0.2852
   19SAPC  H16X 2540   0.724   1.554   8.601  0.7263 -0.6842 -1.6441
   19SAPC  H16Y 2541   0.594   1.441   8.648  0.3863  1.3091 -1.4317
   19SAPC  C317 2542   0.773   1.341   8.586 -0.2760 -0.2233 -0.0634
   19SAPC  H17X 2543   0.733   1.249   8.636 -2.1306  0.6220  0.1028
   19SAPC  H17Y 2544   0.882   1.357   8.597  0.5532 -3.9676 -1.1815
   19SAPC  C318 2545   0.732   1.334   8.441 -0.0380  0.2174 -0.2146
   19SAPC  H18X 2546   0.786   1.247   8.397 -0.7531 -0.6078  0.4943
   19SAPC  H18Y 2547   0.756   1.433   8.396 -1.8018  1.1545  0.8026
   19SAPC  H18Z 2548   0.623   1.313   8.436  0.1752 -1.2382  0.8069
   20SAPC     N 2549   1.152   5.860  10.828  0.2345 -0.5904 -0.2502
   20SAPC   C12 2550   1.119   5.811  10.690 -1.0479 -0.0838 -0.1894
   20SAPC  H12A 2551   1.140   5.886  10.616  0.0438 -0.8132 -0.6508
   20SAPC  H12B 2552   1.013   5.792  10.684 -1.2867  1.2403 -0.2808
   20SAPC   C13 2553   1.296   5.913  10.835  0.5495  0.1434  0.0802
   20SAPC  H13A 2554   1.299   6.018  10.813  1.5004  0.7968  2.9490
   20SAPC  H13B 2555   1.348   5.902  10.929 -1.1801 -0.7413  0.9837
   20SAPC  H13C 2556   1.356   5.861  10.762  0.2793 -0.0272 -0.0247
   20SAPC   C14 2557   1.068   5.978  10.856  0.1458  0.3756 -0.5240
   20SAPC  H14A 2558   0.963   5.956  10.864  0.6510 -2.2855 -0.3570
   20SAPC  H14B 2559   1.096   6.016  10.953  2.1836 -0.7413 -0.6235
   20SAPC  H14C 2560   1.092   6.060  10.790  0.0264  0.3266 -0.6261
   20SAPC   C15 2561   1.127   5.754  10.930  0.5213 -0.3982  0.0347
   20SAPC  H15A 2562   1.039   5.696  10.911  0.4656 -1.0716  2.0651
   20SAPC  H15B 2563   1.202   5.676  10.926  0.4832 -0.4309 -0.0532
   20SAPC  H15C 2564   1.140   5.798  11.028  0.8919 -0.9950  0.2585
   20SAPC   C11 2565   1.195   5.679  10.647  0.0059 -0.5590 -0.3211
   20SAPC  H11A 2566   1.301   5.709  10.662 -0.2334  0.4824 -0.6509
   20SAPC  H11B 2567   1.186   5.663  10.537  0.2337 -1.0929 -0.2670
   20SAPC     P 2568   1.011   5.492  10.717  0.5765  0.0407 -0.1066
   20SAPC   O13 2569   0.959   5.484  10.855  0.1752 -0.0137 -0.0002
   20SAPC   O14 2570   0.918   5.569  10.626 -0.2020 -0.4136  0.1045
   20SAPC   O12 2571   1.160   5.561  10.719 -0.1960 -0.3805  0.3932
   20SAPC   O11 2572   1.025   5.348  10.664 -0.0518  0.0235  0.2626
   20SAPC    C1 2573   1.068   5.338  10.527  0.3454 -0.1340 -0.3656
   20SAPC    HA 2574   1.033   5.244  10.479  1.4378 -0.1181 -1.2281
   20SAPC    HB 2575   1.034   5.421  10.462  1.4071  3.0412  2.7801
   20SAPC    C2 2576   1.222   5.318  10.519  1.0945  0.0772 -0.1489
   20SAPC    HS 2577   1.271   5.390  10.587  3.0398 -1.8169  0.5868
   20SAPC   O21 2578   1.259   5.349  10.382  0.4415 -0.2400 -0.3093
   20SAPC   C21 2579   1.380   5.372  10.356  0.1724 -0.0806  0.6257
   20SAPC   O22 2580   1.472   5.383  10.437  0.2632  0.2116  0.0244
   20SAPC   C22 2581   1.395   5.410  10.203  0.2246  0.4681  0.5410
   20SAPC   H2R 2582   1.365   5.315  10.154  0.8997 -1.1490  3.0691
   20SAPC   H2S 2583   1.312   5.482  10.190  0.0804  0.1224 -0.5620
   20SAPC    C3 2584   1.264   5.172  10.557  0.3074  0.4046 -0.3685
   20SAPC    HX 2585   1.229   5.161  10.662  0.9950  0.0120 -0.1759
   20SAPC    HY 2586   1.373   5.152  10.569  0.4911  0.2270 -2.0827
   20SAPC   O31 2587   1.187   5.062  10.489  0.0952 -0.4296  1.1058
   20SAPC   C31 2588   1.253   5.013  10.388 -0.6122 -0.0289 -0.5769
   20SAPC   O32 2589   1.361   5.054  10.344 -0.2298 -0.7551 -0.2484
   20SAPC   C32 2590   1.164   4.913  10.324  0.0560 -0.2822  0.1507
   20SAPC   H2X 2591   1.074   4.965  10.286  0.8189 -0.1293 -1.5129
   20SAPC   H2Y 2592   1.131   4.847  10.407 -0.1268 -0.8701 -0.3773
   20SAPC   C23 2593   1.528   5.459  10.145  0.5588 -0.1390  0.3102
   20SAPC   H3R 2594   1.603   5.387  10.186  1.6606  0.6245 -0.3146
   20SAPC   H3S 2595   1.550   5.562  10.180  1.7405 -0.2605 -0.0342
   20SAPC   C24 2596   1.537   5.455   9.991  0.0023  0.1637  0.3068
   20SAPC   H4R 2597   1.449   5.510   9.952  1.3522  1.3464 -1.1969
   20SAPC   H4S 2598   1.534   5.351   9.951  0.4481 -0.8560  2.7244
   20SAPC   C25 2599   1.668   5.513   9.936 -0.2105  0.3608  0.3244
   20SAPC   H5R 2600   1.753   5.444   9.930 -1.0557 -0.7158  0.3100
   20SAPC   C26 2601   1.683   5.644   9.917 -0.3531  0.4741  0.3347
   20SAPC   H6R 2602   1.779   5.680   9.878 -1.2221  0.9309 -1.5117
   20SAPC   C27 2603   1.579   5.754   9.930  0.3040 -0.4679  0.3635
   20SAPC   H7R 2604   1.483   5.703   9.957  0.6960 -0.7214  1.3136
   20SAPC   H7S 2605   1.553   5.799   9.831  0.2287 -0.1830  0.5118
   20SAPC   C28 2606   1.597   5.863  10.032  0.2829 -0.2135  0.6071
   20SAPC   H8R 2607   1.626   5.828  10.132 -0.0571 -0.7221  0.5320
   20SAPC   C29 2608   1.564   5.990  10.007 -0.4531  0.2633 -0.0426
   20SAPC   H9R 2609   1.583   6.068  10.082  0.0620 -0.9018  1.0823
   20SAPC  C210 2610   1.508   6.047   9.878  0.3710 -0.6661  0.4671
   20SAPC  H10R 2611   1.442   6.137   9.888  0.2679 -0.9093  2.3474
   20SAPC  H10S 2612   1.431   5.975   9.845 -0.8632  0.0699  1.6157
   20SAPC  C211 2613   1.620   6.082   9.785 -0.2284 -0.4579  0.0075
   20SAPC  H11R 2614   1.717   6.103   9.831  0.7087 -1.0925 -1.6242
   20SAPC  C212 2615   1.605   6.092   9.656  0.3323 -0.0977  0.3806
   20SAPC  H12R 2616   1.688   6.117   9.587  0.2529  1.5592  0.8559
   20SAPC  C213 2617   1.476   6.070   9.574  0.1282 -0.5517  0.0431
   20SAPC  H13R 2618   1.387   6.060   9.641  1.1779  1.4285  1.8461
   20SAPC  H13S 2619   1.482   5.967   9.534 -1.6636 -1.5355  2.0525
   20SAPC  C214 2620   1.441   6.161   9.459  0.4749  0.5667 -1.0670
   20SAPC  H14R 2621   1.442   6.267   9.487 -1.8156  0.4738 -0.3958
   20SAPC  C215 2622   1.402   6.130   9.338  0.2296 -0.0261 -0.0792
   20SAPC  H15R 2623   1.377   6.214   9.273  2.1947 -0.9489 -2.1361
   20SAPC  C216 2624   1.367   5.994   9.278  0.3841 -0.2236 -0.0722
   20SAPC  H16R 2625   1.283   6.000   9.206  2.5664  2.1536 -2.6579
   20SAPC  H16S 2626   1.342   5.919   9.357 -0.4867  1.1455  1.0057
   20SAPC  C217 2627   1.480   5.923   9.205 -0.2511 -0.2797 -0.2155
   20SAPC  H17R 2628   1.558   5.900   9.281 -1.0264  1.8810  1.3169
   20SAPC  H17S 2629   1.532   5.995   9.138  0.0234  0.6291  0.9613
   20SAPC  C218 2630   1.425   5.794   9.142 -1.1202 -0.7911 -0.1836
   20SAPC  H18R 2631   1.349   5.747   9.208 -1.8159 -1.5126 -1.4569
   20SAPC  H18S 2632   1.517   5.732   9.138  2.3666  3.6224  2.1608
   20SAPC  C219 2633   1.370   5.811   9.008 -0.0267 -0.1807 -0.6400
   20SAPC  H19R 2634   1.442   5.862   8.940  3.6790 -0.8141  2.4512
   20SAPC  H19S 2635   1.290   5.887   9.017  1.1631  1.2397 -1.6242
   20SAPC  C220 2636   1.315   5.690   8.937  0.0906  0.0791  0.5885
   20SAPC  H20R 2637   1.396   5.644   8.876  0.0753  2.4398 -1.3275
   20SAPC  H20S 2638   1.234   5.727   8.870 -0.5031  0.6186  1.5779
   20SAPC  H20T 2639   1.277   5.604   8.997  0.4043 -1.7572 -1.7192
   20SAPC   C33 2640   1.247   4.831  10.214  0.6119 -0.0279 -0.0941
   20SAPC   H3X 2641   1.352   4.801  10.238  1.3994  1.8903 -0.9621
   20SAPC   H3Y 2642   1.253   4.900  10.128 -0.5143 -0.7016 -0.7385
   20SAPC   C34 2643   1.164   4.707  10.177  0.3486  0.5915  0.1609
   20SAPC   H4X 2644   1.066   4.744  10.142 -0.3316  0.8933  2.2542
   20SAPC   H4Y 2645   1.146   4.644  10.267 -0.1690  0.6668  0.1109
   20SAPC   C35 2646   1.245   4.635  10.065 -0.5268  0.1506 -0.5962
   20SAPC   H5X 2647   1.349   4.620  10.099 -0.5634  2.1028  0.5731
   20SAPC   H5Y 2648   1.240   4.704   9.978 -1.2548 -0.0203 -0.6987
   20SAPC   C36 2649   1.184   4.493  10.023 -0.6661 -0.2119  0.2423
   20SAPC   H6X 2650   1.073   4.501  10.021 -0.7147 -0.8747 -1.2910
   20SAPC   H6Y 2651   1.220   4.425  10.103  4.0488  0.7884 -0.6863
   20SAPC   C37 2652   1.224   4.434   9.884 -0.0475  0.4837  0.3481
   20SAPC   H7X 2653   1.202   4.325   9.884 -0.2020  0.4767 -1.3893
   20SAPC   H7Y 2654   1.332   4.458   9.875  0.1603  0.8508  3.0682
   20SAPC   C38 2655   1.138   4.493   9.768  0.6129  0.4628 -0.6432
   20SAPC   H8X 2656   1.132   4.602   9.787  2.0146  0.2156  1.5268
   20SAPC   H8Y 2657   1.037   4.448   9.785  1.1267  0.2341  2.2949
   20SAPC   C39 2658   1.191   4.451   9.631  0.4167  0.7595 -0.2052
   20SAPC   H9X 2659   1.301   4.467   9.633  0.8181 -1.5782 -1.1177
   20SAPC   H9Y 2660   1.150   4.524   9.558  1.8720 -0.3716 -2.2468
   20SAPC  C310 2661   1.153   4.304   9.592 -0.6571 -0.2671 -0.1116
   20SAPC  H10X 2662   1.046   4.298   9.621 -0.0677 -3.3305  1.8758
   20SAPC  H10Y 2663   1.217   4.242   9.659 -0.3959 -1.3817 -1.3388
   20SAPC  C311 2664   1.206   4.255   9.452 -0.4495 -0.1220 -0.6065
   20SAPC  H11X 2665   1.200   4.144   9.454 -0.2726 -0.1208  0.2987
   20SAPC  H11Y 2666   1.317   4.266   9.460 -0.3331 -1.7381  0.4051
   20SAPC  C312 2667   1.139   4.321   9.328  0.2458  1.0627 -0.8753
   20SAPC  H12X 2668   1.180   4.424   9.316  2.3485  0.4963  0.7192
   20SAPC  H12Y 2669   1.030   4.314   9.346  0.1852 -0.2235 -1.6272
   20SAPC  C313 2670   1.169   4.234   9.195 -0.4355  0.2663 -0.2419
   20SAPC  H13X 2671   1.151   4.126   9.213 -1.7741  0.8622  2.5575
   20SAPC  H13Y 2672   1.279   4.240   9.184 -0.5045  0.4819 -0.8245
   20SAPC  C314 2673   1.096   4.292   9.066  0.5054  0.1364  0.1748
   20SAPC  H14X 2674   1.114   4.401   9.075  1.3969  0.1322 -1.2117
   20SAPC  H14Y 2675   0.988   4.269   9.073  0.3632  1.3482  3.0387
   20SAPC  C315 2676   1.162   4.254   8.927  0.5389 -0.6883 -0.0761
   20SAPC  H15X 2677   1.154   4.144   8.919  0.5155 -0.7106  0.2445
   20SAPC  H15Y 2678   1.270   4.276   8.939  0.3461 -0.4586  1.4106
   20SAPC  C316 2679   1.112   4.324   8.804 -0.5238 -0.1271  0.4335
   20SAPC  H16X 2680   1.139   4.431   8.818  1.8200 -0.3693 -1.5583
   20SAPC  H16Y 2681   1.003   4.320   8.781 -0.4735  1.6628 -0.2975
   20SAPC  C317 2682   1.175   4.259   8.677  0.4831  0.6326 -0.0799
   20SAPC  H17X 2683   1.158   4.150   8.670  0.6965  0.7111 -2.7055
   20SAPC  H17Y 2684   1.286   4.269   8.668  0.8951 -2.8242 -0.3400
   20SAPC  C318 2685   1.123   4.316   8.541  0.4179 -1.0167 -0.3671
   20SAPC  H18X 2686   1.012   4.311   8.539  0.3852 -3.7457  1.6657
   20SAPC  H18Y 2687   1.172   4.260   8.458 -0.9144 -1.6427 -0.7625
   20SAPC  H18Z 2688   1.159   4.420   8.551  1.0916 -1.3408  0.7623
   21SAPC     N 2689   6.440   2.371  11.019  0.5991 -0.6226 -0.7416
   21SAPC   C12 2690   6.559   2.275  11.015  0.7281  0.2464 -0.5935
   21SAPC  H12A 2691   6.537   2.190  11.078  0.5662  1.3777  0.9171
   21SAPC  H12B 2692   6.650   2.301  11.067  0.6341 -2.1058  0.8906
   21SAPC   C13 2693   6.401   2.399  11.169  0.3268 -0.0981  0.4195
   21SAPC  H13A 2694   6.356   2.316  11.222  0.0520  2.4476  4.6088
   21SAPC  H13B 2695   6.487   2.415  11.232 -0.6937  0.0462  1.8115
   21SAPC  H13C 2696   6.336   2.485  11.171  0.8152  0.3641 -1.4723
   21SAPC   C14 2697   6.482   2.497  10.961 -0.1227  0.1367  0.9187
   21SAPC  H14A 2698   6.533   2.485  10.867  1.3474 -1.5337  1.8678
   21SAPC  H14B 2699   6.396   2.559  10.941  0.8316  1.5119  0.9844
   21SAPC  H14C 2700   6.555   2.545  11.025 -0.1368 -1.2464  2.0264
   21SAPC   C15 2701   6.313   2.324  10.944  0.3337  0.0912  0.6818
   21SAPC  H15A 2702   6.253   2.412  10.926 -1.1562 -1.0177  0.0021
   21SAPC  H15B 2703   6.347   2.287  10.848  0.2702 -1.3327  1.1880
   21SAPC  H15C 2704   6.253   2.249  10.994 -1.4772  2.0415  1.6038
   21SAPC   C11 2705   6.605   2.224  10.875 -0.6964 -0.1304 -0.4800
   21SAPC  H11A 2706   6.696   2.163  10.888 -1.6175 -1.4040  0.2468
   21SAPC  H11B 2707   6.640   2.307  10.809  1.8899 -1.1295 -0.4838
   21SAPC     P 2708   6.468   2.002  10.816  0.1255 -0.2523 -0.0540
   21SAPC   O13 2709   6.591   1.926  10.839 -0.3262  0.1858 -0.2852
   21SAPC   O14 2710   6.364   1.996  10.921 -0.2705 -0.1971 -0.5192
   21SAPC   O12 2711   6.507   2.154  10.797 -0.5598  0.0895  0.3648
   21SAPC   O11 2712   6.407   1.964  10.678  0.0855 -0.5278  0.1682
   21SAPC    C1 2713   6.341   2.065  10.606 -0.1773  0.0406 -0.0753
   21SAPC    HA 2714   6.284   2.133  10.673  2.3978  1.5216  0.7564
   21SAPC    HB 2715   6.415   2.125  10.550 -1.8663 -0.6727 -3.2939
   21SAPC    C2 2716   6.235   2.000  10.504 -0.2398 -0.2576  0.4758
   21SAPC    HS 2717   6.162   1.940  10.563  0.5887 -1.6274  0.1533
   21SAPC   O21 2718   6.306   1.907  10.421 -0.5099 -0.5679  0.5959
   21SAPC   C21 2719   6.235   1.813  10.359 -0.3203  0.7297 -0.0108
   21SAPC   O22 2720   6.115   1.805  10.364  0.4478  0.0816 -0.1052
   21SAPC   C22 2721   6.324   1.709  10.292 -0.3626 -0.2692 -1.1986
   21SAPC   H2R 2722   6.408   1.682  10.360 -0.5966  2.7006  0.4749
   21SAPC   H2S 2723   6.260   1.618  10.298 -0.1550 -0.3602  2.4877
   21SAPC    C3 2724   6.175   2.113  10.411 -0.3164 -0.4253  0.9102
   21SAPC    HX 2725   6.124   2.179  10.485 -0.0861 -1.9347  2.4727
   21SAPC    HY 2726   6.106   2.066  10.338  0.4255 -1.8511  1.1019
   21SAPC   O31 2727   6.278   2.193  10.351  0.1186  0.3162 -0.5673
   21SAPC   C31 2728   6.320   2.160  10.231  0.6547  0.8377  0.0897
   21SAPC   O32 2729   6.277   2.071  10.159 -0.1859  0.5045 -0.2537
   21SAPC   C32 2730   6.418   2.263  10.184 -0.0902 -0.5415  0.8931
   21SAPC   H2X 2731   6.518   2.214  10.179 -0.7468 -1.8184 -0.1983
   21SAPC   H2Y 2732   6.429   2.339  10.264  0.0868  1.1842 -0.7087
   21SAPC   C23 2733   6.369   1.731  10.150  0.2700  0.4180  0.3931
   21SAPC   H3R 2734   6.430   1.644  10.117 -3.3870 -2.2566  0.0956
   21SAPC   H3S 2735   6.433   1.823  10.148 -0.0661  0.6587 -1.6503
   21SAPC   C24 2736   6.256   1.762  10.050  0.0902  0.1983 -0.8035
   21SAPC   H4R 2737   6.185   1.842  10.082 -0.7475 -1.3810  1.6011
   21SAPC   H4S 2738   6.196   1.668  10.047  0.7335 -0.2088 -4.0707
   21SAPC   C25 2739   6.312   1.799   9.911  0.1101 -0.2713  0.1476
   21SAPC   H5R 2740   6.327   1.907   9.900  0.3042 -0.4081 -1.0429
   21SAPC   C26 2741   6.348   1.721   9.812  0.3083 -0.0677  1.0599
   21SAPC   H6R 2742   6.364   1.767   9.713 -2.0159 -0.5801  0.3853
   21SAPC   C27 2743   6.338   1.572   9.813  0.2679  0.4127 -0.2303
   21SAPC   H7R 2744   6.265   1.537   9.736  0.0580  2.5049 -1.0396
   21SAPC   H7S 2745   6.297   1.539   9.911 -2.5481 -2.4587 -2.1660
   21SAPC   C28 2746   6.472   1.503   9.791  0.0872  0.0686 -0.5902
   21SAPC   H8R 2747   6.540   1.525   9.875 -0.0324  0.9453 -0.7156
   21SAPC   C29 2748   6.505   1.427   9.690  0.0962 -0.4486  0.6074
   21SAPC   H9R 2749   6.602   1.376   9.696  0.7489  0.7258  0.3211
   21SAPC  C210 2750   6.418   1.384   9.567 -0.0320  0.6880  0.1573
   21SAPC  H10R 2751   6.474   1.387   9.471 -0.9264 -1.5601 -0.4994
   21SAPC  H10S 2752   6.340   1.462   9.557  0.3894  1.3225  1.6283
   21SAPC  C211 2753   6.363   1.243   9.580  0.7603 -0.0771  0.3580
   21SAPC  H11R 2754   6.341   1.209   9.682  1.1305 -2.7959 -0.3850
   21SAPC  C212 2755   6.319   1.159   9.481 -0.6491 -0.1048 -0.3547
   21SAPC  H12R 2756   6.263   1.071   9.514  1.2029 -1.0597  0.3615
   21SAPC  C213 2757   6.319   1.193   9.337  0.0757 -0.3887  0.6226
   21SAPC  H13R 2758   6.413   1.164   9.285  0.6109 -0.7673  1.7821
   21SAPC  H13S 2759   6.293   1.301   9.335 -1.2580 -0.6971  0.6956
   21SAPC  C214 2760   6.204   1.121   9.268 -0.0125  0.4178  0.0768
   21SAPC  H14R 2761   6.126   1.081   9.334  0.1511  0.4527  0.2919
   21SAPC  C215 2762   6.198   1.108   9.138  0.1692  0.1191  0.6933
   21SAPC  H15R 2763   6.126   1.037   9.093  0.9549 -2.5076  3.2753
   21SAPC  C216 2764   6.307   1.171   9.049 -0.6724 -0.2498  0.1326
   21SAPC  H16R 2765   6.382   1.090   9.043  0.6530  0.7783  1.8135
   21SAPC  H16S 2766   6.367   1.255   9.091  2.5356 -3.0108  1.4658
   21SAPC  C217 2767   6.275   1.220   8.908 -0.2109  0.3795  0.1506
   21SAPC  H17R 2768   6.367   1.246   8.852  0.2260 -1.1363  0.1373
   21SAPC  H17S 2769   6.219   1.316   8.918 -0.4774  0.3303 -0.7896
   21SAPC  C218 2770   6.207   1.123   8.821  0.3982  0.1356 -0.1262
   21SAPC  H18R 2771   6.107   1.111   8.869  1.2455  0.6771  1.8654
   21SAPC  H18S 2772   6.249   1.021   8.814  0.5179  0.2045 -0.4305
   21SAPC  C219 2773   6.191   1.161   8.669 -0.2124  0.6701 -0.3160
   21SAPC  H19R 2774   6.293   1.155   8.624  0.5163 -0.2103  1.3632
   21SAPC  H19S 2775   6.151   1.263   8.648  0.3037  1.5283  2.5035
   21SAPC  C220 2776   6.113   1.049   8.596 -0.1861 -0.4719  0.7463
   21SAPC  H20R 2777   6.023   1.015   8.653 -0.4435  0.7515  1.1182
   21SAPC  H20S 2778   6.179   0.961   8.609  0.6636  0.0482  0.0593
   21SAPC  H20T 2779   6.101   1.070   8.488  0.0305 -2.6213  0.2752
   21SAPC   C33 2780   6.374   2.338  10.054  0.5885  1.3594 -0.3606
   21SAPC   H3X 2781   6.430   2.431  10.029  1.6420  0.1997 -2.7460
   21SAPC   H3Y 2782   6.270   2.378  10.055  0.5668  1.3238 -0.7457
   21SAPC   C34 2783   6.397   2.251   9.927  0.5850  0.4499 -0.0773
   21SAPC   H4X 2784   6.347   2.152   9.926  1.4179 -0.0413  2.0102
   21SAPC   H4Y 2785   6.503   2.219   9.927  0.3475 -0.3769 -0.3980
   21SAPC   C35 2786   6.364   2.329   9.799  0.5665 -0.5912 -0.4390
   21SAPC   H5X 2787   6.439   2.411   9.791 -0.2171  0.1698 -0.1455
   21SAPC   H5Y 2788   6.269   2.386   9.796  1.5331  1.0728 -0.7384
   21SAPC   C36 2789   6.365   2.245   9.675  0.4025  0.1034 -0.4152
   21SAPC   H6X 2790   6.293   2.164   9.698 -1.6986  2.2616  1.2017
   21SAPC   H6Y 2791   6.471   2.213   9.671  0.3860  0.0893 -0.7497
   21SAPC   C37 2792   6.310   2.315   9.552  0.5294 -0.0315  0.5377
   21SAPC   H7X 2793   6.348   2.419   9.556 -1.9463  0.8921  1.6199
   21SAPC   H7Y 2794   6.201   2.333   9.555  0.1422 -1.3422 -2.3383
   21SAPC   C38 2795   6.340   2.255   9.415  0.5574  1.3133  0.4981
   21SAPC   H8X 2796   6.450   2.252   9.399  0.2580  0.5340 -1.6908
   21SAPC   H8Y 2797   6.308   2.325   9.336 -0.9418  0.3523  0.2119
   21SAPC   C39 2798   6.263   2.121   9.391 -0.6835 -0.4674 -0.2949
   21SAPC   H9X 2799   6.156   2.124   9.421 -0.2773 -3.5462  2.0155
   21SAPC   H9Y 2800   6.310   2.045   9.458 -0.9276 -1.3544 -1.1087
   21SAPC  C310 2801   6.268   2.079   9.247  0.0314 -0.3054  0.3531
   21SAPC  H10X 2802   6.235   1.974   9.232 -0.9248  0.1974 -1.3638
   21SAPC  H10Y 2803   6.379   2.074   9.238  0.1956 -0.0484  1.9598
   21SAPC  C311 2804   6.195   2.174   9.142 -0.1258 -0.5194 -0.0140
   21SAPC  H11X 2805   6.213   2.282   9.158  0.2692 -0.7749  1.4524
   21SAPC  H11Y 2806   6.088   2.165   9.170 -0.1740 -0.0216 -0.0393
   21SAPC  C312 2807   6.215   2.133   8.989 -0.4125  0.3635  0.5097
   21SAPC  H12X 2808   6.325   2.125   8.976  0.0682  2.1552  2.7122
   21SAPC  H12Y 2809   6.174   2.221   8.936  1.6019  1.2754  0.3787
   21SAPC  C313 2810   6.149   2.010   8.942 -0.2062  0.7207 -0.7423
   21SAPC  H13X 2811   6.049   2.014   8.989  0.8342  0.0587  1.7070
   21SAPC  H13Y 2812   6.198   1.918   8.982 -1.8996 -0.1456 -0.5510
   21SAPC  C314 2813   6.139   1.994   8.787 -1.0868  0.1488 -0.4953
   21SAPC  H14X 2814   6.241   1.980   8.746 -0.4549 -3.9284  1.8361
   21SAPC  H14Y 2815   6.123   2.098   8.753  0.4898  0.4160 -0.4752
   21SAPC  C315 2816   6.039   1.896   8.732 -0.0632  0.7308 -0.1813
   21SAPC  H15X 2817   6.016   1.932   8.630  0.0630  0.8708 -0.1612
   21SAPC  H15Y 2818   5.939   1.911   8.778 -0.3498 -0.1099 -0.5229
   21SAPC  C316 2819   6.086   1.748   8.719 -0.0623 -0.6112 -0.6553
   21SAPC  H16X 2820   5.993   1.689   8.712 -1.2475  0.7100  2.4400
   21SAPC  H16Y 2821   6.138   1.724   8.814  1.5308 -1.1007 -1.6083
   21SAPC  C317 2822   6.180   1.712   8.604  0.2669 -0.0738  0.3544
   21SAPC  H17X 2823   6.276   1.762   8.625 -0.3381  0.8267  1.0532
   21SAPC  H17Y 2824   6.142   1.765   8.514  0.0816 -0.0370  0.4544
   21SAPC  C318 2825   6.188   1.560   8.575 -0.0661 -0.2712  0.3722
   21SAPC  H18X 2826   6.089   1.524   8.537 -0.3796 -0.4982  1.3765
   21SAPC  H18Y 2827   6.208   1.499   8.666 -0.1031  0.0828  0.6184
   21SAPC  H18Z 2828   6.269   1.539   8.501 -2.7990 -0.6282 -2.7880
   22SAPC     N 2829   0.332   0.476  10.740  0.1834  0.1692  0.5721
   22SAPC   C12 2830   0.267   0.583  10.820 -0.1810 -1.2471 -0.7081
   22SAPC  H12A 2831   0.297   0.679  10.780 -0.3195 -1.1034 -0.4690
   22SAPC  H12B 2832   0.314   0.595  10.916  1.2617  0.5907 -1.5771
   22SAPC   C13 2833   0.464   0.509  10.686 -0.1315 -0.5296 -0.7888
   22SAPC  H13A 2834   0.527   0.560  10.756  0.7986 -0.1489 -1.8840
   22SAPC  H13B 2835   0.514   0.415  10.665 -1.6905 -1.0781 -2.3060
   22SAPC  H13C 2836   0.448   0.573  10.600 -3.8067  2.5089  1.8239
   22SAPC   C14 2837   0.355   0.357  10.825  0.1399 -0.0748  0.6372
   22SAPC  H14A 2838   0.445   0.383  10.878  1.3684  0.7409 -1.7017
   22SAPC  H14B 2839   0.280   0.335  10.900 -1.7023  1.4122 -0.6906
   22SAPC  H14C 2840   0.373   0.261  10.781 -2.3719 -1.6925  2.8218
   22SAPC   C15 2841   0.245   0.445  10.625 -0.5019 -0.5765  0.6363
   22SAPC  H15A 2842   0.230   0.530  10.560  1.1718 -1.3450 -0.8457
   22SAPC  H15B 2843   0.293   0.370  10.564 -2.1686 -0.9900 -0.2330
   22SAPC  H15C 2844   0.147   0.417  10.662 -0.7545  0.7377  1.0143
   22SAPC   C11 2845   0.108   0.578  10.839 -0.6667 -0.6804  0.2741
   22SAPC  H11A 2846   0.082   0.635  10.931  1.2480  0.4109  0.1904
   22SAPC  H11B 2847   0.083   0.471  10.858 -0.8246 -0.4803  1.2763
   22SAPC     P 2848   0.065   0.760  10.659  0.3437 -0.2321 -0.0979
   22SAPC   O13 2849   0.076   0.857  10.772 -0.0420  0.9415 -0.1392
   22SAPC   O14 2850   0.188   0.764  10.572  0.4783  0.4377  0.3032
   22SAPC   O12 2851   0.034   0.619  10.721 -0.0677  0.4069 -0.2297
   22SAPC   O11 2852  -0.057   0.788  10.572 -0.0670 -0.5256  0.2122
   22SAPC    C1 2853  -0.134   0.678  10.512  0.0029  0.7375 -0.4601
   22SAPC    HA 2854  -0.203   0.624  10.581 -0.3387  0.5986 -0.9055
   22SAPC    HB 2855  -0.214   0.721  10.449 -0.5535 -0.9877 -0.9865
   22SAPC    C2 2856  -0.054   0.568  10.430  0.9616 -0.3361  0.0383
   22SAPC    HS 2857   0.024   0.532  10.499  2.1996 -1.6643 -1.9446
   22SAPC   O21 2858   0.004   0.639  10.317 -0.2219  0.2058  0.3045
   22SAPC   C21 2859   0.097   0.574  10.256 -0.4384  0.7640  0.4702
   22SAPC   O22 2860   0.149   0.469  10.290 -0.0812 -0.4678 -0.1483
   22SAPC   C22 2861   0.131   0.637  10.120 -0.0650 -0.1284  0.3808
   22SAPC   H2R 2862   0.189   0.728  10.144 -1.6839  1.5684 -1.7846
   22SAPC   H2S 2863   0.206   0.565  10.081  1.9958  2.7763 -1.3867
   22SAPC    C3 2864  -0.142   0.449  10.377 -0.6388 -0.2085 -0.3015
   22SAPC    HX 2865  -0.185   0.392  10.462 -1.3161  0.1938 -0.3656
   22SAPC    HY 2866  -0.067   0.383  10.328  0.9936  2.3821 -1.4793
   22SAPC   O31 2867  -0.244   0.482  10.287 -0.4398 -0.4167 -0.0816
   22SAPC   C31 2868  -0.369   0.502  10.317 -0.0093 -0.1121 -0.3753
   22SAPC   O32 2869  -0.415   0.481  10.428 -1.0879 -0.1148 -0.1000
   22SAPC   C32 2870  -0.444   0.556  10.192  0.1796  0.1355 -0.0267
   22SAPC   H2X 2871  -0.550   0.524  10.195  0.6787 -1.7547  3.8973
   22SAPC   H2Y 2872  -0.404   0.501  10.104 -2.3261 -0.9340 -0.5975
   22SAPC   C23 2873   0.010   0.672  10.034  0.4743  0.7169  0.6142
   22SAPC   H3R 2874   0.058   0.729   9.951  1.6069  0.1893  0.8806
   22SAPC   H3S 2875  -0.062   0.742  10.081  0.5704 -0.1610  2.1246
   22SAPC   C24 2876  -0.063   0.551   9.977 -0.0514  0.4817 -0.0626
   22SAPC   H4R 2877  -0.141   0.595   9.912  0.3709  0.8175 -0.3490
   22SAPC   H4S 2878  -0.112   0.497  10.061 -0.1915  1.4790  0.5148
   22SAPC   C25 2879   0.029   0.459   9.904 -0.4995  0.3881 -1.3061
   22SAPC   H5R 2880   0.092   0.399   9.970 -0.5431 -0.6194 -2.1640
   22SAPC   C26 2881   0.040   0.428   9.777  0.6448 -0.4847  0.5822
   22SAPC   H6R 2882   0.119   0.362   9.739  1.7103  1.6921 -1.2514
   22SAPC   C27 2883  -0.048   0.496   9.669 -0.3407  0.1617 -0.7070
   22SAPC   H7R 2884  -0.022   0.604   9.670 -0.7544  0.2856  1.2004
   22SAPC   H7S 2885  -0.156   0.481   9.688 -0.3208 -0.4477 -1.0469
   22SAPC   C28 2886  -0.002   0.451   9.530  0.7323  0.7398  0.1802
   22SAPC   H8R 2887   0.047   0.353   9.540 -1.1415 -0.0766  1.9494
   22SAPC   C29 2888  -0.012   0.516   9.416 -0.2022 -0.6406 -0.2046
   22SAPC   H9R 2889   0.026   0.468   9.324 -1.9245 -1.2800 -0.6297
   22SAPC  C210 2890  -0.068   0.656   9.397  0.9332  0.1348 -0.6800
   22SAPC  H10R 2891   0.017   0.728   9.401  0.4004  0.7948 -0.9687
   22SAPC  H10S 2892  -0.135   0.687   9.480  2.8899 -0.9600  1.3933
   22SAPC  C211 2893  -0.146   0.665   9.264 -0.4671  0.2660 -0.2310
   22SAPC  H11R 2894  -0.255   0.644   9.265 -0.0132 -2.6252 -1.1698
   22SAPC  C212 2895  -0.094   0.718   9.151  0.2293 -0.1488 -0.0941
   22SAPC  H12R 2896  -0.156   0.718   9.060  0.3402  3.2004 -0.3123
   22SAPC  C213 2897   0.051   0.754   9.119  0.0348 -0.3272 -0.0339
   22SAPC  H13R 2898   0.117   0.767   9.208 -1.9025  1.7487  1.1976
   22SAPC  H13S 2899   0.060   0.853   9.069  1.6771  1.1132  2.8616
   22SAPC  C214 2900   0.128   0.650   9.040 -0.1896  0.2879  0.4842
   22SAPC  H14R 2901   0.178   0.577   9.106 -1.2945 -0.3494  0.6425
   22SAPC  C215 2902   0.133   0.635   8.902 -0.9674 -0.5260 -0.7534
   22SAPC  H15R 2903   0.195   0.562   8.847 -1.5769  1.2855 -4.1290
   22SAPC  C216 2904   0.061   0.728   8.807 -0.1181  0.0783 -0.7973
   22SAPC  H16R 2905   0.029   0.821   8.858  1.7935 -0.0731  0.8010
   22SAPC  H16S 2906  -0.028   0.675   8.767 -0.5017  0.5401 -0.5514
   22SAPC  C217 2907   0.147   0.782   8.692 -0.5844 -0.3940 -0.3555
   22SAPC  H17R 2908   0.247   0.811   8.730 -1.3958  0.7102  1.0651
   22SAPC  H17S 2909   0.095   0.875   8.658 -0.6259 -0.1531  0.3527
   22SAPC  C218 2910   0.168   0.679   8.580  0.0351 -0.6941 -0.2672
   22SAPC  H18R 2911   0.068   0.641   8.553 -0.6108  1.4459 -1.0743
   22SAPC  H18S 2912   0.221   0.598   8.636 -0.4127  0.0628  1.3257
   22SAPC  C219 2913   0.241   0.746   8.463 -0.6983  0.2824  0.0332
   22SAPC  H19R 2914   0.196   0.843   8.432 -0.5244  0.2239 -0.4201
   22SAPC  H19S 2915   0.234   0.671   8.380 -0.0333 -1.6590  1.6429
   22SAPC  C220 2916   0.392   0.777   8.487 -0.3216 -0.0686 -0.0976
   22SAPC  H20R 2917   0.434   0.742   8.584  0.1562  2.0631  0.5056
   22SAPC  H20S 2918   0.412   0.886   8.489 -2.2948  0.4333  4.0272
   22SAPC  H20T 2919   0.459   0.747   8.404 -0.0940  2.4402 -0.8889
   22SAPC   C33 2920  -0.447   0.710  10.189  0.3621 -0.0986  0.2596
   22SAPC   H3X 2921  -0.348   0.758  10.209 -0.1305  1.5502 -1.0236
   22SAPC   H3Y 2922  -0.525   0.739  10.261 -0.2813  2.2461 -1.2665
   22SAPC   C34 2923  -0.500   0.764  10.057  1.0082  0.1312  0.3787
   22SAPC   H4X 2924  -0.519   0.874  10.054  1.4215  0.1930 -2.3363
   22SAPC   H4Y 2925  -0.592   0.708  10.031  0.9062 -0.0776  1.1609
   22SAPC   C35 2926  -0.403   0.735   9.945 -0.7922  0.4918  0.7935
   22SAPC   H5X 2927  -0.349   0.641   9.969 -1.2501 -0.4295 -1.5020
   22SAPC   H5Y 2928  -0.319   0.807   9.940 -1.1712  0.8995  0.2027
   22SAPC   C36 2929  -0.463   0.727   9.799  0.0703 -0.5049 -0.2048
   22SAPC   H6X 2930  -0.478   0.836   9.780 -0.0494 -0.5729 -0.5162
   22SAPC   H6Y 2931  -0.556   0.669   9.819 -0.3669  0.4332  0.5516
   22SAPC   C37 2932  -0.365   0.665   9.701  0.0400 -0.5119  0.1063
   22SAPC   H7X 2933  -0.328   0.571   9.747 -2.7106 -0.9588  1.6364
   22SAPC   H7Y 2934  -0.287   0.743   9.692 -0.2580 -0.3268 -0.9778
   22SAPC   C38 2935  -0.433   0.624   9.571 -0.0957 -0.1015  0.0937
   22SAPC   H8X 2936  -0.473   0.524   9.596  0.3724  0.2069  2.2945
   22SAPC   H8Y 2937  -0.353   0.613   9.494  1.0926 -0.3372  1.3105
   22SAPC   C39 2938  -0.544   0.723   9.515 -0.1689  0.1820  0.3859
   22SAPC   H9X 2939  -0.496   0.823   9.508 -0.8047  0.8781  3.7774
   22SAPC   H9Y 2940  -0.625   0.723   9.591 -0.8837  0.2848 -0.3632
   22SAPC  C310 2941  -0.618   0.682   9.391  0.1298 -0.1470 -0.0148
   22SAPC  H10X 2942  -0.676   0.774   9.369  3.1817  1.6291 -1.1446
   22SAPC  H10Y 2943  -0.683   0.591   9.397  0.5653 -0.4611 -0.0384
   22SAPC  C311 2944  -0.520   0.683   9.269  0.8886  0.2024  0.4586
   22SAPC  H11X 2945  -0.438   0.610   9.286  3.4258  2.4474 -1.2285
   22SAPC  H11Y 2946  -0.469   0.782   9.274  2.9462 -0.8213  0.6360
   22SAPC  C312 2947  -0.602   0.666   9.133 -0.1960 -0.2518  0.0369
   22SAPC  H12X 2948  -0.685   0.738   9.117  0.0057  0.2460  1.1141
   22SAPC  H12Y 2949  -0.653   0.569   9.153 -3.5046  0.9992 -1.6339
   22SAPC  C313 2950  -0.504   0.668   9.016 -0.1546  0.1169 -0.2250
   22SAPC  H13X 2951  -0.402   0.636   9.043 -0.1867 -0.0198 -0.2640
   22SAPC  H13Y 2952  -0.485   0.768   8.971  0.1061  0.6144  0.9517
   22SAPC  C314 2953  -0.533   0.570   8.901 -0.0918 -0.6167 -0.5376
   22SAPC  H14X 2954  -0.535   0.472   8.953  2.4812 -1.1762 -1.3627
   22SAPC  H14Y 2955  -0.452   0.557   8.826 -0.1813 -0.4937 -0.6553
   22SAPC  C315 2956  -0.667   0.597   8.828 -0.9438  0.5406  0.5844
   22SAPC  H15X 2957  -0.659   0.701   8.790  0.1916  0.3615  0.3009
   22SAPC  H15Y 2958  -0.751   0.593   8.901  0.4197 -2.2489  2.1777
   22SAPC  C316 2959  -0.691   0.501   8.715 -0.0985  0.2463  0.2254
   22SAPC  H16X 2960  -0.700   0.399   8.757  0.7316 -0.1706 -0.5884
   22SAPC  H16Y 2961  -0.605   0.489   8.645  0.7373 -0.8033  1.4100
   22SAPC  C317 2962  -0.811   0.536   8.625  0.3270  0.1685 -0.3673
   22SAPC  H17X 2963  -0.899   0.540   8.693  0.0099  0.6174 -0.7961
   22SAPC  H17Y 2964  -0.822   0.461   8.545 -2.2092 -0.7699  0.7719
   22SAPC  C318 2965  -0.786   0.667   8.553 -0.3346 -0.0895 -0.1254
   22SAPC  H18X 2966  -0.764   0.749   8.625 -1.6183  0.4751 -0.3319
   22SAPC  H18Y 2967  -0.878   0.702   8.499 -0.1749  1.7439  0.7091
   22SAPC  H18Z 2968  -0.706   0.649   8.479  0.5695 -1.1358  1.0726
   23SAPC     N 2969   3.920   2.572  11.118  0.3691  0.3675 -0.4662
   23SAPC   C12 2970   4.044   2.491  11.126 -0.2582  0.3255  0.2060
   23SAPC  H12A 2971   4.127   2.543  11.169  1.2638 -0.1195 -2.0071
   23SAPC  H12B 2972   4.083   2.465  11.028 -2.5652 -2.4373 -0.1267
   23SAPC   C13 2973   3.805   2.490  11.065 -0.7175 -0.1322  0.0385
   23SAPC  H13A 2974   3.837   2.456  10.968 -0.0131  1.4025 -0.3116
   23SAPC  H13B 2975   3.783   2.405  11.128  0.4827  0.3534  1.1817
   23SAPC  H13C 2976   3.720   2.551  11.038  0.3986  1.5220  0.0759
   23SAPC   C14 2977   3.868   2.610  11.254  0.3002 -0.0332 -0.2955
   23SAPC  H14A 2978   3.917   2.703  11.280  0.0083  0.2388 -0.7026
   23SAPC  H14B 2979   3.761   2.626  11.252 -0.3807 -3.6748  0.2249
   23SAPC  H14C 2980   3.872   2.532  11.329  2.1529 -0.5422 -0.8768
   23SAPC   C15 2981   3.943   2.703  11.051  0.8732 -0.5288  0.4873
   23SAPC  H15A 2982   4.038   2.747  11.076 -0.1045  0.5810  2.5612
   23SAPC  H15B 2983   3.949   2.698  10.943  1.6537  3.0423  0.2352
   23SAPC  H15C 2984   3.864   2.771  11.081 -0.0024 -1.0886 -0.4817
   23SAPC   C11 2985   4.028   2.351  11.178  0.0116 -0.1008 -1.0575
   23SAPC  H11A 2986   3.955   2.353  11.261 -2.8524  1.3776 -3.4143
   23SAPC  H11B 2987   4.127   2.311  11.209 -0.0803 -0.1526 -0.8336
   23SAPC     P 2988   4.049   2.202  10.964  0.2458  0.4012 -0.7385
   23SAPC   O13 2989   4.154   2.116  11.027  0.2053  0.6725  0.2978
   23SAPC   O14 2990   3.954   2.140  10.874  0.0294  0.0275  0.1608
   23SAPC   O12 2991   3.965   2.265  11.081  0.0435 -0.0303 -0.1697
   23SAPC   O11 2992   4.111   2.331  10.901 -0.1565  0.2927  0.0087
   23SAPC    C1 2993   4.060   2.365  10.770  0.2683  0.3517 -0.1723
   23SAPC    HA 2994   3.950   2.351  10.766  0.0887  0.7080  2.0108
   23SAPC    HB 2995   4.072   2.475  10.758  0.0625  0.3694 -0.2208
   23SAPC    C2 2996   4.134   2.294  10.651  0.3519  0.4537  0.8403
   23SAPC    HS 2997   4.182   2.196  10.674 -0.6933 -0.1992  0.3411
   23SAPC   O21 2998   4.223   2.392  10.608 -0.1812 -0.2578  0.2141
   23SAPC   C21 2999   4.342   2.366  10.549 -0.0982  1.0983 -0.5526
   23SAPC   O22 3000   4.409   2.263  10.570 -0.0142  0.0719 -0.3743
   23SAPC   C22 3001   4.390   2.484  10.462  0.3101 -0.0921 -0.1204
   23SAPC   H2R 3002   4.303   2.553  10.458 -0.4809 -1.0186  0.3944
   23SAPC   H2S 3003   4.469   2.534  10.522  0.3233  0.2754 -0.4419
   23SAPC    C3 3004   4.028   2.263  10.543 -0.7636  0.1230  0.1701
   23SAPC    HX 3005   3.966   2.353  10.523  1.1691  1.5223  0.1608
   23SAPC    HY 3006   3.961   2.195  10.600 -0.4636 -1.4276 -1.2401
   23SAPC   O31 3007   4.082   2.191  10.424 -0.0758  0.0199 -0.2258
   23SAPC   C31 3008   4.105   2.270  10.318  1.1299  0.0602  0.1191
   23SAPC   O32 3009   4.104   2.391  10.314  0.1409 -0.2944 -0.2157
   23SAPC   C32 3010   4.138   2.182  10.197 -0.2259 -0.0732 -0.2655
   23SAPC   H2X 3011   4.049   2.121  10.169 -1.0179  0.1723  1.5864
   23SAPC   H2Y 3012   4.210   2.103  10.225 -2.7901 -2.7423 -0.7616
   23SAPC   C23 3013   4.451   2.440  10.331  0.9417  0.0315  0.3217
   23SAPC   H3R 3014   4.370   2.398  10.267 -1.1270  2.4293  1.2025
   23SAPC   H3S 3015   4.534   2.367  10.345  0.6833 -0.1740  0.7813
   23SAPC   C24 3016   4.502   2.564  10.257 -0.2930 -0.0844  0.5776
   23SAPC   H4R 3017   4.565   2.537  10.170 -0.1886  0.7759  0.3823
   23SAPC   H4S 3018   4.577   2.607  10.327  0.1371  0.1475 -0.0277
   23SAPC   C25 3019   4.407   2.670  10.214 -0.5288  1.1654 -0.3961
   23SAPC   H5R 3020   4.400   2.752  10.287 -0.1134  1.7964 -1.0480
   23SAPC   C26 3021   4.358   2.702  10.099  0.0721 -0.0302  0.2565
   23SAPC   H6R 3022   4.280   2.779  10.091 -1.8509 -1.6364  2.3010
   23SAPC   C27 3023   4.371   2.622   9.971  0.5451  0.5535  0.0940
   23SAPC   H7R 3024   4.280   2.643   9.911  0.1276 -0.1529  0.4651
   23SAPC   H7S 3025   4.368   2.516  10.003 -0.6053  1.7350  4.5442
   23SAPC   C28 3026   4.493   2.665   9.895  0.0229 -0.1684 -0.4984
   23SAPC   H8R 3027   4.583   2.646   9.955 -1.5732 -0.8835  1.8123
   23SAPC   C29 3028   4.497   2.692   9.762 -0.2493 -0.6301  0.4308
   23SAPC   H9R 3029   4.594   2.719   9.718  0.6650 -5.1255 -0.8126
   23SAPC  C210 3030   4.392   2.696   9.654  0.0404 -0.7592 -0.1427
   23SAPC  H10R 3031   4.419   2.780   9.587  2.9795 -0.0217  1.8061
   23SAPC  H10S 3032   4.292   2.727   9.692 -0.8263 -0.9009 -2.1298
   23SAPC  C211 3033   4.383   2.566   9.574  0.4366 -0.1302 -0.9722
   23SAPC  H11R 3034   4.395   2.476   9.636 -2.0097  0.5337  0.5949
   23SAPC  C212 3035   4.367   2.550   9.443 -0.2850 -0.0389  0.1518
   23SAPC  H12R 3036   4.372   2.450   9.399 -0.3420 -0.3692  0.8882
   23SAPC  C213 3037   4.346   2.669   9.343  0.4887 -1.1368 -0.0038
   23SAPC  H13R 3038   4.437   2.699   9.288 -0.2079  0.0000 -0.5903
   23SAPC  H13S 3039   4.325   2.765   9.396  0.3269  0.1925 -2.3306
   23SAPC  C214 3040   4.240   2.642   9.250  0.2616 -0.0797  0.2319
   23SAPC  H14R 3041   4.156   2.597   9.305  0.7301 -2.9432 -1.1866
   23SAPC  C215 3042   4.224   2.678   9.121 -0.3283 -0.7180 -0.3539
   23SAPC  H15R 3043   4.128   2.648   9.076 -0.4579 -3.6588  1.5396
   23SAPC  C216 3044   4.330   2.747   9.025  0.3958  0.5344  0.2439
   23SAPC  H16R 3045   4.433   2.743   9.066  0.1078 -0.2234  0.9082
   23SAPC  H16S 3046   4.294   2.851   9.010 -1.0628 -0.1201 -1.0103
   23SAPC  C217 3047   4.339   2.678   8.884 -1.0529 -0.0985  0.6190
   23SAPC  H17R 3048   4.253   2.711   8.822  0.7457  1.4457 -1.1921
   23SAPC  H17S 3049   4.338   2.568   8.900  2.7022 -0.3647 -0.2566
   23SAPC  C218 3050   4.463   2.715   8.812 -0.5274 -0.8757  0.1932
   23SAPC  H18R 3051   4.549   2.707   8.882  1.9605 -1.0962 -2.6892
   23SAPC  H18S 3052   4.469   2.818   8.771  1.2486 -0.6944  0.8329
   23SAPC  C219 3053   4.488   2.626   8.689  0.0452 -0.5384  0.1550
   23SAPC  H19R 3054   4.399   2.646   8.626  1.2031 -2.4102 -2.2173
   23SAPC  H19S 3055   4.489   2.521   8.726  2.1311  0.1368  2.2932
   23SAPC  C220 3056   4.610   2.665   8.606  0.9006  0.7083 -0.2088
   23SAPC  H20R 3057   4.703   2.638   8.662 -0.5165  0.2270  2.0555
   23SAPC  H20S 3058   4.610   2.775   8.595  1.5557  0.6090 -1.3638
   23SAPC  H20T 3059   4.602   2.607   8.512 -1.2919 -0.2893  0.5334
   23SAPC   C33 3060   4.199   2.258  10.072 -0.0302  0.4193 -0.2770
   23SAPC   H3X 3061   4.310   2.261  10.085  0.1742 -1.7441 -1.1156
   23SAPC   H3Y 3062   4.145   2.354  10.062  0.1423  0.6620  0.9071
   23SAPC   C34 3063   4.158   2.187   9.944  0.2219 -0.0325  0.5147
   23SAPC   H4X 3064   4.048   2.170   9.947  0.5550 -2.3742  1.9860
   23SAPC   H4Y 3065   4.199   2.084   9.945 -0.8171 -0.5284  3.4710
   23SAPC   C35 3066   4.181   2.269   9.813 -0.1601  0.7009 -0.2960
   23SAPC   H5X 3067   4.289   2.294   9.801  0.7334 -2.7015 -0.6106
   23SAPC   H5Y 3068   4.120   2.360   9.832 -1.4535 -0.0836 -0.5443
   23SAPC   C36 3069   4.137   2.209   9.686 -0.0509  0.4855 -0.2255
   23SAPC   H6X 3070   4.030   2.181   9.686  0.5574 -2.0309  0.0509
   23SAPC   H6Y 3071   4.197   2.118   9.669  2.1728  1.7058  0.5886
   23SAPC   C37 3072   4.152   2.290   9.556 -0.8833 -0.2392 -0.7154
   23SAPC   H7X 3073   4.260   2.289   9.529 -0.3448  0.9884  1.1700
   23SAPC   H7Y 3074   4.126   2.395   9.584 -0.4403 -1.0901  3.4958
   23SAPC   C38 3075   4.074   2.216   9.454 -0.3009 -0.9552  0.0913
   23SAPC   H8X 3076   3.969   2.217   9.490  0.4558 -1.0340  2.4382
   23SAPC   H8Y 3077   4.112   2.111   9.452  1.3122 -0.4356  1.3437
   23SAPC   C39 3078   4.071   2.280   9.309 -0.2173 -0.1134 -0.5663
   23SAPC   H9X 3079   4.067   2.391   9.315  1.3761 -0.0753  0.5538
   23SAPC   H9Y 3080   3.975   2.244   9.266 -0.0779  1.2126 -2.0764
   23SAPC  C310 3081   4.182   2.229   9.219  0.2719 -0.0263 -0.5706
   23SAPC  H10X 3082   4.171   2.121   9.195  2.1092 -0.1728 -0.9148
   23SAPC  H10Y 3083   4.274   2.245   9.280 -0.7974  1.5409  0.7025
   23SAPC  C311 3084   4.202   2.294   9.082  0.0185 -0.9090  0.6948
   23SAPC  H11X 3085   4.261   2.388   9.091 -2.0330  0.3964  1.0760
   23SAPC  H11Y 3086   4.101   2.324   9.048 -1.4599 -1.5520  4.1073
   23SAPC  C312 3087   4.240   2.201   8.962  0.4927  0.1082  0.0066
   23SAPC  H12X 3088   4.172   2.118   8.990 -0.8482  1.2586  0.3062
   23SAPC  H12Y 3089   4.346   2.173   8.979  0.3022  0.5186  2.0564
   23SAPC  C313 3090   4.195   2.260   8.825  0.4199  0.0999  0.1877
   23SAPC  H13X 3091   4.261   2.345   8.795 -0.2742 -0.4545 -3.3201
   23SAPC  H13Y 3092   4.092   2.302   8.837  0.1560 -0.9490  2.0468
   23SAPC  C314 3093   4.195   2.157   8.715  0.2098 -0.6181 -0.0207
   23SAPC  H14X 3094   4.140   2.193   8.626 -1.2551 -0.8053  0.7886
   23SAPC  H14Y 3095   4.143   2.064   8.747  0.0444 -0.6032 -0.2447
   23SAPC  C315 3096   4.333   2.099   8.688 -0.5093 -0.6593 -0.8360
   23SAPC  H15X 3097   4.372   2.067   8.787  0.1709  2.4779  0.0345
   23SAPC  H15Y 3098   4.397   2.182   8.652  3.0605 -1.6261  2.6255
   23SAPC  C316 3099   4.334   1.981   8.592  0.6672 -0.1885 -0.6651
   23SAPC  H16X 3100   4.282   2.007   8.498 -1.4540 -0.5525  0.3497
   23SAPC  H16Y 3101   4.285   1.900   8.649  0.9441  0.8444  1.1183
   23SAPC  C317 3102   4.480   1.931   8.567  0.1100 -0.2307 -0.2317
   23SAPC  H17X 3103   4.539   1.952   8.658 -0.9605 -0.5972  0.5660
   23SAPC  H17Y 3104   4.526   1.993   8.487  1.2464 -0.4226  0.2584
   23SAPC  C318 3105   4.505   1.784   8.533  0.4420  0.4561 -0.2197
   23SAPC  H18X 3106   4.447   1.744   8.447  0.7652  0.7473 -0.5735
   23SAPC  H18Y 3107   4.468   1.727   8.621 -3.5316 -2.1478 -3.2404
   23SAPC  H18Z 3108   4.614   1.775   8.514  0.3533 -0.7204 -0.2860
   24SAPC     N 3109   2.544   3.737  10.984  0.4180 -0.3065 -0.1185
   24SAPC   C12 3110   2.511   3.600  11.041 -0.1524  0.1730  0.6181
   24SAPC  H12A 3111   2.464   3.554  10.956 -0.8647  1.7906  0.0890
   24SAPC  H12B 3112   2.430   3.607  11.112 -0.8633  0.9726 -0.2396
   24SAPC   C13 3113   2.658   3.724  10.886 -0.4168 -0.2051  0.3403
   24SAPC  H13A 3114   2.625   3.672  10.798  1.4984  0.7466 -1.0209
   24SAPC  H13B 3115   2.698   3.823  10.868  0.5986 -0.3302  1.6828
   24SAPC  H13C 3116   2.745   3.674  10.926 -0.6437 -0.6272  0.3093
   24SAPC   C14 3117   2.438   3.811  10.903  0.1842  0.5872 -0.2789
   24SAPC  H14A 3118   2.477   3.903  10.862 -0.3831  1.3140  0.7509
   24SAPC  H14B 3119   2.405   3.750  10.820  2.3237  0.8165 -1.3638
   24SAPC  H14C 3120   2.356   3.852  10.961  0.6536  2.1603 -0.6808
   24SAPC   C15 3121   2.587   3.826  11.100 -0.6391  0.0715 -0.3728
   24SAPC  H15A 3122   2.670   3.776  11.147 -0.2276  0.6193 -0.5141
   24SAPC  H15B 3123   2.616   3.927  11.076 -1.7388  0.1047 -1.6814
   24SAPC  H15C 3124   2.504   3.826  11.169 -1.1395 -1.1449 -0.9349
   24SAPC   C11 3125   2.630   3.510  11.104  0.0988 -0.4217  0.0537
   24SAPC  H11A 3126   2.568   3.419  11.123  1.5653 -1.5759 -0.4924
   24SAPC  H11B 3127   2.651   3.557  11.202 -0.9687  1.9731 -0.7912
   24SAPC     P 3128   2.771   3.353  10.956  0.1010 -0.2682 -0.1055
   24SAPC   O13 3129   2.888   3.286  11.016  0.0832  0.1381  0.0072
   24SAPC   O14 3130   2.640   3.276  10.948 -0.2876 -0.4495  0.2291
   24SAPC   O12 3131   2.749   3.492  11.024 -0.5674 -0.2070 -0.2986
   24SAPC   O11 3132   2.814   3.377  10.804 -0.3681 -0.1110 -0.4142
   24SAPC    C1 3133   2.887   3.479  10.739  0.5627 -0.6104 -0.2014
   24SAPC    HA 3134   2.818   3.547  10.686 -0.5593  0.0446  1.9757
   24SAPC    HB 3135   2.932   3.546  10.815 -0.6958  1.2190 -1.0063
   24SAPC    C2 3136   3.018   3.444  10.659  1.0751  0.0910 -0.3445
   24SAPC    HS 3137   3.066   3.540  10.633  0.8790  1.0003  2.3131
   24SAPC   O21 3138   2.976   3.362  10.547 -0.3831  0.2517 -0.2406
   24SAPC   C21 3139   2.922   3.411  10.446 -0.4032 -0.5914  0.1390
   24SAPC   O22 3140   2.897   3.530  10.422  0.3320  0.2295  0.1564
   24SAPC   C22 3141   2.888   3.305  10.336 -0.2064 -0.3886 -0.1335
   24SAPC   H2R 3142   2.906   3.208  10.387  2.1544  0.2902  0.4276
   24SAPC   H2S 3143   2.782   3.326  10.309 -0.0682  0.3547 -0.1090
   24SAPC    C3 3144   3.120   3.362  10.747  0.7779 -0.2027  0.6369
   24SAPC    HX 3145   3.060   3.278  10.787 -0.0236  1.0370  2.1546
   24SAPC    HY 3146   3.147   3.427  10.833  1.9706 -0.4230  0.4442
   24SAPC   O31 3147   3.238   3.330  10.670 -0.4610  0.1219  0.4694
   24SAPC   C31 3148   3.255   3.206  10.635  0.2879 -0.3015 -0.9874
   24SAPC   O32 3149   3.184   3.111  10.656  0.2054  0.2572 -0.4033
   24SAPC   C32 3150   3.395   3.189  10.581  0.1054  0.2304 -0.2656
   24SAPC   H2X 3151   3.465   3.153  10.659  0.8678 -0.1430 -1.0977
   24SAPC   H2Y 3152   3.446   3.284  10.552 -1.8418  2.2378  2.4237
   24SAPC   C23 3153   2.980   3.316  10.212  0.0775  1.1272  0.0829
   24SAPC   H3R 3154   3.040   3.407  10.231  2.6856 -0.8188  1.8800
   24SAPC   H3S 3155   2.919   3.335  10.121 -2.7554  1.2826  1.8836
   24SAPC   C24 3156   3.084   3.197  10.194 -0.0941  0.1538 -0.3849
   24SAPC   H4R 3157   3.133   3.184  10.293 -0.2548  2.4264  0.0534
   24SAPC   H4S 3158   3.155   3.228  10.115  0.2479 -3.8882 -1.8819
   24SAPC   C25 3159   3.020   3.066  10.173  0.3591 -0.0845 -0.2532
   24SAPC   H5R 3160   2.984   3.014  10.263 -0.6551  1.9020  0.5581
   24SAPC   C26 3161   3.015   3.011  10.053 -0.6799  0.7045 -0.2254
   24SAPC   H6R 3162   2.958   2.918  10.038 -2.5122  1.9808 -1.4095
   24SAPC   C27 3163   3.060   3.071   9.920 -0.1097 -0.1607 -0.2512
   24SAPC   H7R 3164   3.148   3.014   9.884  1.3416  1.0192  1.2397
   24SAPC   H7S 3165   3.109   3.170   9.937  0.8603 -0.4690 -1.1701
   24SAPC   C28 3166   2.955   3.083   9.822  0.2171  0.3937  0.5190
   24SAPC   H8R 3167   2.858   3.120   9.860 -1.3584 -0.7249 -2.0998
   24SAPC   C29 3168   2.963   3.062   9.688  0.1285 -0.4808 -0.5263
   24SAPC   H9R 3169   2.872   3.064   9.627 -1.0664 -1.1487  1.1586
   24SAPC  C210 3170   3.085   3.019   9.612  0.2570 -0.6056  0.5708
   24SAPC  H10R 3171   3.079   2.909   9.598  1.7570 -0.6230 -0.1383
   24SAPC  H10S 3172   3.175   3.044   9.672 -0.5115  1.3992  0.9677
   24SAPC  C211 3173   3.103   3.076   9.472 -0.2806  0.1002  0.3302
   24SAPC  H11R 3174   3.172   3.161   9.482 -0.3041  0.1030  0.4679
   24SAPC  C212 3175   3.061   3.045   9.350  0.0532 -0.1812 -0.3672
   24SAPC  H12R 3176   3.083   3.113   9.266 -1.2114  1.7824  0.8229
   24SAPC  C213 3177   2.970   2.930   9.319  0.5281 -0.0992 -0.2281
   24SAPC  H13R 3178   2.897   2.957   9.240  1.4935 -1.8458 -1.7996
   24SAPC  H13S 3179   2.899   2.898   9.399  1.6566 -3.4482 -0.4059
   24SAPC  C214 3180   3.045   2.808   9.272 -0.2457  0.8117  0.3189
   24SAPC  H14R 3181   3.132   2.772   9.330 -0.3931 -3.2736 -1.6530
   24SAPC  C215 3182   3.009   2.722   9.171  0.1110  1.2634  0.3161
   24SAPC  H15R 3183   3.062   2.627   9.156 -1.7480 -0.2080  2.4459
   24SAPC  C216 3184   2.887   2.751   9.083  0.9011  0.0090 -0.1741
   24SAPC  H16R 3185   2.814   2.816   9.133 -0.1845 -1.8042  0.7134
   24SAPC  H16S 3186   2.832   2.655   9.068 -0.5379  0.6843  0.6787
   24SAPC  C217 3187   2.919   2.782   8.934 -1.2672 -0.7817 -0.1290
   24SAPC  H17R 3188   2.980   2.875   8.935  0.0886 -1.6577  0.0631
   24SAPC  H17S 3189   2.824   2.802   8.878 -2.6753 -0.1664  2.3159
   24SAPC  C218 3190   2.985   2.677   8.848  0.7709 -0.0268 -0.3515
   24SAPC  H18R 3191   2.917   2.590   8.844 -1.5520  1.6760  0.1910
   24SAPC  H18S 3192   3.079   2.645   8.898  1.8007  2.7756 -0.2769
   24SAPC  C219 3193   3.004   2.701   8.695  0.2120  0.1344 -0.2288
   24SAPC  H19R 3194   3.066   2.793   8.685 -0.4382  0.6085  0.0578
   24SAPC  H19S 3195   2.906   2.690   8.643 -1.0170 -1.8677  2.2514
   24SAPC  C220 3196   3.090   2.594   8.621 -0.0343 -0.1428 -0.0155
   24SAPC  H20R 3197   3.044   2.498   8.653 -0.3263  0.1252  0.3818
   24SAPC  H20S 3198   3.197   2.606   8.646  0.1428 -0.9254 -0.3595
   24SAPC  H20T 3199   3.073   2.612   8.512  0.3419  1.5152  0.1769
   24SAPC   C33 3200   3.418   3.078  10.470  0.8959 -0.3760  0.0367
   24SAPC   H3X 3201   3.339   3.087  10.393 -1.9645  1.2414  2.9116
   24SAPC   H3Y 3202   3.398   2.974  10.503 -4.3874  0.4847  0.4462
   24SAPC   C34 3203   3.564   3.087  10.422 -0.3574  0.0346  0.5035
   24SAPC   H4X 3204   3.634   3.082  10.508 -1.1338 -0.7457  1.1056
   24SAPC   H4Y 3205   3.588   3.175  10.359  0.2220  0.8812  1.8728
   24SAPC   C35 3206   3.601   2.965  10.331  0.1445 -1.0587 -0.3807
   24SAPC   H5X 3207   3.585   2.870  10.386  0.5372 -0.3357  1.0401
   24SAPC   H5Y 3208   3.711   2.973  10.318  0.0203 -0.3130 -1.0588
   24SAPC   C36 3209   3.535   2.968  10.196 -0.0715  0.6449 -0.1690
   24SAPC   H6X 3210   3.495   3.069  10.173 -0.6700  0.6880  1.0158
   24SAPC   H6Y 3211   3.447   2.901  10.192  1.6822 -1.7708  0.0667
   24SAPC   C37 3212   3.627   2.914  10.088 -0.5095  0.2533  1.4770
   24SAPC   H7X 3213   3.634   2.804  10.098 -2.3551 -0.1200 -0.7554
   24SAPC   H7Y 3214   3.728   2.955  10.114  0.8805 -2.3901  0.5926
   24SAPC   C38 3215   3.585   2.963   9.957  0.7009 -0.7542 -0.3047
   24SAPC   H8X 3216   3.670   2.964   9.885  2.0576  3.5137  1.0366
   24SAPC   H8Y 3217   3.559   3.070   9.966 -0.4836 -1.0570  0.0568
   24SAPC   C39 3218   3.454   2.894   9.909 -0.1118 -0.3702  1.0953
   24SAPC   H9X 3219   3.366   2.919   9.972 -2.2363  3.2145 -2.7822
   24SAPC   H9Y 3220   3.470   2.785   9.915 -3.3411 -0.9699  0.7260
   24SAPC  C310 3221   3.406   2.947   9.771 -0.3902  0.1106 -0.1638
   24SAPC  H10X 3222   3.375   3.054   9.779 -1.2977 -0.1593  0.1386
   24SAPC  H10Y 3223   3.308   2.896   9.758  0.2683 -1.1342 -0.4037
   24SAPC  C311 3224   3.505   2.908   9.657 -0.3587  0.5331 -0.4393
   24SAPC  H11X 3225   3.554   2.812   9.683  0.9364  1.1142 -0.6502
   24SAPC  H11Y 3226   3.589   2.979   9.641  1.1213 -0.5241  1.9760
   24SAPC  C312 3227   3.430   2.891   9.525  0.1609 -0.1376  0.5086
   24SAPC  H12X 3228   3.393   2.993   9.500  0.1179 -0.6528 -1.8055
   24SAPC  H12Y 3229   3.347   2.824   9.555  2.1112 -1.2667  3.8807
   24SAPC  C313 3230   3.513   2.830   9.408 -0.1464 -0.7331  0.7068
   24SAPC  H13X 3231   3.543   2.726   9.433 -1.0794 -1.4787 -1.1123
   24SAPC  H13Y 3232   3.601   2.898   9.404 -1.9893  1.7592 -0.5684
   24SAPC  C314 3233   3.449   2.826   9.275  0.1163  0.3939 -0.7592
   24SAPC  H14X 3234   3.353   2.774   9.295  0.0571  0.8567  0.2448
   24SAPC  H14Y 3235   3.518   2.762   9.215  1.1159 -0.8338  1.5509
   24SAPC  C315 3236   3.415   2.957   9.203 -0.1356  0.0572  0.5886
   24SAPC  H15X 3237   3.515   3.004   9.194 -0.2833  0.0123 -2.1042
   24SAPC  H15Y 3238   3.355   3.035   9.255  0.9005  2.5362 -1.6759
   24SAPC  C316 3239   3.345   2.935   9.066  0.3870  0.3936 -0.3493
   24SAPC  H16X 3240   3.245   2.889   9.079  1.1989 -1.4588 -0.4293
   24SAPC  H16Y 3241   3.406   2.857   9.015 -1.7520 -1.1580 -0.6724
   24SAPC  C317 3242   3.333   3.060   8.988 -0.2038 -0.3440  0.8310
   24SAPC  H17X 3243   3.435   3.106   8.992 -0.6564  0.6321  1.9030
   24SAPC  H17Y 3244   3.263   3.128   9.040  0.4974  1.8777 -0.9729
   24SAPC  C318 3245   3.283   3.039   8.843 -0.7801 -0.0943 -0.2362
   24SAPC  H18X 3246   3.190   2.983   8.822 -1.0505  0.5606 -0.8337
   24SAPC  H18Y 3247   3.366   2.986   8.791  1.1556  2.4039  0.1139
   24SAPC  H18Z 3248   3.264   3.142   8.807  0.0928  0.1955  0.1058
   25SAPC     N 3249   4.291   5.327   6.066  0.3619  0.5424 -0.4692
   25SAPC   C12 3250   4.224   5.208   6.125 -0.1741  0.0843  0.2784
   25SAPC  H12A 3251   4.140   5.232   6.187  1.0033  2.1548  1.1729
   25SAPC  H12B 3252   4.295   5.159   6.190 -2.8960 -1.0407  2.6193
   25SAPC   C13 3253   4.416   5.286   5.992  0.4566  0.1889 -0.2170
   25SAPC  H13A 3254   4.470   5.372   5.956 -1.6927  1.4881 -0.4991
   25SAPC  H13B 3255   4.477   5.224   6.057 -0.8939 -2.5137 -1.3811
   25SAPC  H13C 3256   4.381   5.216   5.918  1.4453  0.2258 -0.7378
   25SAPC   C14 3257   4.196   5.391   5.972 -0.1544  0.0532  0.9065
   25SAPC  H14A 3258   4.158   5.326   5.895 -3.5746  2.7228  0.0685
   25SAPC  H14B 3259   4.106   5.428   6.019 -0.0747  0.2771  0.8882
   25SAPC  H14C 3260   4.244   5.482   5.938 -0.5634  0.1662  0.6388
   25SAPC   C15 3261   4.323   5.417   6.185 -0.9950 -0.2574  0.0141
   25SAPC  H15A 3262   4.378   5.358   6.257 -1.1101 -2.9907 -2.0085
   25SAPC  H15B 3263   4.383   5.502   6.157 -0.0840 -0.9965 -0.3122
   25SAPC  H15C 3264   4.234   5.457   6.232  0.6953  0.3099  2.9824
   25SAPC   C11 3265   4.175   5.093   6.027  0.2899 -0.0406 -0.4966
   25SAPC  H11A 3266   4.102   5.127   5.951 -0.3415 -1.7108 -0.6786
   25SAPC  H11B 3267   4.115   5.021   6.087 -0.9853  0.4259 -1.1744
   25SAPC     P 3268   4.381   4.920   6.025 -0.0204  0.0639 -0.1665
   25SAPC   O13 3269   4.301   4.800   6.044  0.4134 -0.2488 -0.4084
   25SAPC   O14 3270   4.507   4.896   5.952  0.6032 -0.5673  0.7360
   25SAPC   O12 3271   4.288   5.034   5.961  0.0489  0.2769  0.3802
   25SAPC   O11 3272   4.419   4.983   6.161 -0.8076 -0.0550 -0.8737
   25SAPC    C1 3273   4.497   4.910   6.249 -0.0737 -0.2599 -0.2427
   25SAPC    HA 3274   4.563   4.839   6.195  0.8828  1.2124 -1.0904
   25SAPC    HB 3275   4.571   4.984   6.288 -0.6433 -0.1443  0.6422
   25SAPC    C2 3276   4.415   4.854   6.370 -0.1854 -0.2867 -0.2878
   25SAPC    HS 3277   4.312   4.895   6.369 -0.4319 -0.9162 -0.7084
   25SAPC   O21 3278   4.480   4.888   6.496 -0.5706 -0.1431 -0.2502
   25SAPC   C21 3279   4.478   5.016   6.522 -0.2311 -0.5004  0.4992
   25SAPC   O22 3280   4.427   5.104   6.461  0.6458  0.4799  0.6270
   25SAPC   C22 3281   4.560   5.039   6.648  0.0903 -0.0629  1.1790
   25SAPC   H2R 3282   4.667   5.032   6.620 -0.5832 -0.6961 -1.5388
   25SAPC   H2S 3283   4.548   5.147   6.671 -1.1650 -0.0718  0.6604
   25SAPC    C3 3284   4.413   4.694   6.358 -0.3867 -0.1909 -0.6435
   25SAPC    HX 3285   4.516   4.656   6.373  0.2891  1.2658 -1.4022
   25SAPC    HY 3286   4.373   4.660   6.260 -1.8736 -1.8943  0.4787
   25SAPC   O31 3287   4.320   4.640   6.452  0.5664  0.3894 -0.2183
   25SAPC   C31 3288   4.358   4.526   6.517 -0.8398  0.2588 -0.0721
   25SAPC   O32 3289   4.454   4.454   6.490 -0.1713 -0.1697 -0.0451
   25SAPC   C32 3290   4.270   4.510   6.636  1.5166 -0.4898  0.0292
   25SAPC   H2X 3291   4.187   4.443   6.604  1.1083 -0.3863  0.8300
   25SAPC   H2Y 3292   4.229   4.609   6.663 -1.9823 -1.4720 -1.1349
   25SAPC   C23 3293   4.522   4.942   6.765 -0.1885 -0.2283 -0.4083
   25SAPC   H3R 3294   4.559   4.839   6.745 -2.1052 -0.8427 -0.9669
   25SAPC   H3S 3295   4.413   4.931   6.752 -0.0227  0.4137 -2.7033
   25SAPC   C24 3296   4.571   4.994   6.901 -0.5289 -0.2350 -0.1937
   25SAPC   H4R 3297   4.549   5.103   6.912 -0.9789 -0.3969  0.5948
   25SAPC   H4S 3298   4.683   4.996   6.902 -0.5118 -0.3970 -1.1186
   25SAPC   C25 3299   4.524   4.919   7.019  0.7245  0.3321  0.5561
   25SAPC   H5R 3300   4.434   4.858   7.001 -0.8925  2.6519  0.3099
   25SAPC   C26 3301   4.565   4.943   7.146 -0.2214  0.3531  0.3102
   25SAPC   H6R 3302   4.523   4.882   7.228 -1.9741 -0.1378 -0.8951
   25SAPC   C27 3303   4.666   5.049   7.187  0.3394  0.4977  0.1883
   25SAPC   H7R 3304   4.611   5.135   7.229  0.9060  0.5415  0.8692
   25SAPC   H7S 3305   4.710   5.081   7.091  0.4414  0.9825  0.3948
   25SAPC   C28 3306   4.768   4.979   7.281 -0.1595 -0.4141 -0.6497
   25SAPC   H8R 3307   4.849   4.934   7.223  0.6702  0.5175 -0.2436
   25SAPC   C29 3308   4.769   4.967   7.419  0.1737 -0.1866 -0.2517
   25SAPC   H9R 3309   4.857   4.924   7.470  0.6806 -1.3468 -1.9998
   25SAPC  C210 3310   4.652   5.023   7.498  0.3165 -0.2217  0.1649
   25SAPC  H10R 3311   4.557   4.989   7.452 -0.7117  1.3055  1.0965
   25SAPC  H10S 3312   4.648   5.133   7.488 -1.5720 -0.4797 -4.4925
   25SAPC  C211 3313   4.650   4.983   7.646  0.7182  0.1935  0.6905
   25SAPC  H11R 3314   4.579   4.906   7.681  3.5852 -2.9222  0.0617
   25SAPC  C212 3315   4.727   5.037   7.736  0.2691  0.0249 -0.3936
   25SAPC  H12R 3316   4.712   5.006   7.841 -2.5008  0.0974 -0.6968
   25SAPC  C213 3317   4.826   5.147   7.714 -0.4619  0.7467  0.6720
   25SAPC  H13R 3318   4.830   5.183   7.610 -5.2887  0.5469  0.1823
   25SAPC  H13S 3319   4.925   5.104   7.738  1.2205  2.5359 -2.5127
   25SAPC  C214 3320   4.794   5.258   7.805  0.2390 -0.2111  0.1228
   25SAPC  H14R 3321   4.720   5.327   7.763  0.5586 -0.5816 -1.0748
   25SAPC  C215 3322   4.843   5.276   7.928  0.0738 -0.0474  0.3764
   25SAPC  H15R 3323   4.802   5.360   7.987  1.7231 -0.1529  1.7425
   25SAPC  C216 3324   4.925   5.176   8.003  0.8423 -0.2320  0.3901
   25SAPC  H16R 3325   5.030   5.166   7.969  0.3638 -0.9108 -0.9822
   25SAPC  H16S 3326   4.887   5.073   7.988 -0.1377  0.4013 -1.8775
   25SAPC  C217 3327   4.922   5.205   8.151 -0.6872  0.6833 -1.3052
   25SAPC  H17R 3328   4.922   5.315   8.170  1.4074  0.3752  0.9598
   25SAPC  H17S 3329   5.016   5.161   8.190  1.0169  2.3958 -3.2081
   25SAPC  C218 3330   4.805   5.136   8.230 -0.5821  0.1705  0.6345
   25SAPC  H18R 3331   4.811   5.026   8.239 -1.1432  0.2062  1.5205
   25SAPC  H18S 3332   4.715   5.158   8.168 -1.2379  2.6362  2.2908
   25SAPC  C219 3333   4.794   5.197   8.365  0.1570  0.5682  0.2941
   25SAPC  H19R 3334   4.772   5.305   8.353  1.6584  1.0785  1.7400
   25SAPC  H19S 3335   4.890   5.202   8.421  0.0811  4.2351  0.3566
   25SAPC  C220 3336   4.691   5.123   8.449  0.9690 -0.1780 -0.3175
   25SAPC  H20R 3337   4.601   5.092   8.391  0.8083  1.0112 -0.7247
   25SAPC  H20S 3338   4.672   5.185   8.540  1.3444 -2.4693  1.4190
   25SAPC  H20T 3339   4.743   5.030   8.483  1.0904 -0.1112 -0.3186
   25SAPC   C33 3340   4.348   4.451   6.759  0.0441  0.6587  0.0382
   25SAPC   H3X 3341   4.379   4.349   6.728  1.7049  1.4831 -1.1715
   25SAPC   H3Y 3342   4.290   4.434   6.852  0.9068 -1.4966  0.2299
   25SAPC   C34 3343   4.470   4.538   6.805 -0.0058  0.3319  0.8387
   25SAPC   H4X 3344   4.440   4.639   6.840  0.5322  0.6934  0.2722
   25SAPC   H4Y 3345   4.538   4.540   6.718 -1.3891 -3.9918 -0.6146
   25SAPC   C35 3346   4.541   4.467   6.920 -0.6637  0.8778  0.4047
   25SAPC   H5X 3347   4.646   4.501   6.911 -0.1776 -0.9666 -1.8581
   25SAPC   H5Y 3348   4.547   4.357   6.905  4.7495  1.0017 -0.3855
   25SAPC   C36 3349   4.478   4.511   7.055 -0.0007  0.2518  0.0240
   25SAPC   H6X 3350   4.370   4.485   7.053  0.2614 -1.0081  1.0071
   25SAPC   H6Y 3351   4.470   4.622   7.057  1.5086  0.4422 -1.9360
   25SAPC   C37 3352   4.554   4.464   7.178  0.4577  0.1082  0.5542
   25SAPC   H7X 3353   4.664   4.457   7.170  0.5349 -1.2597  2.1740
   25SAPC   H7Y 3354   4.513   4.362   7.191 -0.0094  0.3800  1.3069
   25SAPC   C38 3355   4.526   4.553   7.306 -0.1018  0.3927  0.0669
   25SAPC   H8X 3356   4.417   4.552   7.326 -0.0986 -2.3267  0.3227
   25SAPC   H8Y 3357   4.555   4.655   7.274 -3.8352  1.0147 -1.8545
   25SAPC   C39 3358   4.609   4.497   7.432 -0.3215 -0.6396  0.2961
   25SAPC   H9X 3359   4.708   4.464   7.393  0.1928 -0.2579  1.2397
   25SAPC   H9Y 3360   4.555   4.405   7.461  0.2068 -0.8447  0.6452
   25SAPC  C310 3361   4.646   4.607   7.538 -0.0104  0.4299  0.1934
   25SAPC  H10X 3362   4.551   4.639   7.586  0.0915  1.1307 -0.0497
   25SAPC  H10Y 3363   4.688   4.698   7.490  1.2582  0.4139  1.2137
   25SAPC  C311 3364   4.737   4.558   7.640 -0.6903 -0.2073 -0.2081
   25SAPC  H11X 3365   4.829   4.510   7.600 -0.1589 -0.7236  1.5337
   25SAPC  H11Y 3366   4.682   4.470   7.678  0.6837 -0.5558  1.0509
   25SAPC  C312 3367   4.777   4.665   7.736  0.4820 -0.1648  0.2511
   25SAPC  H12X 3368   4.687   4.711   7.783 -0.9537 -1.2459 -1.3477
   25SAPC  H12Y 3369   4.844   4.739   7.688 -2.3601  2.9634  0.6457
   25SAPC  C313 3370   4.863   4.621   7.858 -0.2335  0.6230  0.2662
   25SAPC  H13X 3371   4.959   4.577   7.825  0.1082  0.7801  1.0138
   25SAPC  H13Y 3372   4.815   4.532   7.904  0.5807  0.4119  0.7260
   25SAPC  C314 3373   4.877   4.730   7.958 -0.3358 -0.0450 -0.0125
   25SAPC  H14X 3374   4.778   4.751   8.005 -0.3668 -0.5792  0.1690
   25SAPC  H14Y 3375   4.906   4.826   7.910 -0.1485  1.5705  3.0717
   25SAPC  C315 3376   4.979   4.693   8.072  0.1723 -0.4904 -0.1827
   25SAPC  H15X 3377   5.078   4.688   8.021 -0.1586  1.9600 -1.2068
   25SAPC  H15Y 3378   4.948   4.595   8.114 -2.2186 -0.3759 -1.5083
   25SAPC  C316 3379   4.990   4.790   8.188 -0.2211  0.4138  0.2977
   25SAPC  H16X 3380   4.891   4.815   8.232 -0.8652 -0.5439 -0.5725
   25SAPC  H16Y 3381   5.025   4.886   8.144 -0.7507  0.1900 -0.6435
   25SAPC  C317 3382   5.080   4.725   8.295  0.4148  0.4457 -0.0582
   25SAPC  H17X 3383   5.036   4.628   8.328  0.8509  0.3327  0.2018
   25SAPC  H17Y 3384   5.089   4.783   8.389 -2.2413 -0.4895  0.8657
   25SAPC  C318 3385   5.222   4.680   8.242 -0.4506  0.0517  0.0725
   25SAPC  H18X 3386   5.258   4.758   8.173 -1.8497  2.0465  1.4851
   25SAPC  H18Y 3387   5.223   4.581   8.192  3.5353 -0.9854  1.8222
   25SAPC  H18Z 3388   5.291   4.666   8.329 -0.1405 -0.0308 -0.1840
   26SAPC     N 3389   5.360   4.826   6.050 -0.0465 -0.6303  0.0439
   26SAPC   C12 3390   5.286   4.858   6.181  0.1555 -0.8169 -0.4341
   26SAPC  H12A 3391   5.293   4.776   6.251 -0.8373 -1.1767 -0.7428
   26SAPC  H12B 3392   5.182   4.857   6.152 -0.3996  0.2523  1.3575
   26SAPC   C13 3393   5.502   4.832   6.062 -0.6810  0.1746  0.1086
   26SAPC  H13A 3394   5.520   4.765   6.145 -4.7525 -2.4560 -0.8590
   26SAPC  H13B 3395   5.561   4.792   5.980  0.2623 -0.8254  1.2247
   26SAPC  H13C 3396   5.535   4.931   6.089  1.0203 -0.3569  0.1444
   26SAPC   C14 3397   5.331   4.683   6.014 -0.3674 -0.2432 -0.3358
   26SAPC  H14A 3398   5.387   4.655   5.926 -0.7098  2.2958 -1.4712
   26SAPC  H14B 3399   5.357   4.614   6.093  1.2307  1.9499  1.2141
   26SAPC  H14C 3400   5.227   4.663   5.992 -0.8779  0.7125  1.0132
   26SAPC   C15 3401   5.313   4.905   5.937  0.4797 -0.2028  0.5410
   26SAPC  H15A 3402   5.318   5.010   5.964 -1.1092  0.0584 -0.0468
   26SAPC  H15B 3403   5.374   4.896   5.848  0.3280 -2.2888  0.6012
   26SAPC  H15C 3404   5.215   4.888   5.896  0.9782  1.5239 -1.6010
   26SAPC   C11 3405   5.316   4.995   6.244 -0.0888  0.0881 -0.1728
   26SAPC  H11A 3406   5.418   4.996   6.286  0.4968  1.4034 -1.5123
   26SAPC  H11B 3407   5.243   5.010   6.327  2.2570 -0.3573  2.0818
   26SAPC     P 3408   5.433   5.212   6.136  0.1923 -0.3503 -0.5099
   26SAPC   O13 3409   5.561   5.134   6.125 -0.5687 -0.4052 -0.3263
   26SAPC   O14 3410   5.412   5.311   6.027 -0.6815  0.1148 -0.2508
   26SAPC   O12 3411   5.307   5.107   6.152 -0.2463  0.1382  0.1882
   26SAPC   O11 3412   5.432   5.283   6.280  0.0035 -0.3623  0.1052
   26SAPC    C1 3413   5.310   5.328   6.339 -0.0716  0.2971  0.1144
   26SAPC    HA 3414   5.308   5.439   6.345  2.5619  0.3527  0.7986
   26SAPC    HB 3415   5.218   5.290   6.288  0.9752 -3.0999  0.5017
   26SAPC    C2 3416   5.309   5.282   6.486  0.8819 -0.2698  0.5361
   26SAPC    HS 3417   5.302   5.172   6.496  0.5827 -0.2399  0.6741
   26SAPC   O21 3418   5.212   5.349   6.566 -0.1662  0.2204  0.7231
   26SAPC   C21 3419   5.092   5.310   6.543 -0.2472 -1.0974 -0.1898
   26SAPC   O22 3420   5.061   5.234   6.452 -0.3169  0.2954 -0.1769
   26SAPC   C22 3421   5.003   5.392   6.633  0.1853  0.4523 -0.1978
   26SAPC   H2R 3422   5.057   5.449   6.711  1.2836 -0.7519 -0.0334
   26SAPC   H2S 3423   4.957   5.465   6.563 -0.7824  0.5744  0.5560
   26SAPC    C3 3424   5.447   5.314   6.544 -0.2315 -0.1171 -0.3127
   26SAPC    HX 3425   5.487   5.410   6.505 -0.2199  0.6093  1.3634
   26SAPC    HY 3426   5.505   5.226   6.509 -1.0576 -0.0210 -2.0255
   26SAPC   O31 3427   5.430   5.315   6.690 -0.4483 -0.2014  0.1990
   26SAPC   C31 3428   5.460   5.427   6.756 -0.4543  0.3326 -0.1632
   26SAPC   O32 3429   5.503   5.533   6.715  0.1706 -0.0836 -0.2818
   26SAPC   C32 3430   5.427   5.397   6.900  0.2718 -0.4324 -0.3861
   26SAPC   H2X 3431   5.480   5.303   6.925  3.0817  1.4278  1.2267
   26SAPC   H2Y 3432   5.317   5.379   6.900  0.0910  0.5593  0.1690
   26SAPC   C23 3433   4.886   5.310   6.689 -0.0296 -1.0463  0.5446
   26SAPC   H3R 3434   4.862   5.227   6.621 -3.8249 -0.1107  0.5595
   26SAPC   H3S 3435   4.795   5.373   6.684 -0.1422 -1.2870 -0.5363
   26SAPC   C24 3436   4.905   5.259   6.829  0.7418  0.2052 -0.1673
   26SAPC   H4R 3437   4.977   5.175   6.835 -2.5973 -2.9322 -0.5948
   26SAPC   H4S 3438   4.813   5.207   6.865  2.1533 -2.8499 -0.7413
   26SAPC   C25 3439   4.929   5.366   6.931 -0.5056 -0.3545  0.3097
   26SAPC   H5R 3440   4.870   5.456   6.907  2.3049  1.3714 -0.6229
   26SAPC   C26 3441   5.015   5.366   7.036 -0.2144  0.3120 -0.0671
   26SAPC   H6R 3442   5.019   5.451   7.106  1.2532 -0.4360  0.8155
   26SAPC   C27 3443   5.098   5.249   7.073 -0.3886 -0.0226 -0.1478
   26SAPC   H7R 3444   5.188   5.292   7.122 -0.3860 -1.0270  0.7672
   26SAPC   H7S 3445   5.119   5.185   6.984 -1.7222 -0.2712 -0.2979
   26SAPC   C28 3446   5.041   5.156   7.179  0.1577  0.6625  1.1815
   26SAPC   H8R 3447   4.974   5.084   7.130  0.2211  2.8335 -2.4306
   26SAPC   C29 3448   5.069   5.143   7.312 -0.1684 -0.8205  0.2102
   26SAPC   H9R 3449   5.012   5.074   7.377 -1.1549 -0.9089 -0.7226
   26SAPC  C210 3450   5.164   5.226   7.394  0.8037 -0.6824  0.5183
   26SAPC  H10R 3451   5.119   5.267   7.486  2.3485 -1.5714  1.7107
   26SAPC  H10S 3452   5.202   5.316   7.342 -0.3813 -1.6484 -2.2142
   26SAPC  C211 3453   5.286   5.147   7.420  0.3294  0.1374 -0.8904
   26SAPC  H11R 3454   5.355   5.143   7.334  0.6408 -0.5863 -0.6170
   26SAPC  C212 3455   5.328   5.110   7.541 -0.4352 -0.2342 -0.3133
   26SAPC  H12R 3456   5.422   5.054   7.538  0.1135  0.6626 -0.1931
   26SAPC  C213 3457   5.256   5.128   7.676 -0.4794 -0.0355 -0.2861
   26SAPC  H13R 3458   5.161   5.180   7.648 -0.8425 -1.4532 -1.8439
   26SAPC  H13S 3459   5.319   5.191   7.742 -1.1152  2.7750 -2.1696
   26SAPC  C214 3460   5.221   4.989   7.733  0.3744 -0.2982  0.3618
   26SAPC  H14R 3461   5.160   4.931   7.662  1.4470 -0.0094 -0.8181
   26SAPC  C215 3462   5.241   4.934   7.852 -0.0660  0.0579  0.2091
   26SAPC  H15R 3463   5.198   4.833   7.860  2.1133 -0.8498  1.5739
   26SAPC  C216 3464   5.301   4.985   7.982  0.6638  0.1249  0.1545
   26SAPC  H16R 3465   5.239   4.961   8.071  0.2668 -0.5132 -0.2926
   26SAPC  H16S 3466   5.295   5.096   7.978 -0.8528  0.1252  1.4897
   26SAPC  C217 3467   5.447   4.940   8.015  0.6138  0.7622  0.2207
   26SAPC  H17R 3468   5.500   4.970   7.922 -1.3752  0.3562 -1.1132
   26SAPC  H17S 3469   5.445   4.830   8.030 -0.6203  0.9278  1.5427
   26SAPC  C218 3470   5.511   5.003   8.141  0.3080  0.1956 -0.1265
   26SAPC  H18R 3471   5.456   5.098   8.160 -1.4821 -0.6870 -0.6972
   26SAPC  H18S 3472   5.620   5.013   8.121  0.8513 -0.7677  2.0429
   26SAPC  C219 3473   5.508   4.910   8.257 -0.3059  0.3395  0.3847
   26SAPC  H19R 3474   5.552   4.817   8.214 -1.9070  0.0808 -0.7805
   26SAPC  H19S 3475   5.402   4.890   8.284  0.2590 -2.6545  0.7449
   26SAPC  C220 3476   5.561   4.961   8.389 -0.0005 -0.5137  0.0946
   26SAPC  H20R 3477   5.526   5.064   8.415 -3.0287 -0.4016 -3.6323
   26SAPC  H20S 3478   5.670   4.945   8.396  0.1723 -0.6365 -2.2729
   26SAPC  H20T 3479   5.513   4.885   8.455 -0.9372  0.7134  0.8897
   26SAPC   C33 3480   5.476   5.501   7.005  0.4250  0.6141 -0.0923
   26SAPC   H3X 3481   5.442   5.605   6.985 -0.6205  0.4226  0.5930
   26SAPC   H3Y 3482   5.586   5.515   7.006  0.7744 -1.4384 -2.2035
   26SAPC   C34 3483   5.431   5.463   7.146  0.4836 -0.2395  0.0524
   26SAPC   H4X 3484   5.457   5.356   7.159  0.5233 -0.2660 -0.2402
   26SAPC   H4Y 3485   5.320   5.473   7.148  0.5306  1.8352 -2.5761
   26SAPC   C35 3486   5.504   5.535   7.260  0.2021  0.1928 -0.1983
   26SAPC   H5X 3487   5.482   5.644   7.264 -0.5955  0.0496 -0.4608
   26SAPC   H5Y 3488   5.614   5.524   7.247  0.0927  0.3253 -1.3170
   26SAPC   C36 3489   5.443   5.491   7.400  0.2822 -0.0794 -0.6235
   26SAPC   H6X 3490   5.447   5.380   7.398 -0.8077 -0.1334 -2.0948
   26SAPC   H6Y 3491   5.335   5.520   7.402 -0.5835 -2.9526  2.5960
   26SAPC   C37 3492   5.526   5.535   7.517  0.1512 -0.3960  0.0819
   26SAPC   H7X 3493   5.487   5.632   7.554 -0.1967 -0.6165  0.2943
   26SAPC   H7Y 3494   5.635   5.544   7.499  0.1443  0.6682  0.5070
   26SAPC   C38 3495   5.506   5.439   7.640 -0.1716 -0.1910  0.9494
   26SAPC   H8X 3496   5.540   5.337   7.612 -1.0636 -0.6609  1.5211
   26SAPC   H8Y 3497   5.399   5.433   7.667 -0.2714 -0.4208  0.5097
   26SAPC   C39 3498   5.582   5.485   7.760 -0.2685  0.1103 -0.4230
   26SAPC   H9X 3499   5.555   5.590   7.782  0.8530  0.1793  0.7541
   26SAPC   H9Y 3500   5.688   5.492   7.727 -0.6535  0.3272 -1.6545
   26SAPC  C310 3501   5.564   5.388   7.876 -0.7437 -0.0498 -0.5218
   26SAPC  H10X 3502   5.582   5.280   7.852  0.9697 -0.1359  0.8959
   26SAPC  H10Y 3503   5.458   5.390   7.907 -0.0704 -1.2265  2.1367
   26SAPC  C311 3504   5.661   5.421   7.984 -0.0201  0.2356 -0.1387
   26SAPC  H11X 3505   5.637   5.516   8.036 -0.2978 -0.1999  0.5383
   26SAPC  H11Y 3506   5.754   5.452   7.931 -0.7626 -1.3890 -2.5456
   26SAPC  C312 3507   5.688   5.319   8.097  0.1487  0.3543  0.5444
   26SAPC  H12X 3508   5.731   5.223   8.061  0.6791  0.0013  2.0715
   26SAPC  H12Y 3509   5.593   5.286   8.145  0.7552 -1.7381  0.3926
   26SAPC  C313 3510   5.780   5.371   8.208  0.1863  0.9231 -0.3549
   26SAPC  H13X 3511   5.738   5.468   8.245  0.3374  1.3930 -1.3816
   26SAPC  H13Y 3512   5.879   5.397   8.167 -0.4185  0.0974 -2.4473
   26SAPC  C314 3513   5.785   5.264   8.318  0.0979 -0.3393 -0.0322
   26SAPC  H14X 3514   5.802   5.161   8.281  1.2686 -1.3243  2.9533
   26SAPC  H14Y 3515   5.689   5.260   8.375  0.7089 -1.4329  0.9654
   26SAPC  C315 3516   5.899   5.299   8.416  0.2016  0.1267  0.1950
   26SAPC  H15X 3517   5.884   5.409   8.429 -2.3130 -0.0429 -0.7385
   26SAPC  H15Y 3518   5.994   5.272   8.366 -0.5793 -1.1317 -0.6466
   26SAPC  C316 3519   5.892   5.220   8.557  0.1108 -0.0849  0.1917
   26SAPC  H16X 3520   5.900   5.110   8.541 -0.1957  0.1565 -1.7913
   26SAPC  H16Y 3521   5.793   5.238   8.604  0.4833 -0.4892  1.1667
   26SAPC  C317 3522   6.009   5.267   8.641  0.3536 -0.6481  0.6393
   26SAPC  H17X 3523   5.990   5.373   8.670 -1.9772 -0.5887 -0.8264
   26SAPC  H17Y 3524   6.105   5.260   8.586 -1.3941  1.1036 -2.9794
   26SAPC  C318 3525   6.018   5.188   8.774  0.1574 -0.0665  0.6634
   26SAPC  H18X 3526   6.108   5.202   8.838  0.8845 -3.4172  0.5742
   26SAPC  H18Y 3527   6.022   5.077   8.766  3.1359  0.0557 -1.0383
   26SAPC  H18Z 3528   5.928   5.205   8.837 -0.4945  0.5866 -0.4285
   27SAPC     N 3529   1.832   5.529   6.251  0.9107  0.0730  0.5932
   27SAPC   C12 3530   1.896   5.488   6.382 -0.2013 -0.0644  0.3685
   27SAPC  H12A 3531   2.004   5.485   6.375 -0.0756 -0.6918  2.1111
   27SAPC  H12B 3532   1.858   5.391   6.410  0.0226  0.0097  0.9407
   27SAPC   C13 3533   1.682   5.519   6.271 -0.5175 -0.4902 -0.3014
   27SAPC  H13A 3534   1.650   5.416   6.282  0.2470 -0.7350 -0.3505
   27SAPC  H13B 3535   1.666   5.560   6.370  1.0512 -2.6603  0.9355
   27SAPC  H13C 3536   1.622   5.577   6.202 -1.6875  1.3060  2.0784
   27SAPC   C14 3537   1.874   5.663   6.214 -0.3862 -0.2348  0.2698
   27SAPC  H14A 3538   1.980   5.666   6.194 -0.8360  0.2245 -2.4063
   27SAPC  H14B 3539   1.830   5.697   6.122 -0.4339  1.9434  1.0405
   27SAPC  H14C 3540   1.866   5.734   6.295 -0.5469  0.5606 -0.4339
   27SAPC   C15 3541   1.877   5.437   6.143  0.7630 -0.3274 -0.6940
   27SAPC  H15A 3542   1.835   5.464   6.047 -1.1832  0.1173  0.2395
   27SAPC  H15B 3543   1.980   5.455   6.114  0.3496  0.2153 -1.9204
   27SAPC  H15C 3544   1.862   5.331   6.157  0.7702 -0.1397  0.8622
   27SAPC   C11 3545   1.900   5.588   6.497 -0.3875 -0.1000  1.1641
   27SAPC  H11A 3546   1.952   5.684   6.476  1.6743 -1.0384  1.7471
   27SAPC  H11B 3547   1.976   5.542   6.564  0.2882 -0.1431  0.3754
   27SAPC     P 3548   1.719   5.498   6.658  0.3853 -0.0819 -0.2528
   27SAPC   O13 3549   1.576   5.533   6.671  0.1482 -0.0989  0.1019
   27SAPC   O14 3550   1.745   5.357   6.612  0.5246  0.1771  0.3921
   27SAPC   O12 3551   1.777   5.601   6.555 -0.0014 -0.6036  0.2456
   27SAPC   O11 3552   1.797   5.528   6.791  0.0926  0.1594 -0.0250
   27SAPC    C1 3553   1.827   5.660   6.835 -0.3312 -0.0653 -0.5879
   27SAPC    HA 3554   1.933   5.688   6.817  0.0406 -1.9786 -1.5474
   27SAPC    HB 3555   1.769   5.738   6.780  0.9295  1.6758  0.4360
   27SAPC    C2 3556   1.791   5.658   6.992 -0.1431 -0.2748  0.2048
   27SAPC    HS 3557   1.818   5.758   7.033  1.3003 -1.1891  1.6087
   27SAPC   O21 3558   1.867   5.552   7.054  0.4558 -0.5629 -0.3184
   27SAPC   C21 3559   1.990   5.587   7.072  0.3736  0.0573  0.3742
   27SAPC   O22 3560   2.043   5.694   7.039  0.0687 -0.2436 -0.3296
   27SAPC   C22 3561   2.059   5.482   7.156  0.5612 -0.0624  0.1968
   27SAPC   H2R 3562   2.003   5.387   7.143 -3.1305  2.1963 -2.1730
   27SAPC   H2S 3563   2.146   5.459   7.090 -0.1536  2.5885 -1.8565
   27SAPC    C3 3564   1.641   5.631   7.011 -0.7167  0.2488  0.5290
   27SAPC    HX 3565   1.616   5.532   6.968 -0.8446  1.5957 -2.7164
   27SAPC    HY 3566   1.583   5.701   6.948 -3.0157 -1.2776  0.7875
   27SAPC   O31 3567   1.594   5.651   7.145 -1.0107 -0.0551 -0.0498
   27SAPC   C31 3568   1.514   5.568   7.209 -0.8667  0.1760  0.4057
   27SAPC   O32 3569   1.462   5.469   7.166 -0.1782  0.3462 -0.3767
   27SAPC   C32 3570   1.497   5.619   7.346  0.0456 -0.3645  0.2284
   27SAPC   H2X 3571   1.438   5.713   7.340  0.1162 -0.3885 -1.6358
   27SAPC   H2Y 3572   1.596   5.652   7.384  0.0699 -1.3134  1.0257
   27SAPC   C23 3573   2.088   5.532   7.297  0.0891 -0.1834 -0.0112
   27SAPC   H3R 3574   2.169   5.608   7.299  0.3653 -0.4940  1.3832
   27SAPC   H3S 3575   2.136   5.452   7.357 -1.1563 -1.2969 -0.4651
   27SAPC   C24 3576   1.971   5.593   7.371  0.1733 -0.1358 -0.1944
   27SAPC   H4R 3577   1.930   5.675   7.309 -1.0839  0.8485  1.8491
   27SAPC   H4S 3578   2.023   5.627   7.464  0.9173  0.4093 -0.7957
   27SAPC   C25 3579   1.857   5.495   7.395  0.0216  0.6903  0.3297
   27SAPC   H5R 3580   1.801   5.458   7.308  1.1826 -2.1112  0.6683
   27SAPC   C26 3581   1.800   5.463   7.512  0.3145 -0.2403  0.0921
   27SAPC   H6R 3582   1.711   5.400   7.521  0.6132 -0.5318  1.1218
   27SAPC   C27 3583   1.839   5.512   7.652 -0.4180 -0.2422  0.6864
   27SAPC   H7R 3584   1.746   5.510   7.713 -1.4154 -1.9836 -0.7808
   27SAPC   H7S 3585   1.871   5.618   7.641  1.4454 -0.9430 -1.3402
   27SAPC   C28 3586   1.950   5.428   7.711  0.8200 -0.1873 -0.1614
   27SAPC   H8R 3587   2.031   5.408   7.639 -0.5251 -1.6696 -1.3234
   27SAPC   C29 3588   1.976   5.389   7.836 -0.2603 -0.0615  0.5653
   27SAPC   H9R 3589   2.057   5.316   7.845 -0.9152 -1.1569 -1.5768
   27SAPC  C210 3590   1.897   5.413   7.962 -0.7522  1.0101  0.0882
   27SAPC  H10R 3591   1.789   5.432   7.947 -0.4306  0.8172 -2.9451
   27SAPC  H10S 3592   1.942   5.505   8.004 -1.1632  1.7133 -0.9750
   27SAPC  C211 3593   1.907   5.295   8.053  0.8877 -0.4725 -1.0165
   27SAPC  H11R 3594   1.874   5.207   7.997  0.9311  1.7405 -4.8646
   27SAPC  C212 3595   1.918   5.306   8.196  0.5632 -0.9447  0.1375
   27SAPC  H12R 3596   1.939   5.216   8.256  1.1210  0.2637  1.8065
   27SAPC  C213 3597   1.930   5.441   8.266 -0.2711  0.0788  0.3255
   27SAPC  H13R 3598   1.850   5.505   8.222 -1.4914 -1.1130  0.7509
   27SAPC  H13S 3599   2.030   5.485   8.246  0.0755 -0.9720 -0.3417
   27SAPC  C214 3600   1.912   5.434   8.417  0.7004  0.5640 -0.2129
   27SAPC  H14R 3601   1.815   5.387   8.439  0.4372  0.3122 -1.8476
   27SAPC  C215 3602   1.995   5.454   8.519  0.4101 -0.0355 -0.2934
   27SAPC  H15R 3603   1.946   5.476   8.615 -0.5273  0.4499 -0.8688
   27SAPC  C216 3604   2.136   5.506   8.523 -0.4211 -0.0769  0.0938
   27SAPC  H16R 3605   2.185   5.510   8.423  0.0869 -2.4838  0.1844
   27SAPC  H16S 3606   2.189   5.433   8.588  0.0251  1.2000  1.2076
   27SAPC  C217 3607   2.149   5.641   8.598  0.4623 -0.2186  0.8308
   27SAPC  H17R 3608   2.100   5.625   8.696 -0.2249  1.1611  0.7381
   27SAPC  H17S 3609   2.104   5.728   8.546  0.0999 -1.1618 -0.4762
   27SAPC  C218 3610   2.296   5.677   8.625  0.1575  0.0803 -0.4826
   27SAPC  H18R 3611   2.318   5.770   8.569 -0.5603  0.5837  0.0646
   27SAPC  H18S 3612   2.362   5.599   8.582  1.0822 -0.0181  1.0476
   27SAPC  C219 3613   2.324   5.707   8.774  0.4367  0.4330 -0.3800
   27SAPC  H19R 3614   2.429   5.740   8.790  0.5090  0.1898 -0.3486
   27SAPC  H19S 3615   2.307   5.627   8.849 -2.4383  3.3377  2.3684
   27SAPC  C220 3616   2.245   5.833   8.827 -0.1225 -0.6053 -0.0988
   27SAPC  H20R 3617   2.275   5.928   8.778 -2.2466  0.3350  0.3199
   27SAPC  H20S 3618   2.284   5.841   8.931  0.7284  0.3330 -0.4690
   27SAPC  H20T 3619   2.136   5.813   8.828 -0.4492  0.9574 -1.1115
   27SAPC   C33 3620   1.442   5.507   7.440 -0.3219  0.4038 -0.0509
   27SAPC   H3X 3621   1.518   5.426   7.439 -0.7846 -0.0798  1.3131
   27SAPC   H3Y 3622   1.349   5.471   7.393 -0.9177 -0.8368  1.9374
   27SAPC   C34 3623   1.421   5.545   7.593  0.5872  0.1524 -0.2612
   27SAPC   H4X 3624   1.516   5.594   7.622  0.0995  0.9241  0.0587
   27SAPC   H4Y 3625   1.404   5.448   7.644  0.2186 -0.6223 -1.7941
   27SAPC   C35 3626   1.296   5.635   7.622 -0.5155  0.0219 -0.4477
   27SAPC   H5X 3627   1.215   5.594   7.558 -0.2393  3.1556 -3.0695
   27SAPC   H5Y 3628   1.315   5.741   7.597 -0.3236  0.2355  0.5835
   27SAPC   C36 3629   1.260   5.631   7.764  0.7071  0.2665 -0.0523
   27SAPC   H6X 3630   1.228   5.528   7.789 -2.4483  1.4146  1.0429
   27SAPC   H6Y 3631   1.173   5.697   7.780  1.1381  0.7559  0.3190
   27SAPC   C37 3632   1.372   5.670   7.863  0.3262 -0.0297 -0.1472
   27SAPC   H7X 3633   1.380   5.780   7.853 -0.7819 -0.0375 -1.3567
   27SAPC   H7Y 3634   1.472   5.630   7.838 -0.2924 -1.9260  0.2339
   27SAPC   C38 3635   1.342   5.630   8.009  0.2146  0.5260  0.7977
   27SAPC   H8X 3636   1.231   5.630   8.021  0.1085 -2.5216  0.7547
   27SAPC   H8Y 3637   1.405   5.692   8.076 -0.0589  2.2550 -0.4867
   27SAPC   C39 3638   1.373   5.480   8.045 -0.3190 -0.2736 -0.4960
   27SAPC   H9X 3639   1.335   5.409   7.969  2.4378 -4.4384  1.6197
   27SAPC   H9Y 3640   1.334   5.453   8.146  1.2946  1.3941  0.6538
   27SAPC  C310 3641   1.520   5.451   8.068 -1.0237  0.6385 -0.1538
   27SAPC  H10X 3642   1.566   5.534   8.126 -0.3150 -0.3535  0.7549
   27SAPC  H10Y 3643   1.562   5.438   7.966 -1.3113 -0.4271 -0.1437
   27SAPC  C311 3644   1.553   5.324   8.142  0.8846  0.4726  0.1459
   27SAPC  H11X 3645   1.650   5.284   8.106 -0.1776 -0.5495 -1.7155
   27SAPC  H11Y 3646   1.477   5.246   8.120 -0.6223  1.3233  2.0462
   27SAPC  C312 3647   1.545   5.344   8.288 -0.1765 -0.0571  0.1004
   27SAPC  H12X 3648   1.441   5.373   8.314  0.1489  0.4084  0.9119
   27SAPC  H12Y 3649   1.615   5.422   8.324 -1.4465  1.5096 -0.7036
   27SAPC  C313 3650   1.588   5.218   8.362  0.4918 -0.2419 -0.5162
   27SAPC  H13X 3651   1.699   5.207   8.364  0.7299  1.8461  0.4308
   27SAPC  H13Y 3652   1.543   5.134   8.305 -2.7673  1.4480 -0.6870
   27SAPC  C314 3653   1.549   5.213   8.511 -0.0881  0.0628 -0.7340
   27SAPC  H14X 3654   1.616   5.138   8.558 -0.0375  0.9850  0.7136
   27SAPC  H14Y 3655   1.442   5.183   8.521 -0.0367 -0.1976 -0.9602
   27SAPC  C315 3656   1.564   5.350   8.591 -0.3783 -0.2740 -0.2650
   27SAPC  H15X 3657   1.483   5.421   8.562  0.0733  0.0939 -0.6690
   27SAPC  H15Y 3658   1.660   5.397   8.558  0.6343 -1.0609  1.4377
   27SAPC  C316 3659   1.575   5.350   8.744  0.1511 -0.0510  0.5856
   27SAPC  H16X 3660   1.607   5.451   8.779  2.3838 -0.5729  0.2349
   27SAPC  H16Y 3661   1.656   5.281   8.777  1.4415  1.0534 -0.1396
   27SAPC  C317 3662   1.446   5.303   8.808 -0.0378  0.1116  0.7852
   27SAPC  H17X 3663   1.431   5.198   8.776  0.9083  0.6209 -1.5141
   27SAPC  H17Y 3664   1.358   5.366   8.782 -2.1936 -2.4533  1.5114
   27SAPC  C318 3665   1.456   5.294   8.957  0.6105 -0.5793 -0.3481
   27SAPC  H18X 3666   1.476   5.395   8.998 -1.6287 -0.0048 -0.5795
   27SAPC  H18Y 3667   1.527   5.216   8.993 -1.1160 -2.3233 -0.5407
   27SAPC  H18Z 3668   1.360   5.259   8.999  0.2263  0.9712  0.1023
   28SAPC     N 3669   6.321   4.620   5.681  0.6553 -0.1967  0.2949
   28SAPC   C12 3670   6.280   4.699   5.811  0.3775  0.4782  0.3891
   28SAPC  H12A 3671   6.179   4.672   5.839  0.3623  0.5096  0.3644
   28SAPC  H12B 3672   6.273   4.803   5.783  0.8675  0.3880 -0.0810
   28SAPC   C13 3673   6.318   4.468   5.696  0.1392  0.2291  0.2024
   28SAPC  H13A 3674   6.369   4.449   5.789  0.4945  1.6056  0.3086
   28SAPC  H13B 3675   6.216   4.433   5.688 -0.6674  2.4847 -0.0430
   28SAPC  H13C 3676   6.379   4.424   5.619  1.7432  0.4476  1.3090
   28SAPC   C14 3677   6.220   4.648   5.577 -0.6856  0.1813  0.6155
   28SAPC  H14A 3678   6.195   4.751   5.554  2.5383  0.8378 -0.3685
   28SAPC  H14B 3679   6.255   4.606   5.484 -1.5814  0.5203  0.1125
   28SAPC  H14C 3680   6.131   4.588   5.591 -0.6272 -0.4675 -1.3706
   28SAPC   C15 3681   6.457   4.660   5.651  0.0478 -0.7296  0.1434
   28SAPC  H15A 3682   6.533   4.618   5.715  0.5779  0.4153  0.2989
   28SAPC  H15B 3683   6.476   4.634   5.548 -3.2612  0.1459 -0.8135
   28SAPC  H15C 3684   6.468   4.767   5.662  0.2230 -0.7137 -0.1935
   28SAPC   C11 3685   6.366   4.683   5.936  0.6487  0.8112 -0.8319
   28SAPC  H11A 3686   6.330   4.753   6.014  0.1607  0.6416 -0.9003
   28SAPC  H11B 3687   6.472   4.711   5.922  0.8318  0.5064 -0.0995
   28SAPC     P 3688   6.239   4.499   6.074  0.2837  0.3205  0.3189
   28SAPC   O13 3689   6.108   4.560   6.023 -0.4529 -0.0716  0.2375
   28SAPC   O14 3690   6.246   4.353   6.070 -0.0735  0.3846  0.0517
   28SAPC   O12 3691   6.362   4.556   6.001 -0.7396  0.2066  0.9326
   28SAPC   O11 3692   6.261   4.556   6.223  0.0664 -0.6081 -0.0373
   28SAPC    C1 3693   6.381   4.512   6.285  0.1186  0.2226 -0.0613
   28SAPC    HA 3694   6.381   4.401   6.289  0.4230  0.1563 -1.4007
   28SAPC    HB 3695   6.470   4.538   6.224  0.3795  0.5232  0.4498
   28SAPC    C2 3696   6.388   4.568   6.431  0.5460  0.4183  0.3093
   28SAPC    HS 3697   6.487   4.541   6.473  0.2103  0.2841  1.0312
   28SAPC   O21 3698   6.282   4.511   6.514 -0.2075 -0.5059  0.0746
   28SAPC   C21 3699   6.310   4.517   6.643  0.7568 -0.7129 -0.4189
   28SAPC   O22 3700   6.418   4.551   6.693  0.0164  0.0171  0.1697
   28SAPC   C22 3701   6.179   4.482   6.714 -0.4911 -0.5139 -0.8732
   28SAPC   H2R 3702   6.134   4.581   6.733  0.5300  0.0005 -1.0642
   28SAPC   H2S 3703   6.115   4.435   6.637 -1.4236  0.2589 -0.5877
   28SAPC    C3 3704   6.380   4.727   6.431  0.2655  0.7937  0.0642
   28SAPC    HX 3705   6.288   4.764   6.381  0.6038 -0.3379 -1.4768
   28SAPC    HY 3706   6.462   4.762   6.365  0.2794 -0.2209 -0.4667
   28SAPC   O31 3707   6.385   4.789   6.554  0.2375 -0.6669  0.2588
   28SAPC   C31 3708   6.510   4.842   6.597 -0.1531  0.0484  0.3229
   28SAPC   O32 3709   6.618   4.828   6.539  0.4912  0.1943 -0.2981
   28SAPC   C32 3710   6.488   4.892   6.745  0.2048  0.1012 -0.8627
   28SAPC   H2X 3711   6.387   4.856   6.775  0.5050 -1.4578 -1.6339
   28SAPC   H2Y 3712   6.480   5.002   6.740 -2.6322  0.1732  1.8651
   28SAPC   C23 3713   6.187   4.389   6.843 -0.2615 -0.3959 -0.5941
   28SAPC   H3R 3714   6.260   4.306   6.830 -1.1356 -1.3912  0.5455
   28SAPC   H3S 3715   6.086   4.345   6.856 -0.1838 -0.2977  0.4285
   28SAPC   C24 3716   6.222   4.468   6.969 -0.5178 -0.1666  0.0386
   28SAPC   H4R 3717   6.248   4.400   7.053 -1.7723  1.1476  1.5603
   28SAPC   H4S 3718   6.319   4.521   6.953  0.8046 -2.2214  0.7699
   28SAPC   C25 3719   6.115   4.558   7.017 -0.1659  0.2908 -0.8260
   28SAPC   H5R 3720   6.086   4.639   6.949  0.1707  1.5988  0.5183
   28SAPC   C26 3721   6.063   4.563   7.144  0.4431  0.1976 -0.4536
   28SAPC   H6R 3722   5.980   4.632   7.163 -0.6742 -1.4963  1.2552
   28SAPC   C27 3723   6.094   4.484   7.270  0.5528 -0.0999  0.5132
   28SAPC   H7R 3724   6.166   4.544   7.330 -0.6044  0.9356  0.9074
   28SAPC   H7S 3725   6.150   4.389   7.253  0.3354 -0.5506  2.1498
   28SAPC   C28 3726   5.976   4.431   7.347  0.8031 -0.0981  0.0064
   28SAPC   H8R 3727   5.903   4.377   7.285  0.2005  0.9668 -0.2361
   28SAPC   C29 3728   5.965   4.431   7.482  0.3242  0.6268 -0.3859
   28SAPC   H9R 3729   5.865   4.407   7.521 -0.1153  1.8674 -0.6984
   28SAPC  C210 3730   6.063   4.488   7.585 -0.1277 -0.2903  0.0308
   28SAPC  H10R 3731   6.131   4.568   7.547 -0.8760  0.5181  0.3489
   28SAPC  H10S 3732   6.133   4.409   7.619  2.0200  1.3560 -0.3257
   28SAPC  C211 3733   5.996   4.561   7.701 -0.0014 -0.0667 -0.4444
   28SAPC  H11R 3734   5.931   4.645   7.675 -1.9032 -1.6174 -0.9531
   28SAPC  C212 3735   6.010   4.539   7.831  0.6137 -0.3502 -0.2310
   28SAPC  H12R 3736   5.941   4.589   7.901  1.0365 -0.0962  0.0161
   28SAPC  C213 3737   6.100   4.441   7.899 -0.4388  0.0610  0.5799
   28SAPC  H13R 3738   6.136   4.488   7.993 -2.0503  0.4872  1.0183
   28SAPC  H13S 3739   6.190   4.421   7.838  2.8444 -0.1675  5.0055
   28SAPC  C214 3740   6.032   4.313   7.935 -0.1872 -0.2811 -0.0733
   28SAPC  H14R 3741   6.024   4.238   7.855  0.3789  1.9929 -2.3898
   28SAPC  C215 3742   6.002   4.271   8.059  0.5808 -0.5011 -0.0121
   28SAPC  H15R 3743   5.972   4.166   8.067  3.7332 -1.4838  0.2102
   28SAPC  C216 3744   6.032   4.341   8.192  0.2481 -0.0000  0.5581
   28SAPC  H16R 3745   5.944   4.320   8.257 -0.7087  2.5451  0.2015
   28SAPC  H16S 3746   6.020   4.451   8.185 -1.3414  0.0689  3.0583
   28SAPC  C217 3747   6.170   4.333   8.249 -0.1410 -0.2260  0.0908
   28SAPC  H17R 3748   6.172   4.399   8.338  0.5782 -1.0720  0.7205
   28SAPC  H17S 3749   6.251   4.364   8.181 -1.0902  2.7825  0.1957
   28SAPC  C218 3750   6.190   4.190   8.295  0.5235 -0.0231  0.2273
   28SAPC  H18R 3751   6.295   4.196   8.332  0.0162  3.6200  1.4286
   28SAPC  H18S 3752   6.188   4.138   8.197 -0.9079  0.6961 -0.1463
   28SAPC  C219 3753   6.083   4.138   8.391 -0.0815 -0.4428 -0.1567
   28SAPC  H19R 3754   6.017   4.217   8.435  1.3743  0.6131  0.2162
   28SAPC  H19S 3755   6.128   4.107   8.488  1.2764  0.3424 -0.5230
   28SAPC  C220 3756   5.989   4.029   8.342  0.7642  0.2894 -0.7430
   28SAPC  H20R 3757   6.030   3.927   8.359  1.2264  0.5830 -0.0691
   28SAPC  H20S 3758   5.964   4.036   8.234  0.5601  1.4865 -0.6248
   28SAPC  H20T 3759   5.892   4.022   8.396  0.8251  0.5374 -0.6033
   28SAPC   C33 3760   6.605   4.861   6.840  0.1881  0.1860  0.2970
   28SAPC   H3X 3761   6.639   4.947   6.901  1.8985 -1.1093  1.2775
   28SAPC   H3Y 3762   6.697   4.824   6.790 -0.3223 -0.8474  0.0962
   28SAPC   C34 3763   6.557   4.758   6.946 -0.2253 -0.2163 -0.0540
   28SAPC   H4X 3764   6.538   4.657   6.903 -2.0383  0.6198 -1.3852
   28SAPC   H4Y 3765   6.464   4.801   6.989 -1.5160 -0.7760 -2.1240
   28SAPC   C35 3766   6.655   4.756   7.060  0.3808 -0.3116 -0.4548
   28SAPC   H5X 3767   6.671   4.860   7.095 -0.5389 -0.3192  0.0078
   28SAPC   H5Y 3768   6.760   4.732   7.030  0.2201  0.3895 -1.6362
   28SAPC   C36 3769   6.627   4.674   7.179  0.3617 -0.6596  0.1558
   28SAPC   H6X 3770   6.528   4.699   7.224  0.3603 -0.5057  0.0688
   28SAPC   H6Y 3771   6.699   4.692   7.262  0.6887 -0.8380 -0.0890
   28SAPC   C37 3772   6.617   4.529   7.144 -0.6662  0.5354  0.1184
   28SAPC   H7X 3773   6.707   4.501   7.086 -1.8328 -2.5670 -0.3944
   28SAPC   H7Y 3774   6.539   4.515   7.066  0.5059 -1.8271 -0.7340
   28SAPC   C38 3775   6.598   4.433   7.263 -0.0928 -0.2627  0.4146
   28SAPC   H8X 3776   6.676   4.455   7.339 -1.8856  0.8404  2.0302
   28SAPC   H8Y 3777   6.602   4.328   7.227  0.9492 -0.4941  1.1348
   28SAPC   C39 3778   6.461   4.439   7.337  0.3047 -0.3366  0.3204
   28SAPC   H9X 3779   6.389   4.376   7.281 -0.8386 -2.1116  3.5498
   28SAPC   H9Y 3780   6.417   4.541   7.334 -1.4618 -1.0684  0.3938
   28SAPC  C310 3781   6.463   4.382   7.473 -0.5675 -0.1852 -0.0288
   28SAPC  H10X 3782   6.494   4.276   7.485  0.4820  0.2180  1.0748
   28SAPC  H10Y 3783   6.358   4.394   7.505  0.3895  2.3549  2.5195
   28SAPC  C311 3784   6.543   4.467   7.571  0.1132  0.3100 -1.0288
   28SAPC  H11X 3785   6.552   4.570   7.531 -2.9291  0.4582 -1.5705
   28SAPC  H11Y 3786   6.649   4.436   7.583  0.3141  1.3104 -0.0205
   28SAPC  C312 3787   6.477   4.482   7.710 -0.0885  0.3967 -0.3512
   28SAPC  H12X 3788   6.370   4.504   7.691  0.2368  0.5556 -2.1896
   28SAPC  H12Y 3789   6.514   4.569   7.767 -0.8617  0.2977  0.3093
   28SAPC  C313 3790   6.467   4.355   7.794  0.4656  0.0286 -0.0155
   28SAPC  H13X 3791   6.523   4.274   7.742 -0.3014 -0.1670 -0.5583
   28SAPC  H13Y 3792   6.361   4.322   7.805  1.2682 -3.1796 -0.9246
   28SAPC  C314 3793   6.532   4.368   7.935 -0.0363  0.0876  0.1989
   28SAPC  H14X 3794   6.641   4.387   7.922  0.1675 -0.7190  0.6473
   28SAPC  H14Y 3795   6.535   4.275   7.995  1.1024 -0.5014 -0.7413
   28SAPC  C315 3796   6.467   4.469   8.031 -0.1568  0.0112  0.3792
   28SAPC  H15X 3797   6.359   4.442   8.028 -0.1529 -0.0264  0.6343
   28SAPC  H15Y 3798   6.467   4.568   7.979  2.0967  0.4648  1.1577
   28SAPC  C316 3799   6.529   4.503   8.168  0.3103 -0.7902 -0.1348
   28SAPC  H16X 3800   6.460   4.574   8.219  0.0832 -1.6087  0.7196
   28SAPC  H16Y 3801   6.630   4.545   8.145  0.4897  0.8216  3.0099
   28SAPC  C317 3802   6.547   4.376   8.251 -0.1490  0.2223  0.0418
   28SAPC  H17X 3803   6.640   4.322   8.219 -1.6944 -0.7217 -3.2654
   28SAPC  H17Y 3804   6.468   4.299   8.238 -2.9505  2.7766  1.0528
   28SAPC  C318 3805   6.539   4.409   8.405  0.6789 -0.5896  0.0325
   28SAPC  H18X 3806   6.571   4.320   8.463 -1.0550 -0.7449  0.8039
   28SAPC  H18Y 3807   6.436   4.442   8.432  0.9820  0.0176  0.4804
   28SAPC  H18Z 3808   6.601   4.497   8.430 -0.9257  1.3827 -2.3235
   29SAPC     N 3809   4.840   0.971   6.253  0.4586  0.0026  0.3117
   29SAPC   C12 3810   4.725   0.917   6.335 -0.6985  0.0004  0.5998
   29SAPC  H12A 3811   4.663   0.867   6.263  0.4263 -0.5172 -0.0373
   29SAPC  H12B 3812   4.667   0.994   6.384 -0.8849  0.3810 -0.2014
   29SAPC   C13 3813   4.797   1.095   6.187 -0.3781  0.7006 -0.1319
   29SAPC  H13A 3814   4.876   1.157   6.147  2.1369 -1.3894  1.2429
   29SAPC  H13B 3815   4.715   1.079   6.120 -0.1841 -1.4868  0.0799
   29SAPC  H13C 3816   4.753   1.161   6.260 -0.6273 -0.0659  0.4310
   29SAPC   C14 3817   4.959   1.014   6.327  0.1027  0.9602 -0.1703
   29SAPC  H14A 3818   5.007   0.935   6.382 -0.9399  1.0886  0.9604
   29SAPC  H14B 3819   5.024   1.046   6.246 -0.9621  0.3633 -1.2988
   29SAPC  H14C 3820   4.933   1.087   6.401 -4.5960  0.2802 -0.8351
   29SAPC   C15 3821   4.876   0.864   6.159  0.5946  0.5236  0.3252
   29SAPC  H15A 3822   4.970   0.890   6.114  0.5895  1.9512  1.0727
   29SAPC  H15B 3823   4.896   0.776   6.219 -2.0673 -0.3602  0.0782
   29SAPC  H15C 3824   4.800   0.824   6.093  0.6082 -1.4523  1.4139
   29SAPC   C11 3825   4.759   0.814   6.445 -0.6726 -0.4203  0.4816
   29SAPC  H11A 3826   4.673   0.788   6.510  0.9431  0.3528  3.1156
   29SAPC  H11B 3827   4.829   0.863   6.516  1.1970 -0.1639 -1.4453
   29SAPC     P 3828   4.951   0.629   6.440 -0.2301  0.1755 -0.0594
   29SAPC   O13 3829   4.962   0.486   6.390 -0.0639  0.3947 -0.4640
   29SAPC   O14 3830   5.067   0.723   6.415  0.2248  0.5967  0.3323
   29SAPC   O12 3831   4.820   0.698   6.384 -0.0228  0.3337 -0.2607
   29SAPC   O11 3832   4.914   0.636   6.593 -0.5765 -0.1622  0.0501
   29SAPC    C1 3833   4.830   0.540   6.654  0.9885  0.2398 -0.1030
   29SAPC    HA 3834   4.722   0.558   6.631  0.9744 -1.1840 -1.3386
   29SAPC    HB 3835   4.853   0.438   6.617  2.3127  0.9538 -1.3382
   29SAPC    C2 3836   4.846   0.542   6.808  0.3124  1.0583  0.4457
   29SAPC    HS 3837   4.781   0.461   6.844  0.9545  0.2578 -0.1559
   29SAPC   O21 3838   4.825   0.673   6.854  0.0573 -0.4567  0.3748
   29SAPC   C21 3839   4.700   0.708   6.859  0.3052 -0.4937  0.0861
   29SAPC   O22 3840   4.600   0.633   6.840  0.0042 -0.2788 -0.6882
   29SAPC   C22 3841   4.699   0.844   6.928  0.1905  0.1619  0.5173
   29SAPC   H2R 3842   4.788   0.856   6.994 -0.7897 -2.1654  2.4120
   29SAPC   H2S 3843   4.699   0.929   6.856 -0.9324  0.3616  0.7376
   29SAPC    C3 3844   4.997   0.512   6.857  0.2471  0.3585  0.4078
   29SAPC    HX 3845   5.056   0.591   6.806 -1.7104  1.0692 -0.8627
   29SAPC    HY 3846   5.040   0.419   6.814 -0.3003  1.0280 -1.6802
   29SAPC   O31 3847   5.016   0.524   6.997  0.5343 -0.3945 -0.4656
   29SAPC   C31 3848   4.976   0.422   7.063  0.2948 -0.3275 -0.3795
   29SAPC   O32 3849   4.945   0.313   7.021 -0.3582  0.3311 -0.9120
   29SAPC   C32 3850   4.979   0.455   7.212  0.1827  0.3179 -0.6931
   29SAPC   H2X 3851   4.921   0.374   7.261  0.7554 -0.6293 -1.5426
   29SAPC   H2Y 3852   4.930   0.553   7.232  1.5261  0.6754  1.1428
   29SAPC   C23 3853   4.582   0.852   7.028 -0.2697 -0.1147 -0.2622
   29SAPC   H3R 3854   4.484   0.826   6.983 -1.5059  1.0575  1.6093
   29SAPC   H3S 3855   4.559   0.957   7.057 -1.1586 -0.8569  1.9328
   29SAPC   C24 3856   4.599   0.773   7.156 -0.2810  0.2109  0.8172
   29SAPC   H4R 3857   4.698   0.789   7.203 -0.0247  2.0509 -0.2413
   29SAPC   H4S 3858   4.590   0.667   7.126  1.0653 -0.2835  2.0519
   29SAPC   C25 3859   4.484   0.804   7.246 -0.9856  0.5625 -0.1825
   29SAPC   H5R 3860   4.409   0.877   7.211 -0.9693  0.5426 -0.2588
   29SAPC   C26 3861   4.474   0.751   7.370  0.1962  0.8831 -0.1840
   29SAPC   H6R 3862   4.385   0.759   7.435  1.8178 -0.2430  2.3360
   29SAPC   C27 3863   4.569   0.646   7.429  1.0548 -0.2676 -0.1239
   29SAPC   H7R 3864   4.575   0.654   7.540 -1.9191  1.4718 -0.0028
   29SAPC   H7S 3865   4.672   0.645   7.386  1.2474  0.9564  0.2566
   29SAPC   C28 3866   4.511   0.511   7.391  0.5812  0.3706  0.4162
   29SAPC   H8R 3867   4.488   0.499   7.284  1.7997  0.0035  0.1829
   29SAPC   C29 3868   4.482   0.406   7.478 -0.4621  0.9686  0.0642
   29SAPC   H9R 3869   4.435   0.313   7.441  0.2512  1.8328 -3.3181
   29SAPC  C210 3870   4.501   0.427   7.629  0.2065 -0.3452 -0.4382
   29SAPC  H10R 3871   4.434   0.513   7.650 -0.2581 -0.0625 -2.7864
   29SAPC  H10S 3872   4.604   0.469   7.640 -1.2067  2.7893  3.0014
   29SAPC  C211 3873   4.479   0.312   7.722 -0.0389  0.5577 -0.2743
   29SAPC  H11R 3874   4.570   0.252   7.735 -2.1225 -2.6503  0.8357
   29SAPC  C212 3875   4.371   0.271   7.796  0.0621 -0.4866  0.4044
   29SAPC  H12R 3876   4.369   0.175   7.849 -2.7368 -1.5961 -1.4483
   29SAPC  C213 3877   4.239   0.341   7.794 -0.5784  0.8399  0.2486
   29SAPC  H13R 3878   4.221   0.375   7.690  1.2411 -1.6757 -0.9850
   29SAPC  H13S 3879   4.253   0.427   7.862  0.8942 -0.3733  1.5788
   29SAPC  C214 3880   4.119   0.263   7.840 -0.3750 -0.0442 -0.4787
   29SAPC  H14R 3881   4.037   0.268   7.767 -1.6024  1.6686  0.9431
   29SAPC  C215 3882   4.102   0.218   7.969 -0.3673 -0.4860  0.6787
   29SAPC  H15R 3883   4.015   0.152   7.981 -0.5206 -0.6549 -1.0375
   29SAPC  C216 3884   4.201   0.238   8.079  0.5304  0.2113 -0.3306
   29SAPC  H16R 3885   4.302   0.260   8.040  0.3273  3.6073  0.7236
   29SAPC  H16S 3886   4.212   0.138   8.125 -1.1801  0.1745  0.0632
   29SAPC  C217 3887   4.158   0.343   8.179 -0.1436  0.0806  0.1436
   29SAPC  H17R 3888   4.134   0.442   8.135  1.1385  0.5617  0.4835
   29SAPC  H17S 3889   4.243   0.355   8.249  0.0045 -1.0787  0.1915
   29SAPC  C218 3890   4.024   0.313   8.260  0.0351  0.3389 -0.0866
   29SAPC  H18R 3891   3.925   0.324   8.211  0.1741  0.2269 -0.3999
   29SAPC  H18S 3892   4.026   0.387   8.343 -0.6021  2.8795 -2.1996
   29SAPC  C219 3893   4.030   0.170   8.320 -0.3480  0.4714 -0.2244
   29SAPC  H19R 3894   4.129   0.154   8.367  0.3970 -0.4329 -2.0029
   29SAPC  H19S 3895   4.025   0.096   8.237  0.7835  0.0244  0.0933
   29SAPC  C220 3896   3.929   0.146   8.426  0.0369 -0.3381  0.2673
   29SAPC  H20R 3897   3.836   0.112   8.375 -0.6846  2.1522 -0.2242
   29SAPC  H20S 3898   3.918   0.243   8.478 -0.9845  0.4498 -1.3501
   29SAPC  H20T 3899   3.959   0.062   8.492 -0.4147 -1.0273 -0.3755
   29SAPC   C33 3900   5.120   0.445   7.262 -0.4569  0.0272  0.4729
   29SAPC   H3X 3901   5.177   0.531   7.221  0.1160  0.7769  2.7163
   29SAPC   H3Y 3902   5.178   0.359   7.223 -0.1549 -0.4978  1.9904
   29SAPC   C34 3903   5.143   0.464   7.411  0.2366 -0.1630 -0.4973
   29SAPC   H4X 3904   5.099   0.563   7.435  2.2708  0.6888 -0.0868
   29SAPC   H4Y 3905   5.248   0.476   7.442  0.3045 -0.1982 -0.7094
   29SAPC   C35 3906   5.069   0.364   7.502 -0.0491  0.1901  0.3321
   29SAPC   H5X 3907   5.118   0.265   7.495  1.2641  0.7208  1.3828
   29SAPC   H5Y 3908   4.965   0.357   7.465 -0.2550  0.2961  0.8805
   29SAPC   C36 3909   5.045   0.416   7.642 -0.3973  0.2516 -0.6789
   29SAPC   H6X 3910   5.028   0.526   7.645  1.6508  0.5925  0.9001
   29SAPC   H6Y 3911   5.142   0.408   7.695 -0.2960  1.1372 -0.7222
   29SAPC   C37 3912   4.941   0.338   7.718  0.1107  0.0108 -0.0002
   29SAPC   H7X 3913   4.992   0.240   7.732  1.4970  0.8097  0.7260
   29SAPC   H7Y 3914   4.853   0.336   7.650  1.7435  0.9331 -2.2379
   29SAPC   C38 3915   4.909   0.397   7.861 -0.5409  0.7606  0.2319
   29SAPC   H8X 3916   4.850   0.491   7.850  0.1190  1.0540 -0.9987
   29SAPC   H8Y 3917   5.003   0.419   7.915 -0.5721  0.4316  0.4180
   29SAPC   C39 3918   4.832   0.299   7.947 -0.5137  0.4884  0.0505
   29SAPC   H9X 3919   4.891   0.232   8.014 -1.3696 -2.2324 -1.7440
   29SAPC   H9Y 3920   4.773   0.240   7.874 -0.9502  0.8682  0.0957
   29SAPC  C310 3921   4.730   0.377   8.039  0.1951  0.1540  0.1580
   29SAPC  H10X 3922   4.682   0.455   7.977 -0.3344 -0.0747  0.2698
   29SAPC  H10Y 3923   4.781   0.422   8.127  0.4294 -0.2891  0.2506
   29SAPC  C311 3924   4.622   0.282   8.092  0.2758  0.0106  0.1160
   29SAPC  H11X 3925   4.569   0.247   8.000 -0.4723  1.3196  0.0239
   29SAPC  H11Y 3926   4.546   0.336   8.152 -1.4915 -0.8703 -1.2306
   29SAPC  C312 3927   4.676   0.156   8.169  1.0576 -0.2737  0.5726
   29SAPC  H12X 3928   4.729   0.188   8.262  0.4549 -1.5479  1.3894
   29SAPC  H12Y 3929   4.742   0.095   8.104 -1.3678 -1.1495 -1.1618
   29SAPC  C313 3930   4.558   0.072   8.204 -0.4212  0.1736 -0.3261
   29SAPC  H13X 3931   4.609  -0.027   8.215  1.4576  0.8620 -2.2295
   29SAPC  H13Y 3932   4.490   0.060   8.117 -1.8015 -2.7138  1.0070
   29SAPC  C314 3933   4.490   0.093   8.341 -0.5755 -0.5125 -0.4335
   29SAPC  H14X 3934   4.423   0.182   8.335 -1.5629 -1.1757  0.4182
   29SAPC  H14Y 3935   4.564   0.112   8.422 -1.4262  1.4748 -0.0548
   29SAPC  C315 3936   4.390  -0.009   8.388  0.2788 -0.4798 -0.3231
   29SAPC  H15X 3937   4.427  -0.114   8.385  1.6508  0.0104 -1.4939
   29SAPC  H15Y 3938   4.299  -0.006   8.324 -0.6154 -0.4370  0.9176
   29SAPC  C316 3939   4.348   0.009   8.536  0.4460 -0.6488  0.0321
   29SAPC  H16X 3940   4.302   0.110   8.544  0.4579 -0.5567 -0.9050
   29SAPC  H16Y 3941   4.438   0.023   8.599 -0.7749 -0.4332  1.8158
   29SAPC  C317 3942   4.241  -0.086   8.594  0.1122 -0.7044  0.1451
   29SAPC  H17X 3943   4.292  -0.183   8.613 -0.6663 -1.3232 -0.8522
   29SAPC  H17Y 3944   4.170  -0.115   8.514  1.9061 -3.5479 -0.5903
   29SAPC  C318 3945   4.178  -0.044   8.726 -0.2607 -0.1706 -0.1606
   29SAPC  H18X 3946   4.106   0.040   8.710  0.7948  0.8775  0.4771
   29SAPC  H18Y 3947   4.261  -0.008   8.789  1.8408 -0.5505 -2.5519
   29SAPC  H18Z 3948   4.121  -0.123   8.779  0.5451 -1.2837 -0.9155
   30SAPC     N 3949   2.458   1.933   6.248 -0.2041  0.1728  1.0558
   30SAPC   C12 3950   2.539   1.890   6.373  0.1748  0.1982 -0.0136
   30SAPC  H12A 3951   2.546   1.782   6.376  0.3325  0.2318  1.4044
   30SAPC  H12B 3952   2.488   1.923   6.463  1.2607  0.6324  0.4524
   30SAPC   C13 3953   2.531   1.885   6.120  0.2327 -1.0217  0.0683
   30SAPC  H13A 3954   2.545   1.779   6.108  2.0465 -0.9135  0.9099
   30SAPC  H13B 3955   2.466   1.919   6.040 -0.3729 -1.2894  0.4390
   30SAPC  H13C 3956   2.630   1.927   6.113  1.2490 -3.1536  0.8648
   30SAPC   C14 3957   2.322   1.870   6.261  0.0866  0.0461  0.4171
   30SAPC  H14A 3958   2.331   1.765   6.284  0.7606 -0.1499 -0.6868
   30SAPC  H14B 3959   2.262   1.912   6.341 -0.7995  0.9206 -0.6838
   30SAPC  H14C 3960   2.271   1.871   6.166  0.0889  1.9500  0.4039
   30SAPC   C15 3961   2.445   2.080   6.245  0.4012  0.4788 -0.6581
   30SAPC  H15A 3962   2.372   2.111   6.318 -0.3920  0.3180 -1.3695
   30SAPC  H15B 3963   2.536   2.134   6.266  0.8270 -0.1881 -0.7346
   30SAPC  H15C 3964   2.411   2.124   6.153 -0.3173  1.3042 -0.0091
   30SAPC   C11 3965   2.681   1.950   6.393 -0.0439 -0.5824  0.4264
   30SAPC  H11A 3966   2.725   1.914   6.489  0.4935 -0.7636  0.1167
   30SAPC  H11B 3967   2.669   2.060   6.401  2.0398 -0.3245  0.4282
   30SAPC     P 3968   2.845   1.783   6.265 -0.1588  0.0701 -0.1749
   30SAPC   O13 3969   2.746   1.683   6.213 -0.0565 -0.6520 -0.1732
   30SAPC   O14 3970   2.963   1.819   6.177 -0.0211  0.7221 -0.0502
   30SAPC   O12 3971   2.764   1.922   6.279 -0.1563  0.3755 -0.0066
   30SAPC   O11 3972   2.900   1.741   6.399  0.5348  0.2840 -0.3468
   30SAPC    C1 3973   2.972   1.825   6.489  0.1016  0.0190 -0.7567
   30SAPC    HA 3974   3.076   1.838   6.452  0.3396 -0.6196 -0.3243
   30SAPC    HB 3975   2.938   1.931   6.485  0.6055  0.1574 -1.7662
   30SAPC    C2 3976   2.971   1.757   6.636 -0.0427  0.1248  0.3113
   30SAPC    HS 3977   2.872   1.756   6.688  0.1875 -1.5053  0.7680
   30SAPC   O21 3978   3.065   1.831   6.713 -0.3192  0.0169 -0.0780
   30SAPC   C21 3979   3.026   1.942   6.762  0.5217  0.0199  0.2629
   30SAPC   O22 3980   2.912   1.987   6.746  0.0671 -0.3336 -0.1331
   30SAPC   C22 3981   3.148   2.021   6.821 -0.1784  0.1131  0.0982
   30SAPC   H2R 3982   3.220   2.009   6.738 -0.3081 -2.1456  0.2472
   30SAPC   H2S 3983   3.115   2.126   6.837  0.7100  0.4043  0.0578
   30SAPC    C3 3984   3.017   1.611   6.635 -0.0512 -0.6244 -0.6527
   30SAPC    HX 3985   3.115   1.628   6.585 -0.3988 -0.0384 -1.1587
   30SAPC    HY 3986   2.955   1.537   6.581 -1.1765  0.1033 -0.3915
   30SAPC   O31 3987   3.039   1.575   6.774 -0.1287  0.4962 -0.2195
   30SAPC   C31 3988   3.160   1.549   6.812 -0.1515  0.6735  0.0635
   30SAPC   O32 3989   3.263   1.547   6.749 -0.4679  0.1389 -0.2334
   30SAPC   C32 3990   3.165   1.528   6.966  0.4936 -0.5233  0.4393
   30SAPC   H2X 3991   3.167   1.418   6.986 -0.2041 -0.5908  0.1757
   30SAPC   H2Y 3992   3.069   1.567   7.005  0.5052  1.1350 -1.0692
   30SAPC   C23 3993   3.193   1.969   6.960 -0.4801 -0.3757 -0.1386
   30SAPC   H3R 3994   3.181   1.859   6.950 -4.5716 -0.0211 -1.0499
   30SAPC   H3S 3995   3.126   2.006   7.041 -1.3947 -0.5962 -0.7713
   30SAPC   C24 3996   3.339   2.006   6.984 -0.5064  0.0522 -0.1156
   30SAPC   H4R 3997   3.370   1.961   7.081  1.1408  1.3802  0.0152
   30SAPC   H4S 3998   3.350   2.115   7.001  1.5704  0.0068 -0.9318
   30SAPC   C25 3999   3.437   1.951   6.882 -0.6460 -0.2103 -0.1447
   30SAPC   H5R 4000   3.393   1.937   6.782 -1.6060  0.8201  0.1171
   30SAPC   C26 4001   3.569   1.913   6.914  0.5579 -0.1605  0.2482
   30SAPC   H6R 4002   3.638   1.886   6.833 -0.1416  1.0829 -0.7852
   30SAPC   C27 4003   3.628   1.903   7.050 -0.1179 -0.7728 -0.5784
   30SAPC   H7R 4004   3.583   1.980   7.116  0.9550 -1.6191  1.2458
   30SAPC   H7S 4005   3.736   1.928   7.043 -0.0207 -0.6475  0.9385
   30SAPC   C28 4006   3.612   1.766   7.106 -0.6858 -0.3463  0.4959
   30SAPC   H8R 4007   3.570   1.685   7.046  1.8235 -0.9618 -0.5664
   30SAPC   C29 4008   3.663   1.751   7.230  0.4622  0.1046 -0.3906
   30SAPC   H9R 4009   3.662   1.648   7.267  1.3601  0.8809  1.9987
   30SAPC  C210 4010   3.720   1.845   7.325 -0.3884 -1.0314 -0.3209
   30SAPC  H10R 4011   3.703   1.948   7.285 -1.5999 -0.4666  1.5338
   30SAPC  H10S 4012   3.830   1.829   7.334  0.0638  1.6908 -0.0750
   30SAPC  C211 4013   3.654   1.825   7.457 -0.7457 -0.1846 -0.7133
   30SAPC  H11R 4014   3.712   1.765   7.529  0.4536  1.3272 -0.3632
   30SAPC  C212 4015   3.526   1.864   7.485  0.6412 -0.4701 -0.5551
   30SAPC  H12R 4016   3.485   1.846   7.585 -0.9949  1.9071 -0.7129
   30SAPC  C213 4017   3.432   1.946   7.390  0.1688  0.3983 -0.6360
   30SAPC  H13R 4018   3.405   1.865   7.319  2.5282  0.0802 -1.2504
   30SAPC  H13S 4019   3.496   2.020   7.338  1.1042 -0.6523 -0.9999
   30SAPC  C214 4020   3.313   2.005   7.463 -0.3955  0.3658 -0.1262
   30SAPC  H14R 4021   3.248   1.947   7.530  1.0130  0.4793  1.3957
   30SAPC  C215 4022   3.293   2.135   7.456  0.2726 -0.2226 -0.0025
   30SAPC  H15R 4023   3.204   2.164   7.512  1.3768  1.9043  0.7456
   30SAPC  C216 4024   3.360   2.242   7.382 -0.9612 -0.1984  0.3224
   30SAPC  H16R 4025   3.390   2.213   7.279  0.9576  0.2308  0.7173
   30SAPC  H16S 4026   3.457   2.267   7.431 -0.8348 -1.2674  0.6431
   30SAPC  C217 4027   3.275   2.375   7.369  0.5550  0.3481 -0.1525
   30SAPC  H17R 4028   3.338   2.463   7.343 -1.1852  2.0915  1.2473
   30SAPC  H17S 4029   3.239   2.400   7.471  1.0180 -1.3196  0.4553
   30SAPC  C218 4030   3.160   2.364   7.274 -0.4010  0.4119 -0.5898
   30SAPC  H18R 4031   3.094   2.451   7.297 -3.1882 -1.6366 -0.2502
   30SAPC  H18S 4032   3.096   2.274   7.284 -0.2009  0.0973 -1.9661
   30SAPC  C219 4033   3.198   2.379   7.120  0.0778 -0.0717 -0.0931
   30SAPC  H19R 4034   3.284   2.311   7.107 -1.4648 -2.0697 -0.3905
   30SAPC  H19S 4035   3.237   2.481   7.097 -2.3063  0.6797 -1.1274
   30SAPC  C220 4036   3.070   2.352   7.040  0.2183  0.2860 -0.0994
   30SAPC  H20R 4037   3.090   2.363   6.931  1.9903  2.0798  0.3427
   30SAPC  H20S 4038   2.978   2.409   7.065 -1.7826 -2.5934 -0.3763
   30SAPC  H20T 4039   3.042   2.245   7.049 -0.4990  0.6205  2.2661
   30SAPC   C33 4040   3.290   1.592   7.041  0.3554  0.6843  0.4509
   30SAPC   H3X 4041   3.293   1.701   7.020 -2.2215  0.9547  1.0711
   30SAPC   H3Y 4042   3.386   1.554   7.001 -0.2092 -0.5310  0.2037
   30SAPC   C34 4043   3.276   1.571   7.195  0.3614 -0.5324  0.6199
   30SAPC   H4X 4044   3.373   1.601   7.239  1.9373  1.6199 -3.7787
   30SAPC   H4Y 4045   3.257   1.464   7.218 -2.3904 -0.4042 -0.6728
   30SAPC   C35 4046   3.158   1.654   7.258 -0.3841  0.0552  0.0267
   30SAPC   H5X 4047   3.065   1.632   7.202 -0.8446 -0.3091  0.9127
   30SAPC   H5Y 4048   3.170   1.763   7.276 -3.8763  0.5595 -0.0006
   30SAPC   C36 4049   3.122   1.603   7.399 -0.2165 -0.7173  0.9663
   30SAPC   H6X 4050   3.077   1.502   7.397 -0.2017 -0.7565  2.1151
   30SAPC   H6Y 4051   3.045   1.680   7.420  0.0885  0.9839 -3.1058
   30SAPC   C37 4052   3.243   1.610   7.492  0.5082  0.5690 -0.1113
   30SAPC   H7X 4053   3.288   1.710   7.481 -1.2512  1.2027 -2.2074
   30SAPC   H7Y 4054   3.325   1.544   7.457 -1.0440 -1.3551 -0.3542
   30SAPC   C38 4055   3.199   1.575   7.636 -0.5089  0.1668  0.3246
   30SAPC   H8X 4056   3.140   1.481   7.628 -1.6107  0.9404 -1.1909
   30SAPC   H8Y 4057   3.124   1.649   7.671 -1.3388 -1.3949  2.0905
   30SAPC   C39 4058   3.315   1.571   7.738  0.3472  0.0183  0.7364
   30SAPC   H9X 4059   3.353   1.676   7.734  0.7299 -0.0571  1.9773
   30SAPC   H9Y 4060   3.394   1.501   7.704 -1.2314 -0.8691 -1.3520
   30SAPC  C310 4061   3.269   1.544   7.879 -0.1825 -0.7814 -0.5044
   30SAPC  H10X 4062   3.366   1.552   7.934 -0.6477  0.3894  0.1827
   30SAPC  H10Y 4063   3.227   1.442   7.894 -1.3413 -0.5974 -2.2996
   30SAPC  C311 4064   3.158   1.636   7.935 -0.4156 -0.4815 -0.7128
   30SAPC  H11X 4065   3.069   1.601   7.880 -0.6671 -2.5062  0.8477
   30SAPC  H11Y 4066   3.185   1.742   7.912  0.0090 -0.2898  0.5719
   30SAPC  C312 4067   3.154   1.629   8.083 -0.0035  0.2373  0.0418
   30SAPC  H12X 4068   3.090   1.713   8.116 -0.9951 -0.3108 -0.4306
   30SAPC  H12Y 4069   3.252   1.658   8.125 -1.1333 -1.1738  4.0998
   30SAPC  C313 4070   3.105   1.503   8.149 -0.6982 -0.2254  0.1914
   30SAPC  H13X 4071   3.180   1.424   8.128  0.0434  0.6192 -0.4867
   30SAPC  H13Y 4072   3.004   1.474   8.113 -1.8094  2.9375  0.4363
   30SAPC  C314 4073   3.121   1.507   8.303  0.2661 -0.4505 -0.2896
   30SAPC  H14X 4074   3.222   1.545   8.330  0.5008  1.0401 -2.9742
   30SAPC  H14Y 4075   3.120   1.404   8.345 -3.6193 -0.2701  0.5164
   30SAPC  C315 4076   3.005   1.582   8.370  0.3679 -0.3361 -0.1255
   30SAPC  H15X 4077   2.910   1.526   8.359 -0.7027  1.2005  0.8117
   30SAPC  H15Y 4078   2.993   1.684   8.327 -1.3069 -1.0211 -1.3836
   30SAPC  C316 4079   3.020   1.605   8.520 -0.4702  0.2157  0.2341
   30SAPC  H16X 4080   3.024   1.509   8.575  0.0018  0.6789  1.0432
   30SAPC  H16Y 4081   2.940   1.663   8.571 -0.8009  0.9274 -1.0572
   30SAPC  C317 4082   3.137   1.692   8.553 -0.6889  0.0309 -0.4849
   30SAPC  H17X 4083   3.146   1.762   8.467 -1.2979 -0.4794 -0.9736
   30SAPC  H17Y 4084   3.232   1.637   8.570 -1.4776 -0.9940  0.7668
   30SAPC  C318 4085   3.124   1.775   8.682 -0.2712  0.1441  0.6295
   30SAPC  H18X 4086   3.160   1.698   8.753  3.6784  0.0687 -1.1903
   30SAPC  H18Y 4087   3.028   1.828   8.700  0.2127  0.2569  3.2248
   30SAPC  H18Z 4088   3.200   1.855   8.689  0.8512 -0.8639  0.2018
   31SAPC     N 4089   4.667   6.673   6.166  0.1690 -0.9083 -0.7578
   31SAPC   C12 4090   4.702   6.729   6.308 -0.5240  0.6326  0.0412
   31SAPC  H12A 4091   4.618   6.783   6.351 -1.6694 -0.7990 -0.3268
   31SAPC  H12B 4092   4.784   6.797   6.290 -0.6243  0.5431 -0.8113
   31SAPC   C13 4093   4.528   6.624   6.166  0.6639 -0.4170 -0.0791
   31SAPC  H13A 4094   4.459   6.698   6.205  0.9757  0.2122 -0.6992
   31SAPC  H13B 4095   4.486   6.602   6.069 -1.2756 -0.1160  0.6325
   31SAPC  H13C 4096   4.506   6.534   6.222  2.4204 -0.8283 -0.0074
   31SAPC   C14 4097   4.674   6.780   6.071  0.4483 -0.7220  0.0823
   31SAPC  H14A 4098   4.642   6.742   5.976 -0.4919  0.1373  0.0404
   31SAPC  H14B 4099   4.617   6.867   6.101  3.0222  1.2716 -0.4390
   31SAPC  H14C 4100   4.777   6.813   6.058 -0.4513  1.3541 -3.3215
   31SAPC   C15 4101   4.764   6.570   6.123 -0.2873  0.3740 -0.3935
   31SAPC  H15A 4102   4.757   6.543   6.019 -1.6611  0.4431 -0.3383
   31SAPC  H15B 4103   4.867   6.593   6.147  0.2284 -2.7941  0.8959
   31SAPC  H15C 4104   4.745   6.480   6.179 -0.2963 -1.0785 -2.5916
   31SAPC   C11 4105   4.754   6.629   6.415 -0.0854 -0.1198 -0.7063
   31SAPC  H11A 4106   4.780   6.692   6.503  1.4567 -1.1789 -0.3730
   31SAPC  H11B 4107   4.851   6.584   6.386 -0.0266 -0.9380  0.6574
   31SAPC     P 4108   4.691   6.370   6.447 -0.0477  0.0418 -0.0725
   31SAPC   O13 4109   4.612   6.295   6.549 -0.3798 -0.1624  0.0100
   31SAPC   O14 4110   4.696   6.327   6.308 -0.1987  0.0083 -0.6717
   31SAPC   O12 4111   4.657   6.526   6.449 -0.0236 -0.2030  0.4654
   31SAPC   O11 4112   4.842   6.367   6.501  0.6118 -0.4714  0.4459
   31SAPC    C1 4113   4.917   6.249   6.509  0.3389 -0.6827 -0.1992
   31SAPC    HA 4114   4.868   6.155   6.542 -0.3022 -0.2109  0.2057
   31SAPC    HB 4115   4.969   6.228   6.413  3.2636  1.0433  0.8918
   31SAPC    C2 4116   5.033   6.278   6.616  0.0588 -0.5352 -0.3763
   31SAPC    HS 4117   5.117   6.208   6.597 -0.7760 -1.2284 -1.6943
   31SAPC   O21 4118   4.983   6.279   6.753  0.8181  0.2995 -0.0098
   31SAPC   C21 4119   5.017   6.177   6.831  0.5231 -0.1893 -0.2305
   31SAPC   O22 4120   5.079   6.079   6.795 -0.1282  0.2476 -0.1216
   31SAPC   C22 4121   4.966   6.196   6.968  0.0281 -0.1771 -0.3353
   31SAPC   H2R 4122   4.860   6.164   6.959  0.2190 -0.9228 -0.0492
   31SAPC   H2S 4123   5.010   6.127   7.043  0.0454  0.7646  0.5348
   31SAPC    C3 4124   5.093   6.422   6.599  0.3587 -0.9205  0.7345
   31SAPC    HX 4125   5.005   6.487   6.618  1.2046 -0.0723  1.9008
   31SAPC    HY 4126   5.135   6.441   6.497 -0.5299  0.2911  0.5717
   31SAPC   O31 4127   5.184   6.453   6.705  0.1650 -0.7068 -0.2715
   31SAPC   C31 4128   5.222   6.577   6.711  0.0158 -0.1300 -0.0639
   31SAPC   O32 4129   5.194   6.662   6.632  0.1523  0.1760  0.6569
   31SAPC   C32 4130   5.322   6.596   6.827  1.1690 -0.2024  0.4712
   31SAPC   H2X 4131   5.407   6.645   6.775 -0.1771  2.7897  0.8785
   31SAPC   H2Y 4132   5.351   6.495   6.862  1.3481 -0.1103  0.5914
   31SAPC   C23 4133   4.994   6.334   7.027 -0.4184  0.2888  0.0803
   31SAPC   H3R 4134   4.949   6.335   7.129 -0.0345  0.5165  0.2504
   31SAPC   H3S 4135   4.934   6.408   6.971 -0.8050 -1.0863 -1.3940
   31SAPC   C24 4136   5.144   6.372   7.034 -0.1608 -0.3308 -0.4632
   31SAPC   H4R 4137   5.146   6.476   7.072 -1.9904 -0.9371  1.4892
   31SAPC   H4S 4138   5.184   6.377   6.931  0.9028  1.7041 -0.0197
   31SAPC   C25 4139   5.239   6.292   7.120  0.4435  0.4110 -0.1992
   31SAPC   H5R 4140   5.269   6.197   7.074 -1.4512 -1.0773  1.4339
   31SAPC   C26 4141   5.291   6.325   7.241 -0.0398  0.3211  0.1153
   31SAPC   H6R 4142   5.357   6.250   7.288 -0.1585  0.3350  0.3035
   31SAPC   C27 4143   5.265   6.443   7.337 -1.0670  0.5024  0.4176
   31SAPC   H7R 4144   5.198   6.522   7.296  0.4656  1.8584  0.4485
   31SAPC   H7S 4145   5.365   6.486   7.356 -0.5042 -1.2063  1.6136
   31SAPC   C28 4146   5.204   6.408   7.472  0.4805  0.0754  0.2346
   31SAPC   H8R 4147   5.097   6.427   7.485  0.9751  2.7655  0.8973
   31SAPC   C29 4148   5.275   6.376   7.581 -0.3409  0.6542 -0.4584
   31SAPC   H9R 4149   5.216   6.341   7.667  1.1490  1.8556  1.0939
   31SAPC  C210 4150   5.426   6.367   7.603 -0.0099  0.0725  0.8337
   31SAPC  H10R 4151   5.482   6.455   7.565  0.0845 -0.2276  0.2631
   31SAPC  H10S 4152   5.462   6.278   7.546 -1.6273 -1.1059  1.5835
   31SAPC  C211 4153   5.464   6.362   7.745 -0.0754 -0.2267  1.2073
   31SAPC  H11R 4154   5.512   6.267   7.774  3.6115  0.5571 -1.5666
   31SAPC  C212 4155   5.446   6.455   7.844  0.0816  0.4374  0.2509
   31SAPC  H12R 4156   5.480   6.435   7.947  0.7812 -0.7626 -0.1978
   31SAPC  C213 4157   5.394   6.588   7.803 -0.7809  0.1037 -1.0083
   31SAPC  H13R 4158   5.283   6.587   7.812 -0.9946  1.0299 -3.0729
   31SAPC  H13S 4159   5.417   6.608   7.696  4.9350 -0.1205 -0.1291
   31SAPC  C214 4160   5.463   6.685   7.905 -0.2340 -0.1587  0.0181
   31SAPC  H14R 4161   5.569   6.713   7.894 -0.5326  1.5955  1.1217
   31SAPC  C215 4162   5.393   6.747   8.009 -0.4044 -0.5501 -0.0052
   31SAPC  H15R 4163   5.436   6.826   8.072 -0.2579  0.5608 -1.4190
   31SAPC  C216 4164   5.250   6.727   8.050  0.3464 -0.5891 -0.4252
   31SAPC  H16R 4165   5.249   6.701   8.158 -0.8594 -0.0576 -0.2920
   31SAPC  H16S 4166   5.205   6.642   7.995  1.5437 -1.1447 -0.5756
   31SAPC  C217 4167   5.157   6.847   8.027 -0.2195  0.3965 -0.2274
   31SAPC  H17R 4168   5.047   6.828   8.030 -0.3025  0.9823  1.6249
   31SAPC  H17S 4169   5.179   6.891   7.927 -3.9002  1.5494 -0.6969
   31SAPC  C218 4170   5.171   6.954   8.132  0.1081  0.2133 -0.0111
   31SAPC  H18R 4171   5.095   7.031   8.108 -0.4789 -0.1875  0.5135
   31SAPC  H18S 4172   5.272   6.999   8.140  0.5629 -0.9495  1.0434
   31SAPC  C219 4173   5.139   6.903   8.281  0.0756  0.0043  0.0259
   31SAPC  H19R 4174   5.211   6.822   8.307  0.4841  0.1468 -0.6298
   31SAPC  H19S 4175   5.040   6.853   8.279 -0.9331  1.9285 -0.9072
   31SAPC  C220 4176   5.131   7.019   8.388 -0.1133  1.0543  0.4910
   31SAPC  H20R 4177   5.146   6.978   8.490 -1.5185 -1.3341 -0.1782
   31SAPC  H20S 4178   5.029   7.064   8.387 -1.7694 -2.0655  4.0808
   31SAPC  H20T 4179   5.211   7.096   8.389  0.5279  0.4208  2.7118
   31SAPC   C33 4180   5.264   6.694   6.931  0.3740  0.4341  0.5791
   31SAPC   H3X 4181   5.154   6.684   6.940  0.0927 -1.2220 -2.9924
   31SAPC   H3Y 4182   5.279   6.796   6.891  1.3671  0.0062 -0.1914
   31SAPC   C34 4183   5.337   6.686   7.067  0.1077 -0.4958  0.4715
   31SAPC   H4X 4184   5.443   6.713   7.045 -0.4320 -0.9555 -3.2829
   31SAPC   H4Y 4185   5.333   6.583   7.107 -0.4639  0.6160  3.5260
   31SAPC   C35 4186   5.271   6.785   7.173 -0.4175  0.9671 -0.4743
   31SAPC   H5X 4187   5.180   6.729   7.203  0.5866 -0.3751  0.1730
   31SAPC   H5Y 4188   5.252   6.875   7.111 -0.4398  0.6619 -0.9193
   31SAPC   C36 4189   5.358   6.816   7.299  0.0520 -0.1368 -0.5869
   31SAPC   H6X 4190   5.455   6.852   7.258 -0.1006  3.0544  1.5412
   31SAPC   H6Y 4191   5.371   6.719   7.352 -2.1011  0.2063  0.7239
   31SAPC   C37 4192   5.288   6.906   7.398 -0.0540  0.0404  0.6136
   31SAPC   H7X 4193   5.195   6.856   7.433  1.5920 -2.0628  2.2283
   31SAPC   H7Y 4194   5.261   7.003   7.349  0.5984 -1.3920 -2.9215
   31SAPC   C38 4195   5.385   6.928   7.510 -0.6246  0.2643 -0.3011
   31SAPC   H8X 4196   5.484   6.969   7.480 -0.8914  4.2778  3.3026
   31SAPC   H8Y 4197   5.400   6.827   7.554 -0.2936 -0.8825 -2.8811
   31SAPC   C39 4198   5.344   7.035   7.610  0.4637  0.9393  0.4319
   31SAPC   H9X 4199   5.249   7.000   7.655  0.8830  0.2921  0.8239
   31SAPC   H9Y 4200   5.323   7.132   7.560 -2.3119  0.4135  0.3927
   31SAPC  C310 4201   5.445   7.044   7.716  0.2649 -0.1181 -0.2861
   31SAPC  H10X 4202   5.535   7.092   7.670  0.5665  0.4861  0.9094
   31SAPC  H10Y 4203   5.470   6.942   7.751  0.0741  0.3376  1.2402
   31SAPC  C311 4204   5.395   7.126   7.833 -0.5784 -0.7399  0.1814
   31SAPC  H11X 4205   5.309   7.066   7.870 -0.4774  0.4226  2.4116
   31SAPC  H11Y 4206   5.352   7.217   7.785 -0.4064  1.3381  3.6614
   31SAPC  C312 4207   5.484   7.167   7.953 -0.0572 -0.5061  0.2142
   31SAPC  H12X 4208   5.573   7.213   7.905  0.4206 -2.7189 -1.1543
   31SAPC  H12Y 4209   5.517   7.077   8.009 -1.1846 -2.2686 -1.8181
   31SAPC  C313 4210   5.413   7.264   8.057 -0.7351  0.1600 -0.3514
   31SAPC  H13X 4211   5.346   7.199   8.118 -0.4912  1.1864  1.0610
   31SAPC  H13Y 4212   5.354   7.346   8.011 -1.8400 -0.2033  0.3671
   31SAPC  C314 4213   5.504   7.322   8.167 -0.0163 -0.1646 -0.6493
   31SAPC  H14X 4214   5.467   7.406   8.229  3.5069  2.4692 -1.7829
   31SAPC  H14Y 4215   5.583   7.374   8.108 -2.0804  1.5250 -2.1144
   31SAPC  C315 4216   5.562   7.225   8.265 -0.5751 -0.5213 -0.3274
   31SAPC  H15X 4217   5.608   7.138   8.212  0.4263  0.3073 -0.8672
   31SAPC  H15Y 4218   5.488   7.180   8.334 -1.7360  0.0253 -1.1762
   31SAPC  C316 4219   5.664   7.292   8.354 -0.0352  0.4189 -0.8620
   31SAPC  H16X 4220   5.621   7.386   8.393  0.6195  0.9152 -1.3014
   31SAPC  H16Y 4221   5.752   7.315   8.290  0.0113 -3.5914 -2.5510
   31SAPC  C317 4222   5.711   7.206   8.473 -0.5093 -0.1241  0.1467
   31SAPC  H17X 4223   5.627   7.171   8.537 -0.0633 -0.7754  0.3861
   31SAPC  H17Y 4224   5.768   7.270   8.545 -0.1347 -1.2800  0.9135
   31SAPC  C318 4225   5.794   7.079   8.427 -0.2778  0.6540 -0.3128
   31SAPC  H18X 4226   5.785   7.067   8.317  1.2625  0.8726 -0.4831
   31SAPC  H18Y 4227   5.769   6.985   8.482 -2.3235  0.2770 -1.8073
   31SAPC  H18Z 4228   5.899   7.111   8.447 -0.5874  0.0982  2.6804
   32SAPC     N 4229   0.233   1.494   6.166  0.3409  0.3632  0.5843
   32SAPC   C12 4230   0.205   1.637   6.117 -0.1254 -0.6179 -1.1715
   32SAPC  H12A 4231   0.111   1.631   6.063 -0.6638 -0.8698 -0.2460
   32SAPC  H12B 4232   0.280   1.668   6.047  0.0795  0.8416 -0.3447
   32SAPC   C13 4233   0.359   1.485   6.240  0.3193 -0.4507  0.8094
   32SAPC  H13A 4234   0.357   1.550   6.327  0.0897  1.3225 -0.4648
   32SAPC  H13B 4235   0.373   1.382   6.270  1.0672 -1.0429 -1.3901
   32SAPC  H13C 4236   0.438   1.522   6.176 -0.1147 -0.5667  0.2020
   32SAPC   C14 4237   0.124   1.427   6.248 -0.2116 -0.4825  0.0420
   32SAPC  H14A 4238   0.024   1.442   6.209 -0.1562  1.3052  0.4980
   32SAPC  H14B 4239   0.141   1.321   6.258 -1.1850 -0.5646  0.9465
   32SAPC  H14C 4240   0.109   1.473   6.344 -1.2227  0.2361 -0.4373
   32SAPC   C15 4241   0.239   1.406   6.044  0.6420  0.6964 -0.5513
   32SAPC  H15A 4242   0.151   1.424   5.983  0.6731  1.3345 -0.4114
   32SAPC  H15B 4243   0.322   1.425   5.978  1.1225 -0.3783 -0.2739
   32SAPC  H15C 4244   0.247   1.304   6.079 -2.1267  1.1223  1.6898
   32SAPC   C11 4245   0.195   1.747   6.222 -0.2793  0.6916  0.0568
   32SAPC  H11A 4246   0.118   1.728   6.300 -1.5228  0.9165 -1.0663
   32SAPC  H11B 4247   0.156   1.832   6.161 -0.3327  1.2024  0.7901
   32SAPC     P 4248   0.413   1.891   6.229 -0.1220  0.1651 -0.4811
   32SAPC   O13 4249   0.503   1.844   6.120 -0.2650 -0.0948  0.0027
   32SAPC   O14 4250   0.335   2.014   6.203  0.1606  0.0216 -0.0592
   32SAPC   O12 4251   0.322   1.778   6.269  0.1315 -0.5787 -0.1739
   32SAPC   O11 4252   0.502   1.914   6.358  0.1809  0.0560  0.2946
   32SAPC    C1 4253   0.587   1.802   6.400  0.0865 -0.2223 -0.5811
   32SAPC    HA 4254   0.568   1.704   6.351  0.2344  0.4699 -2.0980
   32SAPC    HB 4255   0.689   1.827   6.364  0.2735  0.1377  0.1728
   32SAPC    C2 4256   0.603   1.796   6.556  0.1887  0.5591  1.2892
   32SAPC    HS 4257   0.665   1.708   6.584  0.7340  1.0272  1.5690
   32SAPC   O21 4258   0.475   1.781   6.613  0.0528  0.3236 -0.8397
   32SAPC   C21 4259   0.434   1.659   6.627 -0.1247  0.7369  1.0689
   32SAPC   O22 4260   0.491   1.564   6.577 -0.5961  0.3051  0.2525
   32SAPC   C22 4261   0.305   1.652   6.713 -0.4147  0.0208  0.1359
   32SAPC   H2R 4262   0.281   1.756   6.744  1.6442  0.7016 -0.4278
   32SAPC   H2S 4263   0.229   1.610   6.644 -0.3765  1.3427 -0.7400
   32SAPC    C3 4264   0.676   1.916   6.616  0.1690  0.2339  0.6296
   32SAPC    HX 4265   0.629   2.013   6.591 -0.5733  0.0156  1.1255
   32SAPC    HY 4266   0.780   1.904   6.579 -0.9181 -0.6545 -2.4556
   32SAPC   O31 4267   0.676   1.892   6.758 -0.1092 -0.1498  0.1755
   32SAPC   C31 4268   0.764   1.985   6.817  1.0202 -0.1479  0.1530
   32SAPC   O32 4269   0.813   2.082   6.765 -0.0317  0.3205 -0.6820
   32SAPC   C32 4270   0.795   1.935   6.956 -0.4735  0.1721 -0.3861
   32SAPC   H2X 4271   0.845   1.836   6.946 -1.0431  0.0004 -1.8991
   32SAPC   H2Y 4272   0.696   1.902   6.994 -0.8841  0.5616 -1.0886
   32SAPC   C23 4273   0.303   1.554   6.831 -0.4757  0.5319 -0.2238
   32SAPC   H3R 4274   0.356   1.459   6.809 -0.3313  0.3688  0.7935
   32SAPC   H3S 4275   0.197   1.523   6.845  0.4431 -2.0143  1.8527
   32SAPC   C24 4276   0.364   1.604   6.970 -0.4646 -0.4809 -0.0035
   32SAPC   H4R 4277   0.451   1.664   6.937 -2.3261  0.6486 -3.3129
   32SAPC   H4S 4278   0.409   1.523   7.030  2.0964  0.9329  0.1313
   32SAPC   C25 4279   0.280   1.689   7.062 -0.3123  0.0133  0.1692
   32SAPC   H5R 4280   0.173   1.694   7.038 -0.1009 -0.1188 -0.8452
   32SAPC   C26 4281   0.319   1.725   7.187  0.6006  0.4090 -0.2880
   32SAPC   H6R 4282   0.252   1.791   7.244 -1.2994  0.5528 -2.5295
   32SAPC   C27 4283   0.453   1.690   7.246 -0.0899  0.3030 -0.4300
   32SAPC   H7R 4284   0.513   1.782   7.232 -1.0778  0.8634 -1.1462
   32SAPC   H7S 4285   0.507   1.613   7.187 -1.4422 -1.5127  0.5765
   32SAPC   C28 4286   0.451   1.659   7.394 -0.7926 -0.7088 -0.4146
   32SAPC   H8R 4287   0.374   1.590   7.431 -2.8623  1.6935  0.0710
   32SAPC   C29 4288   0.514   1.730   7.487 -0.0276 -0.9370 -0.5542
   32SAPC   H9R 4289   0.518   1.701   7.594  0.2890 -0.7769 -0.5202
   32SAPC  C210 4290   0.614   1.841   7.457 -0.3497 -0.4503 -0.5726
   32SAPC  H10R 4291   0.673   1.836   7.363 -1.3116  1.2542 -1.3100
   32SAPC  H10S 4292   0.697   1.838   7.531 -0.3674 -1.0325 -0.5699
   32SAPC  C211 4293   0.544   1.972   7.461 -0.0014  0.4667  0.7139
   32SAPC  H11R 4294   0.489   2.001   7.370 -1.4701  3.5258  2.4498
   32SAPC  C212 4295   0.537   2.058   7.562  0.7461  0.2834  0.4592
   32SAPC  H12R 4296   0.473   2.146   7.548 -0.3978 -0.7309 -1.0389
   32SAPC  C213 4297   0.592   2.027   7.699 -0.0705 -0.1315  0.2017
   32SAPC  H13R 4298   0.703   2.015   7.695 -0.2721 -2.1082 -0.8174
   32SAPC  H13S 4299   0.547   1.933   7.738 -4.3754  2.6025  2.5977
   32SAPC  C214 4300   0.561   2.140   7.791  0.6189  0.4660 -0.1143
   32SAPC  H14R 4301   0.481   2.207   7.758 -0.3402  0.3904  1.8975
   32SAPC  C215 4302   0.606   2.146   7.917 -0.3457 -0.0879 -0.4466
   32SAPC  H15R 4303   0.564   2.214   7.992  0.3385 -1.0704  0.8704
   32SAPC  C216 4304   0.703   2.051   7.985 -0.0671  0.2152  0.0919
   32SAPC  H16R 4305   0.808   2.089   7.990 -0.4188  1.5876 -1.8377
   32SAPC  H16S 4306   0.699   1.953   7.932 -3.6531 -0.6480  1.6392
   32SAPC  C217 4307   0.666   2.016   8.128 -0.0932 -0.5146 -0.3061
   32SAPC  H17R 4308   0.566   1.968   8.136 -0.2752 -0.0110  0.5718
   32SAPC  H17S 4309   0.659   2.104   8.196 -0.6474 -2.4838  2.3524
   32SAPC  C218 4310   0.752   1.915   8.199 -0.4318 -0.4551  0.0477
   32SAPC  H18R 4311   0.854   1.957   8.203 -0.8978  0.9330 -1.4127
   32SAPC  H18S 4312   0.754   1.823   8.137  1.3218 -0.7165  0.4557
   32SAPC  C219 4313   0.714   1.883   8.344 -0.1580 -0.1959 -0.7930
   32SAPC  H19R 4314   0.725   1.974   8.407 -0.8777 -1.1083  0.7094
   32SAPC  H19S 4315   0.790   1.817   8.393  0.8423  0.5396 -1.3165
   32SAPC  C220 4316   0.583   1.814   8.352  0.8741  0.2226  0.8110
   32SAPC  H20R 4317   0.571   1.731   8.280  0.1025  1.5038 -0.5849
   32SAPC  H20S 4318   0.509   1.891   8.322  0.1454 -0.4803  0.7811
   32SAPC  H20T 4319   0.556   1.781   8.454  0.8864 -2.3621  0.0436
   32SAPC   C33 4320   0.892   2.023   7.046 -0.5869 -0.6744  0.1962
   32SAPC   H3X 4321   0.959   2.074   6.974 -2.3042  0.7896 -0.4615
   32SAPC   H3Y 4322   0.940   1.957   7.120  0.6797  0.1327  0.1145
   32SAPC   C34 4323   0.804   2.128   7.122 -0.1123 -0.5663 -0.3762
   32SAPC   H4X 4324   0.715   2.070   7.155  1.1207 -1.8192  0.8889
   32SAPC   H4Y 4325   0.770   2.199   7.043  3.4987 -0.0353 -1.6364
   32SAPC   C35 4326   0.866   2.205   7.237 -0.3809  0.1380  0.1439
   32SAPC   H5X 4327   0.799   2.287   7.270 -2.5872 -0.8206 -1.6237
   32SAPC   H5Y 4328   0.950   2.258   7.189  0.6609 -1.4363  0.1758
   32SAPC   C36 4329   0.917   2.123   7.360 -0.2617 -0.5924 -0.5977
   32SAPC   H6X 4330   1.012   2.082   7.321 -1.0335 -1.4086 -1.6867
   32SAPC   H6Y 4331   0.840   2.044   7.378 -0.9420  0.3469  0.7849
   32SAPC   C37 4332   0.936   2.208   7.492 -0.3810  0.8961  0.0722
   32SAPC   H7X 4333   0.842   2.256   7.527 -0.9442 -0.1921  0.1002
   32SAPC   H7Y 4334   0.997   2.293   7.457  0.8099  0.5938  1.3078
   32SAPC   C38 4335   1.008   2.132   7.611 -0.1532 -0.4988  1.0044
   32SAPC   H8X 4336   1.095   2.074   7.574  0.5299  1.5705 -0.8987
   32SAPC   H8Y 4337   0.939   2.057   7.655  1.0943 -1.4331  1.4382
   32SAPC   C39 4338   1.048   2.228   7.722 -0.0603 -0.1789  0.0298
   32SAPC   H9X 4339   0.950   2.271   7.754  0.4534  1.6060 -0.7069
   32SAPC   H9Y 4340   1.104   2.310   7.673  0.0565  0.2502  0.8780
   32SAPC  C310 4341   1.123   2.176   7.850 -0.0163  0.1345  0.0062
   32SAPC  H10X 4342   1.064   2.088   7.882  1.1454 -1.2804 -1.6019
   32SAPC  H10Y 4343   1.121   2.252   7.932  2.2987 -0.3281  0.5639
   32SAPC  C311 4344   1.272   2.133   7.832  0.0274 -0.1212  0.0640
   32SAPC  H11X 4345   1.342   2.217   7.813 -1.7368  0.8253 -3.0140
   32SAPC  H11Y 4346   1.293   2.053   7.756  3.5684 -2.0487  2.7366
   32SAPC  C312 4347   1.322   2.049   7.954  1.0623 -0.0768  0.0266
   32SAPC  H12X 4348   1.246   1.973   7.980  0.0193  1.0556  0.3863
   32SAPC  H12Y 4349   1.324   2.119   8.040  1.2788 -0.6929  0.5284
   32SAPC  C313 4350   1.466   1.988   7.936  0.0572 -0.6450  0.0889
   32SAPC  H13X 4351   1.467   1.928   7.842 -1.7216 -1.3370  0.4686
   32SAPC  H13Y 4352   1.487   1.938   8.033  0.7957 -1.7234 -0.6037
   32SAPC  C314 4353   1.569   2.098   7.909  0.5347  0.5746  0.1133
   32SAPC  H14X 4354   1.561   2.178   7.986 -1.3679  0.5576 -0.0290
   32SAPC  H14Y 4355   1.557   2.147   7.810 -1.1674  2.4825  1.1901
   32SAPC  C315 4356   1.709   2.040   7.917  0.4444  0.6837 -0.6969
   32SAPC  H15X 4357   1.716   1.956   7.846  2.0506 -0.6331  0.9340
   32SAPC  H15Y 4358   1.728   1.985   8.011  2.4195  0.4247 -1.2243
   32SAPC  C316 4359   1.818   2.145   7.900 -0.4131 -0.1627  0.6585
   32SAPC  H16X 4360   1.895   2.137   7.980  0.7155  2.0674 -0.1006
   32SAPC  H16Y 4361   1.778   2.247   7.920  1.9496  0.9157  0.2564
   32SAPC  C317 4362   1.881   2.121   7.758  0.3143 -0.4879 -0.3840
   32SAPC  H17X 4363   1.799   2.119   7.683  1.1402  1.6853 -1.4065
   32SAPC  H17Y 4364   1.919   2.017   7.754  0.0309 -0.6114  0.0336
   32SAPC  C318 4365   1.981   2.222   7.725  0.2309  0.1899 -0.3206
   32SAPC  H18X 4366   2.067   2.219   7.794 -0.0481  2.6677  0.2562
   32SAPC  H18Y 4367   1.929   2.321   7.721 -1.4187 -0.6645 -1.1692
   32SAPC  H18Z 4368   2.036   2.197   7.631  0.4635 -0.5347  0.0040
   33POPC     N 4369   0.333   4.624  10.689 -0.0416 -0.1943 -0.1979
   33POPC   C12 4370   0.349   4.710  10.563 -0.0789 -0.0274 -0.3010
   33POPC  H12A 4371   0.252   4.704  10.516  0.1891 -0.7576 -0.7629
   33POPC  H12B 4372   0.432   4.674  10.505  3.0570  3.3817  1.6210
   33POPC   C13 4373   0.341   4.485  10.644  0.0018 -0.2981 -0.8340
   33POPC  H13A 4374   0.283   4.471  10.554  0.3192  0.3807 -1.1525
   33POPC  H13B 4375   0.443   4.457  10.622 -0.2410  0.1705 -2.7869
   33POPC  H13C 4376   0.301   4.414  10.716 -0.3670 -0.4783 -1.2129
   33POPC   C14 4377   0.446   4.649  10.784 -0.3205 -0.2878 -0.1329
   33POPC  H14A 4378   0.548   4.646  10.749  0.1676  2.1846  0.8330
   33POPC  H14B 4379   0.442   4.753  10.813  0.3184 -0.3684  0.2564
   33POPC  H14C 4380   0.437   4.588  10.872  2.2751  0.9645  1.0836
   33POPC   C15 4381   0.200   4.652  10.743  1.1513 -0.0831  0.1722
   33POPC  H15A 4382   0.183   4.597  10.835 -1.3859 -0.1806 -0.2986
   33POPC  H15B 4383   0.123   4.620  10.675  0.7841  0.9395  0.0938
   33POPC  H15C 4384   0.184   4.755  10.769 -0.0391 -0.2460  0.1209
   33POPC   C11 4385   0.369   4.870  10.577  0.4463  0.1839  0.0396
   33POPC  H11A 4386   0.384   4.905  10.473 -0.2785  1.4856  0.3631
   33POPC  H11B 4387   0.469   4.888  10.623  0.5296 -0.3724  0.0800
   33POPC     P 4388   0.135   4.983  10.580 -0.1965 -0.1058 -0.2557
   33POPC   O13 4389   0.070   5.088  10.659  0.4196 -0.5280 -0.0097
   33POPC   O14 4390   0.061   4.863  10.547  0.6109  0.4161 -0.7815
   33POPC   O12 4391   0.273   4.942  10.657  0.4614 -0.4884  0.0629
   33POPC   O11 4392   0.190   5.050  10.444  0.2067  0.1768 -0.4413
   33POPC    C1 4393   0.260   5.176  10.455 -0.3298 -0.3848  0.5562
   33POPC    HA 4394   0.184   5.256  10.466 -0.3561 -0.5735  1.9157
   33POPC    HB 4395   0.331   5.187  10.540  0.7734  1.0289 -0.4974
   33POPC    C2 4396   0.355   5.210  10.337 -0.6013  0.4318  0.3008
   33POPC    HS 4397   0.355   5.321  10.328 -0.6680  0.3616 -0.6120
   33POPC   O21 4398   0.321   5.148  10.214 -0.3671  0.6957 -0.1808
   33POPC   C21 4399   0.202   5.193  10.171  0.1169  0.5717  0.5602
   33POPC   O22 4400   0.147   5.293  10.209  0.0904 -0.9150 -0.8304
   33POPC   C22 4401   0.163   5.111  10.045 -0.8035  0.0482 -0.2090
   33POPC   H2R 4402   0.057   5.077  10.053 -0.2916 -1.3027  1.2689
   33POPC   H2S 4403   0.216   5.014  10.048 -1.2690 -0.2087 -0.1935
   33POPC    C3 4404   0.498   5.173  10.363 -0.5359 -0.0056 -0.3012
   33POPC    HX 4405   0.508   5.064  10.384  2.4769  0.5319  1.7809
   33POPC    HY 4406   0.530   5.228  10.454  0.9097 -1.7419  0.3137
   33POPC   O31 4407   0.589   5.215  10.263  0.7031  0.2210  1.0120
   33POPC   C31 4408   0.722   5.186  10.292 -0.3513 -0.0495 -0.1412
   33POPC   O32 4409   0.758   5.126  10.389  0.4775 -0.8904 -0.7791
   33POPC   C32 4410   0.809   5.226  10.173 -0.2102 -0.2140  0.3860
   33POPC   H2X 4411   0.768   5.318  10.124 -0.7095  1.2577  3.3228
   33POPC   H2Y 4412   0.804   5.149  10.093 -0.2776 -0.3563  0.5282
   33POPC   C23 4413   0.175   5.194   9.917 -0.1148  0.7262  0.5258
   33POPC   H3R 4414   0.133   5.293   9.944  1.6280  2.0739 -1.4602
   33POPC   H3S 4415   0.114   5.158   9.831 -0.5198  0.5733  0.8739
   33POPC   C24 4416   0.322   5.205   9.863  0.3999 -0.0628 -0.2317
   33POPC   H4R 4417   0.364   5.103   9.851 -1.8702 -1.0907  0.1158
   33POPC   H4S 4418   0.387   5.245   9.944 -1.0934 -0.5101  1.2468
   33POPC   C25 4419   0.334   5.288   9.740 -0.0510  0.0105  0.5685
   33POPC   H5R 4420   0.306   5.395   9.754 -0.1784  0.0041  0.3714
   33POPC   H5S 4421   0.261   5.254   9.663 -0.8528 -0.1738  1.3935
   33POPC   C26 4422   0.480   5.308   9.683 -0.4902  0.6496  0.4628
   33POPC   H6R 4423   0.486   5.369   9.591  2.4575 -1.0076 -0.5877
   33POPC   H6S 4424   0.501   5.209   9.637  0.0575  1.7464 -1.7636
   33POPC   C27 4425   0.573   5.371   9.794 -0.2393 -0.1501  0.2782
   33POPC   H7R 4426   0.574   5.303   9.882 -0.4286  0.5917  0.8561
   33POPC   H7S 4427   0.532   5.467   9.831 -0.8608 -0.9501  1.7400
   33POPC   C28 4428   0.711   5.395   9.729  0.2296  0.7161  0.2703
   33POPC   H8R 4429   0.742   5.291   9.704  0.2916  0.9388 -0.6197
   33POPC   H8S 4430   0.789   5.423   9.803  0.0518 -1.3144  1.3081
   33POPC   C29 4431   0.705   5.494   9.613  0.0537  0.1759 -0.3794
   33POPC   H91 4432   0.673   5.594   9.648  0.9073  0.0060  0.9651
   33POPC  C210 4433   0.722   5.459   9.482  0.1239 -0.0100  0.3610
   33POPC  H101 4434   0.702   5.537   9.407 -1.1199  1.5941  2.2567
   33POPC  C211 4435   0.747   5.321   9.422 -0.1485  0.4290  0.0459
   33POPC  H11R 4436   0.757   5.238   9.496  0.5559  0.9778  0.5913
   33POPC  H11S 4437   0.848   5.315   9.378 -0.3663  0.3620 -0.4417
   33POPC  C212 4438   0.645   5.268   9.317  0.6606 -0.5107  0.4246
   33POPC  H12R 4439   0.548   5.320   9.333  0.6004 -1.0725  2.1187
   33POPC  H12S 4440   0.636   5.158   9.331  0.1005 -0.4658  0.4188
   33POPC  C213 4441   0.705   5.282   9.174  0.2990  0.6283 -0.1567
   33POPC  H13R 4442   0.805   5.234   9.176 -0.0134 -0.0281  0.0337
   33POPC  H13S 4443   0.717   5.391   9.154 -1.1183  0.9714  0.6829
   33POPC  C214 4444   0.626   5.216   9.059  0.5936 -0.1231 -0.3426
   33POPC  H14R 4445   0.517   5.221   9.083  0.2889 -1.5503 -1.3136
   33POPC  H14S 4446   0.657   5.110   9.051 -1.5699 -0.7632 -0.9156
   33POPC  C215 4447   0.659   5.274   8.926  0.0120 -0.5579 -0.3289
   33POPC  H15R 4448   0.767   5.269   8.899 -0.5541 -0.9424 -2.7835
   33POPC  H15S 4449   0.628   5.380   8.912  1.0163 -0.2656 -0.4186
   33POPC  C216 4450   0.600   5.190   8.810 -0.0678 -0.3589  0.1025
   33POPC  H16R 4451   0.491   5.205   8.818 -0.4669 -1.6599 -2.0530
   33POPC  H16S 4452   0.622   5.082   8.826 -2.2424 -0.8466  0.0729
   33POPC  C217 4453   0.639   5.248   8.666 -0.0686 -0.7154  0.6884
   33POPC  H17R 4454   0.748   5.233   8.649  0.0036  0.7807 -0.4825
   33POPC  H17S 4455   0.627   5.358   8.664  0.1514 -0.6972  0.0096
   33POPC  C218 4456   0.556   5.189   8.543  0.1631 -0.7916  0.0481
   33POPC  H18R 4457   0.449   5.190   8.572  0.8780  2.2447  3.3022
   33POPC  H18S 4458   0.591   5.085   8.526  1.2431 -0.1289 -2.1222
   33POPC  H18T 4459   0.558   5.258   8.456 -0.7916  3.6486  3.1408
   33POPC   C33 4460   0.958   5.261  10.205 -0.1099  0.4774 -0.2097
   33POPC   H3X 4461   1.007   5.167  10.239 -1.4723 -0.0993  0.2254
   33POPC   H3Y 4462   0.948   5.332  10.290  0.7709 -0.3435  0.6052
   33POPC   C34 4463   1.035   5.320  10.089 -0.2746 -0.2252  0.6026
   33POPC   H4X 4464   1.110   5.396  10.119 -1.8802  0.9455  1.7985
   33POPC   H4Y 4465   0.958   5.362  10.021 -2.1897 -4.1827  0.0123
   33POPC   C35 4466   1.109   5.222   9.991  0.3918 -0.3313 -0.0065
   33POPC   H5X 4467   1.195   5.185  10.051 -0.0244 -1.2123  0.0723
   33POPC   H5Y 4468   1.161   5.283   9.915 -1.4240 -0.0086 -1.0572
   33POPC   C36 4469   1.025   5.109   9.934  0.0420  0.8678  0.5085
   33POPC   H6X 4470   0.926   5.137   9.891  0.5530 -0.9162 -2.1037
   33POPC   H6Y 4471   1.001   5.029  10.007 -0.8320  0.0660 -0.6154
   33POPC   C37 4472   1.109   5.030   9.821  0.6221 -0.2076 -0.0804
   33POPC   H7X 4473   1.047   4.941   9.795  0.6939 -0.2567 -0.0836
   33POPC   H7Y 4474   1.200   4.994   9.874  0.4524 -1.0583 -0.3532
   33POPC   C38 4475   1.139   5.119   9.699 -1.0829 -1.1934 -0.0713
   33POPC   H8X 4476   1.178   5.218   9.730 -1.9853 -0.9198  0.2183
   33POPC   H8Y 4477   1.044   5.148   9.649 -0.9217  0.9469  0.7618
   33POPC   C39 4478   1.226   5.042   9.600 -0.5189 -0.2266  0.7289
   33POPC   H9X 4479   1.195   4.938   9.575  1.4155 -0.6363 -0.2345
   33POPC   H9Y 4480   1.307   5.024   9.674  0.5828  0.8362 -0.1676
   33POPC  C310 4481   1.281   5.112   9.473 -0.6913  0.1842 -0.0577
   33POPC  H10X 4482   1.319   5.210   9.507 -0.3897  0.3059 -0.7260
   33POPC  H10Y 4483   1.207   5.125   9.391 -1.4437 -0.9185  0.4098
   33POPC  C311 4484   1.403   5.035   9.416 -1.4568  0.3578  0.4177
   33POPC  H11X 4485   1.374   4.935   9.377  1.1371 -0.5086  0.5804
   33POPC  H11Y 4486   1.487   5.024   9.488  1.3705 -0.4789 -2.7658
   33POPC  C312 4487   1.461   5.104   9.301 -0.6293  0.2076  0.0805
   33POPC  H12X 4488   1.376   5.131   9.235 -0.3327 -0.7659 -0.7142
   33POPC  H12Y 4489   1.532   5.036   9.251 -1.0644 -0.9031  0.9394
   33POPC  C313 4490   1.537   5.238   9.324  0.9267 -0.0894 -0.5078
   33POPC  H13X 4491   1.456   5.312   9.340  2.6736  1.8260 -0.0186
   33POPC  H13Y 4492   1.585   5.267   9.228 -1.5197  4.3452 -0.6672
   33POPC  C314 4493   1.619   5.249   9.461 -0.0115 -0.2847  0.1215
   33POPC  H14X 4494   1.554   5.212   9.544 -0.2912  2.5594  1.3043
   33POPC  H14Y 4495   1.619   5.357   9.486 -1.5788 -0.3146  0.3696
   33POPC  C315 4496   1.762   5.196   9.450  0.3173  0.0600  0.2468
   33POPC  H15X 4497   1.798   5.211   9.346 -0.7508 -1.4777 -0.3868
   33POPC  H15Y 4498   1.753   5.086   9.461 -1.8127  0.1630  0.0269
   33POPC  C316 4499   1.861   5.227   9.564 -0.6562  0.3442  0.9220
   33POPC  H16X 4500   1.938   5.146   9.557  0.7083  1.7552 -1.6369
   33POPC  H16Y 4501   1.816   5.221   9.666 -0.3007  0.6927  1.0999
   33POPC  H16Z 4502   1.890   5.332   9.545 -2.0032  0.3581 -1.3262
   34POPC     N 4503   5.650   6.740  10.611 -0.7244 -0.0230 -0.0383
   34POPC   C12 4504   5.555   6.619  10.589  0.5443  0.4638  0.9619
   34POPC  H12A 4505   5.518   6.619  10.488 -0.4978  2.4751  1.2916
   34POPC  H12B 4506   5.463   6.631  10.644 -1.4364  0.1178 -2.0291
   34POPC   C13 4507   5.781   6.718  10.551 -0.2831  0.2080 -0.3358
   34POPC  H13A 4508   5.775   6.715  10.443  0.8861 -1.6359 -0.3932
   34POPC  H13B 4509   5.842   6.803  10.579  1.0177 -0.5318 -0.8411
   34POPC  H13C 4510   5.825   6.624  10.581  0.3530 -0.8145 -3.9526
   34POPC   C14 4511   5.593   6.867  10.560  0.4919 -0.2910  0.5825
   34POPC  H14A 4512   5.667   6.943  10.540 -2.0749  1.8433 -1.5434
   34POPC  H14B 4513   5.538   6.847  10.469 -1.5656 -2.2851  2.1181
   34POPC  H14C 4514   5.523   6.898  10.637  2.1764  0.6804  1.7724
   34POPC   C15 4515   5.662   6.750  10.759  0.3994 -0.4896  0.0770
   34POPC  H15A 4516   5.745   6.811  10.793 -0.6404  1.2495 -0.3979
   34POPC  H15B 4517   5.668   6.653  10.806 -1.6567 -0.0180  1.4059
   34POPC  H15C 4518   5.578   6.792  10.811  2.9867  2.4884  2.2454
   34POPC   C11 4519   5.604   6.472  10.625  0.4269  0.6341  0.5358
   34POPC  H11A 4520   5.690   6.445  10.560 -1.0342 -1.3877 -0.6645
   34POPC  H11B 4521   5.523   6.400  10.602 -0.5290  2.2713 -1.4815
   34POPC     P 4522   5.705   6.336  10.829 -0.2400 -0.5361 -0.4310
   34POPC   O13 4523   5.594   6.248  10.875  0.1460  0.0474 -0.4420
   34POPC   O14 4524   5.795   6.379  10.934 -0.3776 -0.0308 -0.1930
   34POPC   O12 4525   5.643   6.464  10.764  0.2149 -0.1493  1.1431
   34POPC   O11 4526   5.791   6.268  10.716 -0.3657 -0.0145 -0.2964
   34POPC    C1 4527   5.873   6.159  10.750 -0.1774  0.0784  0.0992
   34POPC    HA 4528   5.843   6.118  10.849 -0.3761  0.5347  0.2260
   34POPC    HB 4529   5.980   6.190  10.755 -0.2528  0.4703 -0.5969
   34POPC    C2 4530   5.862   6.048  10.644 -0.2617 -0.4351  0.5005
   34POPC    HS 4531   5.924   5.961  10.674  1.0020  0.7221  1.4157
   34POPC   O21 4532   5.901   6.094  10.511  0.2210  0.2783 -0.1460
   34POPC   C21 4533   6.031   6.101  10.492 -0.4892 -0.1326  0.2335
   34POPC   O22 4534   6.122   6.050  10.560  1.1461 -0.0213  0.1753
   34POPC   C22 4535   6.049   6.173  10.356  0.1907 -0.0827 -0.0443
   34POPC   H2R 4536   6.158   6.192  10.338  0.2003  0.6750  0.7453
   34POPC   H2S 4537   5.992   6.268  10.366  2.9011  1.7252 -0.6361
   34POPC    C3 4538   5.724   5.991  10.639  0.6222  0.2124 -0.4530
   34POPC    HX 4539   5.653   6.072  10.615 -1.5211 -1.5699 -0.4769
   34POPC    HY 4540   5.701   5.944  10.737 -0.1741  0.3183 -0.5800
   34POPC   O31 4541   5.717   5.900  10.535 -0.0435 -0.0792 -0.0152
   34POPC   C31 4542   5.733   5.773  10.551  0.1951  0.7107 -0.3826
   34POPC   O32 4543   5.745   5.719  10.661 -0.8005 -0.0001  0.3215
   34POPC   C32 4544   5.733   5.705  10.418  0.3780  0.1269 -0.5906
   34POPC   H2X 4545   5.733   5.781  10.337  0.5010  0.8664  0.1013
   34POPC   H2Y 4546   5.642   5.640  10.417  0.3600  0.1502 -0.3808
   34POPC   C23 4547   5.985   6.092  10.235 -0.3646  0.6519 -0.3263
   34POPC   H3R 4548   5.989   6.156  10.144  0.3848  0.4052 -0.4723
   34POPC   H3S 4549   5.885   6.059  10.270 -0.5071  1.3086 -0.0962
   34POPC   C24 4550   6.065   5.976  10.182  0.0887 -0.4554 -0.3770
   34POPC   H4R 4551   6.084   5.904  10.265  0.2021  0.0085  0.0058
   34POPC   H4S 4552   6.163   6.019  10.154  0.9893 -3.2934 -1.9564
   34POPC   C25 4553   6.017   5.894  10.060  0.3179 -0.0011  0.8858
   34POPC   H5R 4554   5.919   5.848  10.085  0.5487 -1.0421 -0.0746
   34POPC   H5S 4555   6.088   5.810  10.047 -1.4375 -1.4040  0.0367
   34POPC   C26 4556   5.997   5.976   9.938  0.3266  0.3492  0.5031
   34POPC   H6R 4557   6.094   6.010   9.895 -1.5896  3.7354 -1.6565
   34POPC   H6S 4558   5.931   6.065   9.950 -1.0730 -0.3821 -1.1616
   34POPC   C27 4559   5.936   5.884   9.834  0.7041 -0.3434  0.6009
   34POPC   H7R 4560   5.858   5.826   9.889 -0.8105  1.2532  0.2104
   34POPC   H7S 4561   6.014   5.815   9.795 -0.2092 -1.1697  0.1577
   34POPC   C28 4562   5.869   5.954   9.709  0.1594  0.0019  0.1239
   34POPC   H8R 4563   5.936   6.036   9.674 -2.2321  2.8675  1.7612
   34POPC   H8S 4564   5.785   6.009   9.756  0.8517 -0.1001  1.5283
   34POPC   C29 4565   5.828   5.856   9.606  0.6006  0.4115 -0.1229
   34POPC   H91 4566   5.746   5.788   9.632  0.3041  0.4169 -1.0131
   34POPC  C210 4567   5.886   5.841   9.484  0.6230 -0.4998  0.0782
   34POPC  H101 4568   5.850   5.765   9.413  0.5514  1.3965 -1.9829
   34POPC  C211 4569   6.002   5.925   9.429  0.2097 -0.7222  0.0956
   34POPC  H11R 4570   6.086   5.858   9.400  1.1818  0.6785 -0.4353
   34POPC  H11S 4571   6.052   5.993   9.501  0.5188 -2.0046  1.1138
   34POPC  C212 4572   5.956   6.009   9.307  0.5393  0.4300  0.1878
   34POPC  H12R 4573   6.034   6.087   9.291 -0.0252  1.0506  0.4480
   34POPC  H12S 4574   5.869   6.062   9.351  2.2692  1.6701  2.2693
   34POPC  C213 4575   5.929   5.923   9.180  0.9793 -0.0188  0.5117
   34POPC  H13R 4576   5.852   5.850   9.211 -0.7736  1.9661  1.0933
   34POPC  H13S 4577   6.024   5.872   9.155  0.5171 -0.5495 -0.1754
   34POPC  C214 4578   5.871   6.003   9.061  0.9033  0.7583  0.5334
   34POPC  H14R 4579   5.952   6.078   9.048  0.2168  1.6895  1.4557
   34POPC  H14S 4580   5.777   6.052   9.092 -0.0881 -1.9834  2.1956
   34POPC  C215 4581   5.840   5.919   8.934  0.1953 -0.2967 -1.2211
   34POPC  H15R 4582   5.784   5.992   8.872  1.1601  1.6636  0.1078
   34POPC  H15S 4583   5.775   5.833   8.962  0.0776  0.2805  0.3887
   34POPC  C216 4584   5.963   5.877   8.853  0.6890 -0.7013  0.6627
   34POPC  H16R 4585   5.928   5.792   8.790  1.9980  0.0548 -1.1789
   34POPC  H16S 4586   6.051   5.844   8.911 -0.6880 -1.6912  2.2811
   34POPC  C217 4587   6.024   5.992   8.773 -0.1513  0.4676 -0.3405
   34POPC  H17R 4588   6.048   6.071   8.847 -2.5634  1.8057 -0.8761
   34POPC  H17S 4589   5.947   6.035   8.705 -0.3282  0.4207 -0.1715
   34POPC  C218 4590   6.149   5.951   8.692  0.7632  0.6172  0.0178
   34POPC  H18R 4591   6.243   5.965   8.750  2.7407 -1.0714 -2.5545
   34POPC  H18S 4592   6.165   6.001   8.594  0.6125 -1.4205 -1.0940
   34POPC  H18T 4593   6.146   5.842   8.674 -0.3211  0.7025 -0.4037
   34POPC   C33 4594   5.856   5.619  10.399 -0.5849  0.7719 -0.4689
   34POPC   H3X 4595   5.839   5.525  10.455 -1.2180  1.1313 -0.0412
   34POPC   H3Y 4596   5.949   5.664  10.439 -0.6736  1.1621 -0.6983
   34POPC   C34 4597   5.870   5.575  10.253  0.2600  0.1982 -0.3115
   34POPC   H4X 4598   5.877   5.664  10.187 -0.2840  1.7281  1.6001
   34POPC   H4Y 4599   5.779   5.519  10.222  0.5891 -0.5459  0.0435
   34POPC   C35 4600   5.984   5.477  10.235 -0.0851  0.3715  0.6246
   34POPC   H5X 4601   5.968   5.378  10.283  1.1152  0.6075  1.5575
   34POPC   H5Y 4602   6.068   5.520  10.294 -1.7093  2.6532  1.4254
   34POPC   C36 4603   6.031   5.465  10.087  0.4845 -0.6369 -0.0552
   34POPC   H6X 4604   6.027   5.569  10.047 -0.3393 -0.7271 -0.2150
   34POPC   H6Y 4605   5.970   5.400  10.021 -0.0189  0.1510 -0.3900
   34POPC   C37 4606   6.171   5.421  10.065 -0.0548  0.3150 -0.0336
   34POPC   H7X 4607   6.186   5.314  10.094 -0.8192  0.2807  0.2739
   34POPC   H7Y 4608   6.221   5.480  10.144  1.3199  2.5660 -2.4476
   34POPC   C38 4609   6.229   5.474   9.936 -0.5173 -0.5005 -0.1196
   34POPC   H8X 4610   6.340   5.472   9.940 -0.5028  0.4686  0.2529
   34POPC   H8Y 4611   6.205   5.583   9.930  0.3059 -0.3536 -0.8382
   34POPC   C39 4612   6.178   5.387   9.817  0.1357  0.2128 -0.6223
   34POPC   H9X 4613   6.067   5.387   9.824  0.2327 -0.8684  4.4482
   34POPC   H9Y 4614   6.197   5.278   9.826 -1.8656 -0.3141 -2.0261
   34POPC  C310 4615   6.229   5.442   9.680 -0.4677  0.0045  0.2673
   34POPC  H10X 4616   6.339   5.432   9.681 -0.4734 -0.0834  1.1152
   34POPC  H10Y 4617   6.204   5.550   9.675 -0.2698  0.0367 -0.0054
   34POPC  C311 4618   6.176   5.377   9.555  0.6152 -0.0451  0.1212
   34POPC  H11X 4619   6.068   5.405   9.561  0.6798  0.0978  0.7297
   34POPC  H11Y 4620   6.192   5.268   9.540  0.0076  0.3322 -4.6622
   34POPC  C312 4621   6.247   5.441   9.435  0.0697 -0.6216  0.2097
   34POPC  H12X 4622   6.355   5.425   9.455 -0.0412 -1.6334  0.0614
   34POPC  H12Y 4623   6.233   5.550   9.451  3.8981 -0.2902  2.5981
   34POPC  C313 4624   6.206   5.376   9.306  0.4099  0.3335 -0.0247
   34POPC  H13X 4625   6.193   5.267   9.320  0.4518  0.5919  2.7414
   34POPC  H13Y 4626   6.291   5.382   9.235 -0.5229 -0.8948 -1.2814
   34POPC  C314 4627   6.080   5.436   9.239 -0.7622 -0.0206 -0.0709
   34POPC  H14X 4628   6.096   5.542   9.212 -0.1588 -0.6336 -2.3971
   34POPC  H14Y 4629   5.983   5.421   9.292 -1.0799 -2.4656 -1.2040
   34POPC  C315 4630   6.067   5.380   9.097 -0.3616  0.5161 -0.2184
   34POPC  H15X 4631   6.078   5.270   9.109 -0.7310  0.4799 -0.2181
   34POPC  H15Y 4632   6.144   5.398   9.019 -1.6866  0.3129 -1.6153
   34POPC  C316 4633   5.928   5.420   9.037 -0.9136  0.5036 -0.2482
   34POPC  H16X 4634   5.901   5.522   9.071 -0.0762  0.5023  0.4440
   34POPC  H16Y 4635   5.850   5.355   9.082 -0.4807  0.3329  0.2703
   34POPC  H16Z 4636   5.928   5.417   8.926  0.0279  0.4525 -0.2570
   35POPC     N 4637   4.458   3.466  11.324 -0.2488  0.1362  0.5075
   35POPC   C12 4638   4.551   3.580  11.262 -0.7307  0.0064 -0.5363
   35POPC  H12A 4639   4.655   3.565  11.285 -0.4939 -1.2973 -2.2268
   35POPC  H12B 4640   4.531   3.667  11.322 -0.4184 -1.9423  2.6212
   35POPC   C13 4641   4.313   3.519  11.331  0.2482 -0.5526  0.0337
   35POPC  H13A 4642   4.251   3.460  11.396 -0.0694  0.4077  0.6262
   35POPC  H13B 4643   4.305   3.621  11.365  1.5731  0.2073 -1.7368
   35POPC  H13C 4644   4.267   3.518  11.233 -0.9071 -0.7587  0.5684
   35POPC   C14 4645   4.468   3.340  11.240  0.3995 -0.9082 -0.2085
   35POPC  H14A 4646   4.431   3.367  11.143  0.4447  0.7464  0.1955
   35POPC  H14B 4647   4.572   3.314  11.229  0.0777 -1.8257 -1.2359
   35POPC  H14C 4648   4.410   3.267  11.295  2.5354 -1.5676  1.3107
   35POPC   C15 4649   4.512   3.444  11.461  0.6388 -0.1278  0.9914
   35POPC  H15A 4650   4.516   3.342  11.497 -1.5259 -0.6339 -0.0444
   35POPC  H15B 4651   4.446   3.499  11.525 -0.6201  0.6858 -0.9013
   35POPC  H15C 4652   4.614   3.480  11.464 -0.0650  2.3069 -0.7872
   35POPC   C11 4653   4.545   3.615  11.115 -0.2540 -0.2410 -0.8086
   35POPC  H11A 4654   4.593   3.714  11.095  0.3065 -0.7803 -2.2330
   35POPC  H11B 4655   4.438   3.638  11.097  0.1333  2.2143 -0.3178
   35POPC     P 4656   4.771   3.515  11.023  0.2968  0.3353  0.1998
   35POPC   O13 4657   4.816   3.383  10.975 -0.0101  0.0001  0.0388
   35POPC   O14 4658   4.831   3.555  11.157 -0.0630 -0.4111  1.0357
   35POPC   O12 4659   4.610   3.521  11.029  0.4878 -0.0729  0.2086
   35POPC   O11 4660   4.819   3.626  10.916  0.1395  0.1174 -0.3909
   35POPC    C1 4661   4.761   3.650  10.790  0.0336 -0.4212 -0.2695
   35POPC    HA 4662   4.733   3.758  10.790 -0.9491 -0.6351  1.6458
   35POPC    HB 4663   4.667   3.596  10.764 -1.3392  2.2040 -1.1510
   35POPC    C2 4664   4.868   3.619  10.682  0.1071  0.7925  0.0457
   35POPC    HS 4665   4.929   3.540  10.731 -0.8503 -0.6896 -1.0831
   35POPC   O21 4666   4.926   3.743  10.652  0.0574 -0.4812 -0.2826
   35POPC   C21 4667   5.059   3.733  10.619 -0.3874  0.3765 -0.2030
   35POPC   O22 4668   5.124   3.627  10.621  0.0730 -0.3245  0.2745
   35POPC   C22 4669   5.121   3.868  10.586  0.8662 -0.2285 -0.8891
   35POPC   H2R 4670   5.179   3.895  10.677  0.3228 -0.5078 -0.4498
   35POPC   H2S 4671   5.038   3.937  10.558  1.0176  0.3037 -0.0556
   35POPC    C3 4672   4.819   3.545  10.550  0.5144 -0.7330  0.3364
   35POPC    HX 4673   4.751   3.612  10.492  0.8978 -1.2757 -0.7711
   35POPC    HY 4674   4.763   3.453  10.577  1.8786 -1.3591  1.1474
   35POPC   O31 4675   4.923   3.514  10.460 -0.1051 -0.5436 -0.4750
   35POPC   C31 4676   4.994   3.402  10.483  0.4373 -0.4312  0.8145
   35POPC   O32 4677   4.983   3.332  10.582 -0.7196 -0.3670 -0.0729
   35POPC   C32 4678   5.082   3.376  10.364  0.5957 -0.5058  0.2651
   35POPC   H2X 4679   5.133   3.280  10.383  2.0477 -0.4861 -2.9005
   35POPC   H2Y 4680   5.153   3.461  10.372  0.0653 -0.0407  0.1608
   35POPC   C23 4681   5.231   3.846  10.472 -0.0446  0.4472 -0.1036
   35POPC   H3R 4682   5.306   3.773  10.509  1.7903  2.5181  0.4289
   35POPC   H3S 4683   5.295   3.936  10.475 -1.3858  1.4311 -0.1597
   35POPC   C24 4684   5.180   3.808  10.336 -0.3594 -0.3815  0.1490
   35POPC   H4R 4685   5.092   3.873  10.316  0.4913  1.1297  1.1274
   35POPC   H4S 4686   5.142   3.704  10.347 -4.5352  1.1883  3.7890
   35POPC   C25 4687   5.291   3.833  10.228 -0.0125 -0.0398 -0.4040
   35POPC   H5R 4688   5.389   3.792  10.261 -0.2617  0.6760  1.3370
   35POPC   H5S 4689   5.297   3.944  10.231  2.7329 -0.1443  0.7278
   35POPC   C26 4690   5.243   3.783  10.090  0.1143  0.6767 -0.4033
   35POPC   H6R 4691   5.147   3.831  10.064 -1.4086 -2.5153 -1.2086
   35POPC   H6S 4692   5.229   3.673  10.099 -0.3971  0.6218 -1.6759
   35POPC   C27 4693   5.337   3.823   9.985 -0.1790  0.0082  0.8716
   35POPC   H7R 4694   5.440   3.783  10.001 -0.3981 -1.2955 -0.7300
   35POPC   H7S 4695   5.353   3.933   9.993  0.7892  0.1277 -1.7390
   35POPC   C28 4696   5.279   3.789   9.845 -0.5395 -0.8281  0.7165
   35POPC   H8R 4697   5.265   3.679   9.855  0.2309 -0.9079  0.9877
   35POPC   H8S 4698   5.349   3.805   9.761 -1.5535 -3.6908 -0.8182
   35POPC   C29 4699   5.148   3.849   9.808 -0.1853  0.6120 -0.0029
   35POPC   H91 4700   5.070   3.798   9.869  0.9759  1.0879  1.9817
   35POPC  C210 4701   5.126   3.958   9.736  0.2047 -0.2193  0.0111
   35POPC  H101 4702   5.023   3.992   9.719 -1.0781 -3.9970 -0.8267
   35POPC  C211 4703   5.238   4.036   9.672  0.0427 -0.3141 -0.3223
   35POPC  H11R 4704   5.343   4.007   9.694  0.8235 -0.0687 -3.2637
   35POPC  H11S 4705   5.230   4.142   9.704  0.9671  0.3290 -2.0737
   35POPC  C212 4706   5.238   4.029   9.521 -0.0003  0.3875  0.3295
   35POPC  H12R 4707   5.158   4.098   9.485 -0.8015 -0.6041  0.1875
   35POPC  H12S 4708   5.216   3.931   9.474  0.2669 -0.1534  1.3159
   35POPC  C213 4709   5.378   4.080   9.457 -0.5893 -0.0779  0.1092
   35POPC  H13R 4710   5.450   4.001   9.487  0.0413 -0.0968 -1.3868
   35POPC  H13S 4711   5.403   4.175   9.510 -0.5279  0.5207 -0.9488
   35POPC  C214 4712   5.379   4.115   9.310 -0.9232  0.4951 -0.3541
   35POPC  H14R 4713   5.464   4.186   9.300 -3.1151  3.1239 -1.6853
   35POPC  H14S 4714   5.290   4.169   9.272 -1.5713 -0.2239  0.1175
   35POPC  C215 4715   5.398   3.989   9.217  1.0028  0.1854  0.5004
   35POPC  H15R 4716   5.319   3.913   9.230  2.0873 -1.1102 -0.2509
   35POPC  H15S 4717   5.493   3.939   9.247  0.5643  0.1281  1.8625
   35POPC  C216 4718   5.411   4.025   9.071  0.1192 -0.1889 -0.0894
   35POPC  H16R 4719   5.485   4.105   9.050  0.7154 -0.5307  0.6842
   35POPC  H16S 4720   5.311   4.059   9.035  0.1939 -0.1518 -0.2670
   35POPC  C217 4721   5.452   3.904   8.984  0.3735  0.2278 -0.4737
   35POPC  H17R 4722   5.385   3.823   9.019  1.0593 -0.4153 -0.6439
   35POPC  H17S 4723   5.559   3.882   9.002  0.1115  0.7436  2.0191
   35POPC  C218 4724   5.426   3.923   8.836  0.1935  0.0305 -0.0094
   35POPC  H18R 4725   5.322   3.953   8.811  0.8038  2.3366  0.0352
   35POPC  H18S 4726   5.443   3.828   8.781 -0.0436 -0.4014  0.6435
   35POPC  H18T 4727   5.501   3.999   8.805  0.2009  1.6476  3.4966
   35POPC   C33 4728   5.020   3.365  10.215 -0.1245 -0.0112  0.6340
   35POPC   H3X 4729   4.965   3.459  10.193  3.3829  1.5437 -2.9431
   35POPC   H3Y 4730   4.962   3.271  10.220 -0.4770 -0.1153 -2.6768
   35POPC   C34 4731   5.134   3.352  10.113  0.5701 -0.6344 -0.8817
   35POPC   H4X 4732   5.176   3.250  10.110  3.5332  0.3926  0.7871
   35POPC   H4Y 4733   5.218   3.421  10.138 -1.0564  0.7473  1.0988
   35POPC   C35 4734   5.089   3.390   9.978 -0.0015 -0.3648  0.4252
   35POPC   H5X 4735   5.178   3.401   9.913  0.0883 -1.3162  0.3683
   35POPC   H5Y 4736   5.048   3.493   9.975 -0.2659 -0.4804 -0.0023
   35POPC   C36 4737   4.980   3.296   9.918  0.0845 -0.1467  0.0975
   35POPC   H6X 4738   4.890   3.294   9.983  0.5610 -1.5314  0.7343
   35POPC   H6Y 4739   5.020   3.193   9.923 -0.9332 -0.5817 -0.2799
   35POPC   C37 4740   4.946   3.313   9.767 -0.8460 -0.0175  0.9646
   35POPC   H7X 4741   4.900   3.214   9.748 -0.5037 -0.4832  2.4511
   35POPC   H7Y 4742   5.040   3.311   9.707 -1.0848 -0.1978  0.5929
   35POPC   C38 4743   4.862   3.432   9.729 -0.4626  0.1176 -0.4587
   35POPC   H8X 4744   4.863   3.509   9.809  2.6541  0.7463 -0.9716
   35POPC   H8Y 4745   4.754   3.409   9.720 -0.5655 -0.4616  1.7800
   35POPC   C39 4746   4.906   3.489   9.595 -0.0747 -0.3495  0.6664
   35POPC   H9X 4747   5.014   3.510   9.588 -0.3064  0.4264 -0.8608
   35POPC   H9Y 4748   4.848   3.581   9.576 -0.4648 -0.7971 -0.3811
   35POPC  C310 4749   4.874   3.408   9.464  0.2014 -0.2938  0.0523
   35POPC  H10X 4750   4.764   3.392   9.457  0.5306 -2.3928 -0.8081
   35POPC  H10Y 4751   4.926   3.311   9.476  1.3185  0.3408  0.4642
   35POPC  C311 4752   4.903   3.483   9.332 -0.2447  1.0919 -0.1252
   35POPC  H11X 4753   5.010   3.513   9.340  0.0493  0.0348  0.0493
   35POPC  H11Y 4754   4.839   3.572   9.316  0.1832  1.3641 -0.3492
   35POPC  C312 4755   4.907   3.388   9.206 -0.0918  0.5716  0.4206
   35POPC  H12X 4756   4.820   3.319   9.213  0.6056 -0.5778 -1.4852
   35POPC  H12Y 4757   4.992   3.317   9.215  0.2171  0.8053 -0.5235
   35POPC  C313 4758   4.939   3.463   9.085 -0.6751 -0.2511  0.2033
   35POPC  H13X 4759   5.007   3.547   9.111 -0.2251 -0.9602  1.3666
   35POPC  H13Y 4760   4.850   3.517   9.045  1.0101  0.1799 -3.4047
   35POPC  C314 4761   4.994   3.392   8.964  0.1055  0.5719  0.6815
   35POPC  H14X 4762   4.916   3.320   8.929  1.1308  0.2430 -1.0495
   35POPC  H14Y 4763   5.089   3.342   8.989  0.4981 -1.2443 -3.5371
   35POPC  C315 4764   5.008   3.481   8.843  0.3901 -0.5668  0.0183
   35POPC  H15X 4765   5.109   3.528   8.846  0.1969 -0.0888 -0.6272
   35POPC  H15Y 4766   4.922   3.551   8.851 -1.4313 -2.6450 -0.4978
   35POPC  C316 4767   4.980   3.409   8.710  0.0712  0.2607  0.6573
   35POPC  H16X 4768   4.970   3.476   8.622 -2.0044 -0.1323  0.5444
   35POPC  H16Y 4769   4.884   3.355   8.720 -0.7622  1.0932 -2.0445
   35POPC  H16Z 4770   5.055   3.330   8.687  0.4792  0.8158  0.0444
   36POPC     N 4771   2.879   2.905  10.908  0.0409 -0.4345 -0.4992
   36POPC   C12 4772   2.857   2.820  10.781  0.2733  0.1744  0.0737
   36POPC  H12A 4773   2.942   2.756  10.762 -0.3922 -1.3364  1.7714
   36POPC  H12B 4774   2.843   2.887  10.698 -0.6940 -0.0548  0.0319
   36POPC   C13 4775   2.748   2.975  10.944  0.0528  0.6092  0.4712
   36POPC  H13A 4776   2.677   2.904  10.982  1.9444 -2.8040 -1.8137
   36POPC  H13B 4777   2.768   3.056  11.013 -1.8842  1.0947  0.5311
   36POPC  H13C 4778   2.697   3.035  10.870 -3.1699  2.7769  4.1012
   36POPC   C14 4779   2.918   2.820  11.030 -0.5695  0.3448  0.1967
   36POPC  H14A 4780   2.858   2.730  11.040  0.3264 -0.1812  0.9616
   36POPC  H14B 4781   3.022   2.790  11.026 -0.2612  1.4501 -2.4023
   36POPC  H14C 4782   2.904   2.879  11.119 -1.2514 -1.1920  1.1598
   36POPC   C15 4783   2.986   3.003  10.879 -0.8221 -0.6389  0.7718
   36POPC  H15A 4784   2.999   3.059  10.970 -1.6112  1.9200 -0.5974
   36POPC  H15B 4785   2.972   3.079  10.804 -0.0245  0.5969  1.8494
   36POPC  H15C 4786   3.075   2.945  10.856 -0.0075  0.7983  0.1966
   36POPC   C11 4787   2.731   2.722  10.769  0.3394  0.0509  0.0484
   36POPC  H11A 4788   2.727   2.633  10.835 -0.0633  1.3982  1.9178
   36POPC  H11B 4789   2.747   2.685  10.665 -0.0627 -0.6390  0.2336
   36POPC     P 4790   2.477   2.727  10.826 -0.0392 -0.0718  0.0221
   36POPC   O13 4791   2.357   2.805  10.783  0.1852  0.1231 -0.6125
   36POPC   O14 4792   2.499   2.730  10.967 -0.2820  0.3653  0.0568
   36POPC   O12 4793   2.607   2.794  10.761 -0.3673  0.0041 -0.0422
   36POPC   O11 4794   2.473   2.573  10.777 -0.3904 -0.6801 -0.1243
   36POPC    C1 4795   2.414   2.552  10.647  0.7183 -0.0563  0.0056
   36POPC    HA 4796   2.438   2.632  10.573  0.2604  0.7695  0.7367
   36POPC    HB 4797   2.303   2.552  10.659  0.6944  2.0154  0.2543
   36POPC    C2 4798   2.457   2.411  10.588  0.3341  0.6698  0.4173
   36POPC    HS 4799   2.450   2.327  10.661  2.2413  0.3753  0.2966
   36POPC   O21 4800   2.586   2.419  10.519 -0.2973 -0.2821 -0.2861
   36POPC   C21 4801   2.656   2.307  10.511 -0.0360 -0.3810  0.4799
   36POPC   O22 4802   2.625   2.201  10.557 -0.2620 -0.0076 -0.2600
   36POPC   C22 4803   2.794   2.338  10.454  0.4645  0.4222  0.0111
   36POPC   H2R 4804   2.830   2.245  10.403  1.0922  1.8539 -2.3310
   36POPC   H2S 4805   2.855   2.365  10.543 -1.7516  2.1359  1.1053
   36POPC    C3 4806   2.356   2.361  10.483  0.2373 -0.0004 -0.4771
   36POPC    HX 4807   2.257   2.338  10.528  0.1801 -0.2398 -0.7209
   36POPC    HY 4808   2.400   2.268  10.443 -0.8311 -0.3738 -0.8336
   36POPC   O31 4809   2.341   2.459  10.379  0.4252  0.8194 -0.4538
   36POPC   C31 4810   2.243   2.437  10.295  0.4971 -0.1351  0.0718
   36POPC   O32 4811   2.176   2.335  10.292  0.1461  0.7011  0.4844
   36POPC   C32 4812   2.225   2.554  10.203  0.0349 -0.1526  0.6376
   36POPC   H2X 4813   2.319   2.612  10.193  0.2366 -0.0082  2.8887
   36POPC   H2Y 4814   2.137   2.616  10.232 -0.4189 -1.3890  2.0193
   36POPC   C23 4815   2.794   2.452  10.345  1.1706  0.2833 -0.1549
   36POPC   H3R 4816   2.896   2.492  10.331  1.2495  0.4352  0.8396
   36POPC   H3S 4817   2.747   2.540  10.393  0.8198 -0.2535  0.5033
   36POPC   C24 4818   2.724   2.432  10.208 -0.2863  0.3721  0.4435
   36POPC   H4R 4819   2.618   2.453  10.233 -0.9585 -1.0138 -1.0827
   36POPC   H4S 4820   2.740   2.324  10.186 -1.1568  0.6720 -1.8733
   36POPC   C25 4821   2.756   2.531  10.093  0.2700  0.0101  0.1801
   36POPC   H5R 4822   2.866   2.534  10.077  0.3599  3.6626  0.7114
   36POPC   H5S 4823   2.735   2.637  10.118 -2.5558  0.3098 -2.8008
   36POPC   C26 4824   2.687   2.495   9.964 -0.5098 -0.1221  0.3413
   36POPC   H6R 4825   2.581   2.469   9.987 -0.7375  0.8581  0.4525
   36POPC   H6S 4826   2.736   2.407   9.918 -1.5988 -0.5519 -0.0266
   36POPC   C27 4827   2.692   2.618   9.871  0.3684  0.3937 -0.1597
   36POPC   H7R 4828   2.799   2.647   9.878  0.3480  0.1222  3.1476
   36POPC   H7S 4829   2.625   2.691   9.922 -0.0323 -1.1339  1.6406
   36POPC   C28 4830   2.637   2.596   9.731  0.3681 -0.0491 -0.0052
   36POPC   H8R 4831   2.531   2.563   9.728  1.2495 -3.1971 -0.5990
   36POPC   H8S 4832   2.687   2.504   9.691  2.8091  1.0170  0.4284
   36POPC   C29 4833   2.658   2.706   9.630  0.2689 -0.5741  0.0040
   36POPC   H91 4834   2.718   2.791   9.666 -0.8727  0.8579 -1.2969
   36POPC  C210 4835   2.615   2.713   9.500  0.6429  0.5325  0.2922
   36POPC  H101 4836   2.630   2.808   9.448 -2.7590  1.8549  1.4264
   36POPC  C211 4837   2.538   2.607   9.432 -0.0778 -0.2026  1.0534
   36POPC  H11R 4838   2.427   2.608   9.446 -0.0337 -1.2095  1.5524
   36POPC  H11S 4839   2.578   2.507   9.459  0.7760 -0.6277 -1.5223
   36POPC  C212 4840   2.550   2.622   9.282 -0.0613  0.1287  0.0158
   36POPC  H12R 4841   2.644   2.590   9.233 -0.5704 -3.1237  0.9608
   36POPC  H12S 4842   2.535   2.726   9.246 -1.1604 -0.5684 -1.6617
   36POPC  C213 4843   2.443   2.546   9.208  0.1584  0.0235 -0.2092
   36POPC  H13R 4844   2.348   2.597   9.235  1.7970  1.9604  2.3661
   36POPC  H13S 4845   2.436   2.441   9.241 -1.8238  0.4698  0.9721
   36POPC  C214 4846   2.439   2.567   9.056  0.1917 -0.1182  0.0141
   36POPC  H14R 4847   2.544   2.565   9.021  0.3237  1.9107  0.1812
   36POPC  H14S 4848   2.405   2.670   9.033  0.2377  0.0573  0.7293
   36POPC  C215 4849   2.355   2.462   8.979  0.0337  0.4504  0.1608
   36POPC  H15R 4850   2.247   2.490   8.985  0.1441  0.6993  1.1542
   36POPC  H15S 4851   2.362   2.354   9.005 -1.6101  0.0787 -0.7663
   36POPC  C216 4852   2.383   2.472   8.829  0.0169  0.2162  0.5672
   36POPC  H16R 4853   2.491   2.451   8.819  0.1347  0.9416  0.2495
   36POPC  H16S 4854   2.358   2.575   8.797 -0.0620 -0.1132 -0.5011
   36POPC  C217 4855   2.314   2.366   8.753 -0.3473  0.3774  0.3710
   36POPC  H17R 4856   2.208   2.370   8.785 -0.2423 -1.5948  1.0770
   36POPC  H17S 4857   2.350   2.262   8.768  0.7556  0.4461 -1.4509
   36POPC  C218 4858   2.290   2.388   8.597 -0.2894  0.5057  0.6086
   36POPC  H18R 4859   2.372   2.448   8.552  0.2128 -0.3613  0.3489
   36POPC  H18S 4860   2.204   2.456   8.579 -0.5823  0.2238  0.9364
   36POPC  H18T 4861   2.289   2.289   8.546  0.8715  1.0672 -0.5695
   36POPC   C33 4862   2.201   2.513  10.054 -0.0271  0.2468  0.0887
   36POPC   H3X 4863   2.110   2.450  10.051 -1.0622  1.6649  0.3603
   36POPC   H3Y 4864   2.287   2.450  10.024 -0.1137 -1.0135  2.2488
   36POPC   C34 4865   2.181   2.631   9.956  0.0737 -0.2296 -0.0123
   36POPC   H4X 4866   2.247   2.714   9.988 -1.4612  0.7849  0.6710
   36POPC   H4Y 4867   2.076   2.667   9.970 -0.3168 -1.2315 -0.3007
   36POPC   C35 4868   2.192   2.597   9.804  0.2821 -0.4248  0.8413
   36POPC   H5X 4869   2.143   2.497   9.795  1.0866 -1.0120  2.5845
   36POPC   H5Y 4870   2.294   2.583   9.763 -0.5844 -1.3779 -1.1191
   36POPC   C36 4871   2.128   2.707   9.715  0.0990  0.1086 -0.6884
   36POPC   H6X 4872   2.196   2.792   9.737  0.3165  0.0487 -1.1086
   36POPC   H6Y 4873   2.024   2.721   9.749 -1.0170 -2.2255 -2.7486
   36POPC   C37 4874   2.136   2.683   9.564 -0.6302  0.0172 -0.0190
   36POPC   H7X 4875   2.057   2.608   9.542  0.8116 -2.3545  2.2946
   36POPC   H7Y 4876   2.231   2.630   9.538 -1.6741 -3.0091  1.7684
   36POPC   C38 4877   2.105   2.803   9.481  1.0023  1.4324  0.0757
   36POPC   H8X 4878   2.157   2.894   9.518  1.7551  0.4219  1.6424
   36POPC   H8Y 4879   2.000   2.837   9.491  0.7460  0.8677 -0.5926
   36POPC   C39 4880   2.136   2.780   9.333  0.8987  0.9225 -0.1776
   36POPC   H9X 4881   2.093   2.677   9.325  0.6019  0.9679  0.7629
   36POPC   H9Y 4882   2.247   2.783   9.333  0.9401 -0.2260 -0.3041
   36POPC  C310 4883   2.077   2.866   9.220 -0.0759 -0.1034 -0.4487
   36POPC  H10X 4884   2.127   2.964   9.232 -2.1273  0.9648 -0.3283
   36POPC  H10Y 4885   1.969   2.877   9.239 -0.1759  0.6394 -1.3878
   36POPC  C311 4886   2.092   2.812   9.074 -0.2716 -0.1263  0.1796
   36POPC  H11X 4887   2.034   2.717   9.069  3.5001 -2.7211  1.5952
   36POPC  H11Y 4888   2.197   2.779   9.060  0.1323  1.3988 -0.6013
   36POPC  C312 4889   2.046   2.923   8.972  0.1637 -0.0241  0.4793
   36POPC  H12X 4890   2.109   3.012   8.990  2.4436 -0.8759 -2.4991
   36POPC  H12Y 4891   1.936   2.940   8.977 -0.6172 -2.7736 -2.8625
   36POPC  C313 4892   2.072   2.884   8.818  0.2644  0.4572  0.0972
   36POPC  H13X 4893   2.173   2.841   8.806 -0.0023  0.1364 -1.1505
   36POPC  H13Y 4894   2.058   2.979   8.762 -1.2754  1.2064  1.6573
   36POPC  C314 4895   1.993   2.778   8.743  0.2214 -0.3818 -0.3327
   36POPC  H14X 4896   1.986   2.687   8.806 -1.3922  1.0820  1.7080
   36POPC  H14Y 4897   2.045   2.753   8.648  1.4942  1.2472 -0.1093
   36POPC  C315 4898   1.840   2.816   8.731 -0.2377  0.7454  0.1353
   36POPC  H15X 4899   1.809   2.872   8.821 -1.9809  0.4714 -0.2410
   36POPC  H15Y 4900   1.773   2.727   8.736  1.5715 -0.7466 -0.8587
   36POPC  C316 4901   1.807   2.886   8.599 -0.0322  0.2388  0.1298
   36POPC  H16X 4902   1.814   2.816   8.514  2.4060 -0.6696  0.9881
   36POPC  H16Y 4903   1.884   2.965   8.591  1.5615 -1.3148 -0.3447
   36POPC  H16Z 4904   1.702   2.922   8.610  0.6189  2.9858 -1.6742
   37POPC     N 4905   0.866   0.484   6.485 -0.0619 -0.0875 -0.1934
   37POPC   C12 4906   0.800   0.454   6.615 -0.2839  0.2195 -0.1262
   37POPC  H12A 4907   0.870   0.460   6.697 -0.2395  0.9763 -0.2165
   37POPC  H12B 4908   0.775   0.349   6.608  1.0747 -0.0188 -2.5206
   37POPC   C13 4909   1.001   0.420   6.471  0.3310  0.1886 -0.9662
   37POPC  H13A 4910   1.064   0.451   6.553 -1.7637 -0.2939  0.9260
   37POPC  H13B 4911   0.995   0.312   6.472 -0.2665  0.2059 -1.8506
   37POPC  H13C 4912   1.050   0.442   6.377 -1.1928  1.5719 -1.4955
   37POPC   C14 4913   0.792   0.423   6.373  0.3578 -0.0615 -0.1863
   37POPC  H14A 4914   0.832   0.444   6.275 -1.4117  0.8927 -0.7504
   37POPC  H14B 4915   0.786   0.315   6.379  1.4633 -0.2221 -1.5911
   37POPC  H14C 4916   0.688   0.452   6.378  0.3124  0.5838 -3.1819
   37POPC   C15 4917   0.876   0.628   6.464 -0.1265 -0.7750 -0.4074
   37POPC  H15A 4918   0.807   0.691   6.518  0.0127  0.6398 -1.7927
   37POPC  H15B 4919   0.871   0.657   6.360 -0.9962  0.1840 -0.1138
   37POPC  H15C 4920   0.971   0.658   6.507 -1.5317 -0.5983  2.8687
   37POPC   C11 4921   0.664   0.511   6.647 -0.8540 -0.8993  0.1115
   37POPC  H11A 4922   0.681   0.619   6.663 -0.4727 -0.7243 -1.2846
   37POPC  H11B 4923   0.621   0.464   6.738 -0.3656 -1.7928 -0.1011
   37POPC     P 4924   0.428   0.551   6.548  0.2284  0.2363  0.0075
   37POPC   O13 4925   0.326   0.466   6.598  0.3246 -0.1191  0.5717
   37POPC   O14 4926   0.399   0.609   6.415  0.5333 -0.3170  0.0830
   37POPC   O12 4927   0.569   0.471   6.548  0.5955  0.1180 -0.3521
   37POPC   O11 4928   0.451   0.669   6.644 -0.0991 -0.1454 -0.9207
   37POPC    C1 4929   0.354   0.773   6.665  0.4644 -0.1763  0.9662
   37POPC    HA 4930   0.266   0.763   6.598 -0.6618 -0.6077  2.4410
   37POPC    HB 4931   0.395   0.875   6.645 -1.3011  0.3554 -0.1733
   37POPC    C2 4932   0.298   0.768   6.814 -0.7009 -0.0977  0.1416
   37POPC    HS 4933   0.257   0.865   6.851 -0.4501 -0.8293  2.4698
   37POPC   O21 4934   0.387   0.722   6.910  0.6805 -0.6051  0.0497
   37POPC   C21 4935   0.503   0.786   6.912 -0.0877  0.0248  0.5130
   37POPC   O22 4936   0.520   0.892   6.851 -0.5980  0.8892 -0.8442
   37POPC   C22 4937   0.608   0.714   6.995  0.1286  0.0453 -0.2795
   37POPC   H2R 4938   0.628   0.633   6.921  2.1775  0.4684 -0.2551
   37POPC   H2S 4939   0.558   0.658   7.076 -0.2452 -3.9959 -2.9883
   37POPC    C3 4940   0.173   0.678   6.821 -0.2953 -0.1501 -0.1779
   37POPC    HX 4941   0.198   0.574   6.791 -0.5899 -0.1907 -0.2811
   37POPC    HY 4942   0.101   0.712   6.743 -0.9878  1.0562  0.9596
   37POPC   O31 4943   0.110   0.683   6.954 -1.0269 -0.5093 -0.1181
   37POPC   C31 4944   0.058   0.796   6.995 -0.4427  0.0163 -0.1297
   37POPC   O32 4945   0.019   0.883   6.918  0.0073 -0.5544  0.5618
   37POPC   C32 4946   0.040   0.804   7.150  0.4006  1.0181  0.1086
   37POPC   H2X 4947   0.141   0.826   7.191  0.4868  0.4483  0.2190
   37POPC   H2Y 4948   0.002   0.706   7.188  0.5330  0.3355 -1.4186
   37POPC   C23 4949   0.731   0.792   7.022  0.7839 -0.6483  0.9370
   37POPC   H3R 4950   0.757   0.860   6.939 -1.0911 -1.0817 -0.0520
   37POPC   H3S 4951   0.808   0.712   7.018 -0.5092 -1.9576  1.0657
   37POPC   C24 4952   0.728   0.865   7.159 -0.1362 -0.1790  0.9082
   37POPC   H4R 4953   0.743   0.784   7.234  3.1334 -1.3329 -0.7914
   37POPC   H4S 4954   0.628   0.913   7.162  0.4775  1.2827 -0.6046
   37POPC   C25 4955   0.844   0.959   7.184  0.1641  0.4021 -0.6254
   37POPC   H5R 4956   0.832   1.037   7.105 -1.0741 -1.9245 -2.8894
   37POPC   H5S 4957   0.940   0.910   7.155 -0.5293 -1.2700 -0.1584
   37POPC   C26 4958   0.857   1.035   7.323  0.0186  0.3218 -0.8040
   37POPC   H6R 4959   0.798   0.967   7.387  0.1206  2.0585  1.2422
   37POPC   H6S 4960   0.810   1.135   7.308  1.0549  1.9780  4.7801
   37POPC   C27 4961   1.002   1.040   7.371 -0.1939 -0.1658  0.0506
   37POPC   H7R 4962   1.072   1.078   7.293  1.2007  3.0768  2.6414
   37POPC   H7S 4963   1.038   0.945   7.414 -0.7084 -1.3761 -2.0450
   37POPC   C28 4964   1.017   1.148   7.481  0.0398  0.3340  0.3844
   37POPC   H8R 4965   0.949   1.114   7.562 -4.0337  2.0134 -2.0245
   37POPC   H8S 4966   0.971   1.238   7.435 -0.0719 -0.3038 -0.7668
   37POPC   C29 4967   1.153   1.191   7.516  0.4114  0.5496  0.1075
   37POPC   H91 4968   1.211   1.223   7.428  1.3454  0.4130  0.6639
   37POPC  C210 4969   1.216   1.181   7.632 -0.2224  0.0933  0.1904
   37POPC  H101 4970   1.319   1.213   7.654 -0.6255  1.8575 -0.3490
   37POPC  C211 4971   1.138   1.134   7.754 -0.2477 -0.3303  0.0768
   37POPC  H11R 4972   1.070   1.050   7.730  0.5660 -1.4758  1.6527
   37POPC  H11S 4973   1.063   1.211   7.783  1.8892  1.8843  0.0512
   37POPC  C212 4974   1.233   1.099   7.868  0.2920  0.4324 -0.2909
   37POPC  H12R 4975   1.285   1.191   7.900 -1.5590  1.6074 -0.5438
   37POPC  H12S 4976   1.310   1.026   7.835  0.5337  1.6762 -2.7510
   37POPC  C213 4977   1.174   1.021   7.989  0.1918 -0.0051  0.0588
   37POPC  H13R 4978   1.122   0.928   7.957 -0.7994  0.5213  0.0752
   37POPC  H13S 4979   1.088   1.080   8.028 -1.5730 -2.9997  1.0680
   37POPC  C214 4980   1.263   0.998   8.108 -0.7280  0.2655 -0.7029
   37POPC  H14R 4981   1.195   0.991   8.196  1.1025 -0.3491  0.7110
   37POPC  H14S 4982   1.330   1.082   8.132 -1.2459  0.7593 -0.9570
   37POPC  C215 4983   1.345   0.863   8.099  1.0442  0.1487  0.4890
   37POPC  H15R 4984   1.407   0.853   8.008 -1.3736  0.1656 -1.2572
   37POPC  H15S 4985   1.268   0.785   8.083  0.3033  1.2899 -1.9005
   37POPC  C216 4986   1.443   0.836   8.214  0.0698 -0.1354 -0.4749
   37POPC  H16R 4987   1.378   0.831   8.304  0.9973  0.1145  0.2215
   37POPC  H16S 4988   1.524   0.912   8.220  0.5047 -0.5323 -1.1753
   37POPC  C217 4989   1.520   0.704   8.194  0.3705  0.5341 -0.1103
   37POPC  H17R 4990   1.606   0.712   8.125  1.8760 -2.9590  1.1637
   37POPC  H17S 4991   1.445   0.631   8.157 -0.7389  1.2109  0.7365
   37POPC  C218 4992   1.570   0.657   8.331 -0.0491  0.0492  0.2213
   37POPC  H18R 4993   1.635   0.734   8.378 -1.2063  1.0558  0.2539
   37POPC  H18S 4994   1.618   0.557   8.337 -1.2364 -0.4482  2.5965
   37POPC  H18T 4995   1.491   0.632   8.405  0.6955 -0.4896  0.8425
   37POPC   C33 4996  -0.055   0.917   7.186  0.3163  0.0810 -0.1063
   37POPC   H3X 4997  -0.157   0.893   7.148  0.1788  2.2254 -1.2803
   37POPC   H3Y 4998  -0.028   1.009   7.129 -3.1850 -0.4563 -3.0024
   37POPC   C34 4999  -0.073   0.933   7.338  0.2539 -0.2367 -1.3399
   37POPC   H4X 5000  -0.029   0.843   7.386  0.4688  0.8660  0.6717
   37POPC   H4Y 5001  -0.176   0.960   7.367  1.3421  1.8460  0.9637
   37POPC   C35 5002   0.005   1.045   7.407 -0.6861  0.5934  0.4585
   37POPC   H5X 5003   0.009   1.130   7.335 -1.3797  0.1633 -0.0987
   37POPC   H5Y 5004   0.112   1.019   7.425  0.3702  0.8296 -4.2078
   37POPC   C36 5005  -0.056   1.098   7.536 -0.3932  0.5585  0.0423
   37POPC   H6X 5006  -0.159   1.131   7.513 -1.0580  0.3324  2.3933
   37POPC   H6Y 5007  -0.010   1.195   7.566  0.4316 -0.4536  2.3354
   37POPC   C37 5008  -0.034   1.027   7.667 -0.4770  0.6344  0.5409
   37POPC   H7X 5009  -0.044   1.100   7.750 -1.2481 -0.6587  1.6206
   37POPC   H7Y 5010   0.073   1.000   7.669 -0.3967  0.6975 -1.3571
   37POPC   C38 5011  -0.123   0.908   7.681  0.2477  1.0973 -0.1270
   37POPC   H8X 5012  -0.104   0.843   7.593  1.6567  0.8672  0.3210
   37POPC   H8Y 5013  -0.227   0.948   7.674 -0.5972 -0.8222  0.6713
   37POPC   C39 5014  -0.113   0.844   7.823 -0.0258  0.4573 -0.1205
   37POPC   H9X 5015  -0.165   0.904   7.901 -0.6184  0.6466 -0.6576
   37POPC   H9Y 5016  -0.006   0.845   7.855  0.7816 -1.4766 -2.4589
   37POPC  C310 5017  -0.179   0.705   7.831 -0.5627  0.1339 -0.2228
   37POPC  H10X 5018  -0.151   0.628   7.756 -0.8183 -0.5823  0.4034
   37POPC  H10Y 5019  -0.280   0.726   7.792  0.0275 -0.4729 -2.2152
   37POPC  C311 5020  -0.172   0.628   7.968  0.2437  0.6249 -0.0948
   37POPC  H11X 5021  -0.069   0.588   7.985  0.5161  0.6965 -1.4384
   37POPC  H11Y 5022  -0.233   0.538   7.947  2.2347 -0.5478 -1.2097
   37POPC  C312 5023  -0.229   0.710   8.080 -0.2341  0.0389  0.2268
   37POPC  H12X 5024  -0.308   0.779   8.044  2.0903  2.3820 -0.6961
   37POPC  H12Y 5025  -0.141   0.767   8.117  0.2667 -1.5472  1.6240
   37POPC  C313 5026  -0.280   0.640   8.207  0.2049  0.3874 -0.1589
   37POPC  H13X 5027  -0.210   0.558   8.237 -2.0947 -1.2894  0.9563
   37POPC  H13Y 5028  -0.374   0.592   8.172 -0.1832 -0.0958  1.4728
   37POPC  C314 5029  -0.313   0.725   8.327 -0.3245 -0.5047  0.7864
   37POPC  H14X 5030  -0.405   0.786   8.311  0.2242  0.0173 -0.5215
   37POPC  H14Y 5031  -0.235   0.800   8.353 -1.5674  0.7261  1.0657
   37POPC  C315 5032  -0.336   0.636   8.448 -0.2185 -0.6108  0.0426
   37POPC  H15X 5033  -0.251   0.567   8.469  0.1489 -0.1505  0.0970
   37POPC  H15Y 5034  -0.430   0.579   8.438  0.6465 -2.2946  1.0827
   37POPC  C316 5035  -0.360   0.726   8.573 -0.7030  0.1590  0.0925
   37POPC  H16X 5036  -0.424   0.813   8.548  2.2283  2.3012 -0.5599
   37POPC  H16Y 5037  -0.266   0.771   8.614 -0.5958  0.1115 -0.0999
   37POPC  H16Z 5038  -0.414   0.652   8.636  3.3222 -3.4111 -0.1236
   38POPC     N 5039   3.678   4.418   6.238 -0.4063  0.4053 -0.1370
   38POPC   C12 5040   3.632   4.541   6.305  0.2337  0.4725  0.0129
   38POPC  H12A 5041   3.609   4.613   6.227 -2.0170 -1.5105 -1.2961
   38POPC  H12B 5042   3.714   4.583   6.361 -0.5790  2.0544  0.0730
   38POPC   C13 5043   3.698   4.315   6.336  0.4143 -0.9671  0.2101
   38POPC  H13A 5044   3.760   4.356   6.414  2.5306 -1.4656 -1.1338
   38POPC  H13B 5045   3.608   4.284   6.389 -0.4766  0.8936 -0.1574
   38POPC  H13C 5046   3.762   4.236   6.299  1.1172 -0.0476 -0.5574
   38POPC   C14 5047   3.573   4.366   6.135  0.6987  0.2780 -0.4703
   38POPC  H14A 5048   3.551   4.434   6.055 -0.8128 -1.2528 -1.4304
   38POPC  H14B 5049   3.599   4.271   6.091  4.3466  1.4444 -1.1743
   38POPC  H14C 5050   3.477   4.350   6.182  0.4169  1.1626 -0.7360
   38POPC   C15 5051   3.808   4.444   6.161  0.2381  0.4210 -0.0292
   38POPC  H15A 5052   3.876   4.490   6.231  0.5488 -1.6173  1.1076
   38POPC  H15B 5053   3.786   4.517   6.085  1.9998 -1.0658 -2.0870
   38POPC  H15C 5054   3.851   4.358   6.111 -2.3377 -0.6815 -0.5170
   38POPC   C11 5055   3.513   4.534   6.399  0.1950  0.0967  0.2151
   38POPC  H11A 5056   3.484   4.639   6.422  2.8752  0.9302  0.0546
   38POPC  H11B 5057   3.556   4.482   6.488  2.5881  2.1618  0.3744
   38POPC     P 5058   3.266   4.442   6.425  0.1587  0.2109  0.2228
   38POPC   O13 5059   3.158   4.412   6.330 -0.1445 -0.0691  0.1787
   38POPC   O14 5060   3.248   4.562   6.506  0.0045 -0.2718 -0.1548
   38POPC   O12 5061   3.401   4.465   6.348 -0.0976  0.3358 -0.1320
   38POPC   O11 5062   3.292   4.311   6.509 -0.2759  0.0735 -0.3233
   38POPC    C1 5063   3.261   4.182   6.452 -1.2367 -0.3071 -0.2029
   38POPC    HA 5064   3.339   4.113   6.491  0.9175  2.9259  1.6770
   38POPC    HB 5065   3.276   4.178   6.342  1.8970  0.4864  0.1038
   38POPC    C2 5066   3.127   4.122   6.495 -0.2343  0.1781 -0.4176
   38POPC    HS 5067   3.052   4.192   6.452 -0.4390 -1.8001 -3.5430
   38POPC   O21 5068   3.131   4.122   6.644 -0.1817 -0.3379  0.0759
   38POPC   C21 5069   3.084   4.234   6.696  0.3135 -0.3156 -0.8692
   38POPC   O22 5070   3.013   4.316   6.641  0.1544 -0.0566  0.1499
   38POPC   C22 5071   3.128   4.243   6.845 -0.1328 -0.0228 -0.1324
   38POPC   H2R 5072   3.236   4.269   6.849  0.5269 -2.6038  1.1280
   38POPC   H2S 5073   3.109   4.136   6.870 -0.2147  0.0046 -0.0743
   38POPC    C3 5074   3.105   3.986   6.429  0.0678  0.5823 -0.4781
   38POPC    HX 5075   3.187   3.919   6.460  0.2978  0.7718 -0.6683
   38POPC    HY 5076   3.113   3.997   6.319 -0.7461  1.3147 -0.4832
   38POPC   O31 5077   2.972   3.940   6.459  0.1132  0.5055  0.2205
   38POPC   C31 5078   2.949   3.803   6.479 -0.0567  0.1371  0.2249
   38POPC   O32 5079   3.037   3.720   6.473 -0.0971 -0.1931  0.0959
   38POPC   C32 5080   2.798   3.780   6.506 -0.0090 -0.0022  0.9628
   38POPC   H2X 5081   2.775   3.685   6.453  0.2990 -0.1197  1.0382
   38POPC   H2Y 5082   2.737   3.848   6.442 -1.4243  0.3033  2.5671
   38POPC   C23 5083   3.046   4.336   6.933  0.3519  0.0262 -0.0562
   38POPC   H3R 5084   2.941   4.317   6.902 -0.6187  0.2249  2.7979
   38POPC   H3S 5085   3.074   4.440   6.906  2.2926 -0.2692  0.6613
   38POPC   C24 5086   3.065   4.317   7.083  0.4542  0.4723 -0.6754
   38POPC   H4R 5087   3.175   4.308   7.096  0.0534 -2.4221  1.7827
   38POPC   H4S 5088   3.030   4.216   7.113 -0.7123  0.6327 -1.4336
   38POPC   C25 5089   3.012   4.417   7.175  0.5326 -0.5192 -0.1213
   38POPC   H5R 5090   2.903   4.423   7.152  0.6006 -1.1345 -0.6168
   38POPC   H5S 5091   3.053   4.518   7.156  1.4665 -1.0937 -1.2693
   38POPC   C26 5092   3.030   4.367   7.320  0.7802  0.1900  0.9390
   38POPC   H6R 5093   3.129   4.319   7.335  0.3591 -1.6689 -1.5624
   38POPC   H6S 5094   2.951   4.292   7.343  1.0528 -0.5601 -0.4695
   38POPC   C27 5095   3.014   4.475   7.419 -0.2495  0.2182 -0.1168
   38POPC   H7R 5096   2.920   4.524   7.385 -0.4539 -1.5041 -2.2536
   38POPC   H7S 5097   3.090   4.551   7.391 -1.2645  0.4707 -2.4562
   38POPC   C28 5098   2.989   4.432   7.564 -0.7509  0.4164  0.7520
   38POPC   H8R 5099   2.937   4.334   7.572  1.2499 -0.8151 -0.3914
   38POPC   H8S 5100   2.936   4.516   7.612  1.4489  1.2274  1.8777
   38POPC   C29 5101   3.124   4.413   7.636  0.5954  0.3145 -0.8473
   38POPC   H91 5102   3.214   4.424   7.574  0.0728 -0.6064 -1.8009
   38POPC  C210 5103   3.132   4.380   7.768 -0.2507  0.2752 -0.3410
   38POPC  H101 5104   3.235   4.366   7.802  0.2194  0.2304 -1.7260
   38POPC  C211 5105   3.026   4.360   7.868 -0.8119 -0.1032 -0.2095
   38POPC  H11R 5106   2.975   4.456   7.889 -1.2313 -0.2041 -0.7309
   38POPC  H11S 5107   3.085   4.324   7.954 -0.6217  0.1050 -0.2539
   38POPC  C212 5108   2.923   4.246   7.855 -1.0406 -1.0995  0.2798
   38POPC  H12R 5109   2.969   4.147   7.837 -3.0135 -2.1336  0.7189
   38POPC  H12S 5110   2.863   4.274   7.765  2.4317  1.1687 -1.5578
   38POPC  C213 5111   2.830   4.233   7.979  0.6641  0.2557 -1.0221
   38POPC  H13R 5112   2.751   4.309   7.963 -0.4278 -0.6085  0.0454
   38POPC  H13S 5113   2.875   4.244   8.080 -0.3409 -0.3674 -0.4927
   38POPC  C214 5114   2.771   4.087   7.971  0.2625 -0.1269  0.0537
   38POPC  H14R 5115   2.851   4.013   7.992  0.0275 -1.6330 -3.6523
   38POPC  H14S 5116   2.744   4.068   7.865  2.3966 -1.1673 -0.3632
   38POPC  C215 5117   2.646   4.071   8.054  0.6699  0.1595 -0.8339
   38POPC  H15R 5118   2.589   3.980   8.024 -0.1162  0.4283 -0.2134
   38POPC  H15S 5119   2.583   4.161   8.036 -0.7555 -0.4721  0.6091
   38POPC  C216 5120   2.671   4.058   8.209  0.4903 -0.1995  0.9615
   38POPC  H16R 5121   2.607   4.127   8.268 -0.5041  0.1352 -0.4593
   38POPC  H16S 5122   2.775   4.096   8.219  0.5623 -0.0116 -0.2864
   38POPC  C217 5123   2.650   3.918   8.258  0.3098  0.2373 -0.0791
   38POPC  H17R 5124   2.692   3.860   8.173  1.2199  0.4076  0.2437
   38POPC  H17S 5125   2.545   3.884   8.268  0.8505 -1.6154 -0.2291
   38POPC  C218 5126   2.737   3.881   8.381  1.3225 -0.0744  0.5912
   38POPC  H18R 5127   2.757   3.968   8.448  0.3535 -0.4257  1.3611
   38POPC  H18S 5128   2.829   3.831   8.343  1.9349  0.2072  1.6643
   38POPC  H18T 5129   2.680   3.806   8.440  0.9647 -0.0924  0.2272
   38POPC   C33 5130   2.767   3.782   6.656  1.4584  0.1434 -0.5355
   38POPC   H3X 5131   2.818   3.701   6.712  1.1239  0.5945  0.4235
   38POPC   H3Y 5132   2.659   3.784   6.678  1.6358 -0.7109  0.5118
   38POPC   C34 5133   2.803   3.912   6.729  0.3454  0.5687  0.1436
   38POPC   H4X 5134   2.753   4.003   6.691  1.1163  1.6894  1.7031
   38POPC   H4Y 5135   2.909   3.940   6.712 -0.3339  2.1301 -1.8333
   38POPC   C35 5136   2.789   3.906   6.877 -0.0073  0.1191 -0.5537
   38POPC   H5X 5137   2.844   3.823   6.925  0.3190  0.6480  0.0098
   38POPC   H5Y 5138   2.682   3.881   6.894  0.2305 -0.0146  0.9345
   38POPC   C36 5139   2.828   4.036   6.949 -0.2278  0.4461  0.1056
   38POPC   H6X 5140   2.804   4.121   6.882  0.9424  0.9406  0.2928
   38POPC   H6Y 5141   2.938   4.042   6.959 -0.0657  2.3080 -2.0720
   38POPC   C37 5142   2.752   4.057   7.080  0.2053 -0.0892  0.6071
   38POPC   H7X 5143   2.644   4.061   7.055 -0.0814  0.5586  1.8754
   38POPC   H7Y 5144   2.789   4.153   7.121 -2.1226  0.8958  0.5217
   38POPC   C38 5145   2.773   3.944   7.188  0.6612  0.2074 -0.1958
   38POPC   H8X 5146   2.880   3.934   7.215  0.4771  1.4275  1.0831
   38POPC   H8Y 5147   2.729   3.849   7.150 -0.6844  0.3755  0.8642
   38POPC   C39 5148   2.697   3.976   7.317 -0.2848 -0.0723 -0.7673
   38POPC   H9X 5149   2.588   3.980   7.296 -0.3531  1.0775 -0.2594
   38POPC   H9Y 5150   2.729   4.080   7.340 -0.8667 -0.1492  0.4969
   38POPC  C310 5151   2.729   3.888   7.439 -0.5524  0.0162  0.4473
   38POPC  H10X 5152   2.838   3.869   7.433 -0.7142 -0.5534 -1.4365
   38POPC  H10Y 5153   2.684   3.790   7.412 -2.1583  0.7934  0.1537
   38POPC  C311 5154   2.687   3.952   7.574 -0.5885 -0.7328  0.3888
   38POPC  H11X 5155   2.603   4.015   7.537 -1.7342 -2.4047  0.0198
   38POPC  H11Y 5156   2.764   4.022   7.612 -1.6743  0.0828  1.1471
   38POPC  C312 5157   2.629   3.857   7.682 -1.0693 -0.5000 -0.3213
   38POPC  H12X 5158   2.567   3.775   7.642 -2.4617  0.0005  0.7175
   38POPC  H12Y 5159   2.581   3.921   7.760  1.0471  1.5312 -0.5382
   38POPC  C313 5160   2.760   3.778   7.743  0.8278 -0.5476 -0.4598
   38POPC  H13X 5161   2.841   3.851   7.763  0.1044 -0.1779  1.4407
   38POPC  H13Y 5162   2.801   3.715   7.661  3.2655  0.9413 -0.4796
   38POPC  C314 5163   2.738   3.701   7.871 -0.2790 -0.1139 -0.1539
   38POPC  H14X 5164   2.657   3.626   7.857  0.4804 -0.9712 -0.0612
   38POPC  H14Y 5165   2.714   3.771   7.954  2.1209  1.0767 -0.3751
   38POPC  C315 5166   2.863   3.631   7.907 -0.0902  0.1767 -0.8373
   38POPC  H15X 5167   2.945   3.706   7.909 -1.0696  1.2766  0.1949
   38POPC  H15Y 5168   2.899   3.560   7.830  1.3116 -1.0303  0.8649
   38POPC  C316 5169   2.872   3.556   8.038  0.3658 -0.0255 -0.4490
   38POPC  H16X 5170   2.972   3.507   8.036  0.5095  0.2710 -1.6133
   38POPC  H16Y 5171   2.785   3.489   8.050 -0.0044  0.4185 -0.6508
   38POPC  H16Z 5172   2.867   3.639   8.112  1.2719 -0.2300 -0.1442
   39POPC     N 5173   0.856   3.848   5.723 -0.9498  0.1496 -0.6507
   39POPC   C12 5174   0.892   3.936   5.844 -0.2092 -0.2088 -0.4569
   39POPC  H12A 5175   0.830   4.025   5.847 -0.6151 -0.3525 -2.7071
   39POPC  H12B 5176   0.991   3.972   5.819 -0.1802  0.4575  0.5577
   39POPC   C13 5177   0.901   3.920   5.597 -0.1342  0.2157 -0.6307
   39POPC  H13A 5178   0.889   3.862   5.506 -2.0945  1.2982 -1.1097
   39POPC  H13B 5179   0.840   4.008   5.587 -0.5019  0.2970  1.8673
   39POPC  H13C 5180   1.005   3.947   5.605  0.5548 -2.2876 -0.2429
   39POPC   C14 5181   0.926   3.710   5.726  0.1154 -0.5507 -0.4685
   39POPC  H14A 5182   0.896   3.668   5.821  0.2047  0.1021 -0.1445
   39POPC  H14B 5183   0.889   3.649   5.645  0.0999 -1.4566  0.2036
   39POPC  H14C 5184   1.033   3.714   5.713  0.0313  4.3100 -1.5049
   39POPC   C15 5185   0.712   3.825   5.718  0.5033  0.3045  0.7599
   39POPC  H15A 5186   0.667   3.924   5.711  0.5674  0.2984  0.2241
   39POPC  H15B 5187   0.675   3.772   5.804  1.1815 -0.6676  0.4649
   39POPC  H15C 5188   0.671   3.772   5.633 -0.3340  2.0985 -0.0157
   39POPC   C11 5189   0.898   3.871   5.985  0.7899  0.3304 -0.1999
   39POPC  H11A 5190   0.812   3.800   5.993  0.0862  1.2621  0.8547
   39POPC  H11B 5191   0.885   3.946   6.066  1.2806 -0.2692  0.4456
   39POPC     P 5192   1.135   3.843   6.087 -0.4242  0.0644  0.4112
   39POPC   O13 5193   1.184   3.967   6.020  0.0171  0.0651 -0.6673
   39POPC   O14 5194   1.230   3.732   6.108 -0.7252 -0.2752  0.2533
   39POPC   O12 5195   1.012   3.793   6.002  0.1889  0.1618 -0.4247
   39POPC   O11 5196   1.084   3.879   6.230  0.5134 -0.0536  0.3986
   39POPC    C1 5197   1.050   3.771   6.319  0.1340  0.7139  0.1181
   39POPC    HA 5198   1.141   3.735   6.372 -0.3674  0.2237  0.6579
   39POPC    HB 5199   0.998   3.682   6.277 -0.9003  0.7744  1.2174
   39POPC    C2 5200   0.950   3.818   6.437 -0.1568 -0.9645  0.7712
   39POPC    HS 5201   0.869   3.882   6.395 -0.6953 -1.0614  1.6333
   39POPC   O21 5202   1.028   3.905   6.524 -0.1054  0.0722 -0.1133
   39POPC   C21 5203   0.956   3.987   6.595 -0.6309 -0.2127  0.1819
   39POPC   O22 5204   0.835   4.002   6.591  0.5835  0.0540 -0.4390
   39POPC   C22 5205   1.049   4.085   6.678  0.3820  0.3053  0.3612
   39POPC   H2R 5206   1.066   4.174   6.614  3.1714 -0.4422 -0.0487
   39POPC   H2S 5207   1.150   4.042   6.694  0.8292  0.9184 -0.7007
   39POPC    C3 5208   0.865   3.708   6.517 -0.4533 -0.1980  0.2865
   39POPC    HX 5209   0.811   3.658   6.435  0.8779 -0.0262 -0.7396
   39POPC    HY 5210   0.784   3.760   6.574 -0.7764  0.2412 -0.5580
   39POPC   O31 5211   0.931   3.628   6.617 -0.6214  0.5052 -0.4325
   39POPC   C31 5212   0.991   3.517   6.559 -0.0010  0.0083 -0.3093
   39POPC   O32 5213   0.986   3.488   6.446 -0.2166 -0.0886 -0.4397
   39POPC   C32 5214   1.088   3.459   6.669  0.0155 -0.5976  0.2025
   39POPC   H2X 5215   1.035   3.401   6.747  0.1452 -0.0874  0.6754
   39POPC   H2Y 5216   1.154   3.397   6.604 -3.4969 -0.4403 -3.9984
   39POPC   C23 5217   0.985   4.125   6.815  0.6895  0.1373 -0.3889
   39POPC   H3R 5218   0.888   4.179   6.806  0.0517 -1.0694 -0.9527
   39POPC   H3S 5219   1.046   4.204   6.864  1.8178 -1.6555  1.2499
   39POPC   C24 5220   0.977   3.992   6.898  0.3038  0.0630 -0.3675
   39POPC   H4R 5221   1.075   3.941   6.909  1.1281  1.9499  1.9914
   39POPC   H4S 5222   0.907   3.921   6.848 -0.6580 -0.5665  1.7313
   39POPC   C25 5223   0.931   4.006   7.047  0.2871  0.0658  0.1287
   39POPC   H5R 5224   0.826   4.040   7.061 -0.1850 -0.6552 -1.4262
   39POPC   H5S 5225   0.987   4.093   7.087  0.0735 -0.3968  1.4755
   39POPC   C26 5226   0.963   3.879   7.126 -0.0325  0.1167 -0.6532
   39POPC   H6R 5227   1.053   3.821   7.096  0.9244  0.5460  1.2505
   39POPC   H6S 5228   0.879   3.809   7.107  0.1620 -0.7628  1.4104
   39POPC   C27 5229   0.958   3.897   7.278 -0.3977  0.3443  0.0626
   39POPC   H7R 5230   0.873   3.964   7.301  0.5217  0.8910  2.0537
   39POPC   H7S 5231   1.051   3.947   7.315 -0.2097  0.6839 -0.8388
   39POPC   C28 5232   0.940   3.766   7.364 -0.3885  1.0547  0.7226
   39POPC   H8R 5233   0.851   3.705   7.338  0.4530 -0.0812  0.4366
   39POPC   H8S 5234   0.920   3.797   7.469  2.3752  0.2463  1.5906
   39POPC   C29 5235   1.065   3.684   7.378  0.2889  0.0066 -0.3274
   39POPC   H91 5236   1.114   3.656   7.283 -1.2992 -1.9965 -0.6402
   39POPC  C210 5237   1.116   3.642   7.491 -0.0290  0.3329 -0.0059
   39POPC  H101 5238   1.201   3.573   7.475  0.6971  0.7722  1.7173
   39POPC  C211 5239   1.066   3.660   7.630 -0.5987 -0.5488 -0.2031
   39POPC  H11R 5240   1.105   3.586   7.703 -2.0671  0.5201  1.7566
   39POPC  H11S 5241   0.955   3.653   7.637 -0.6427  0.6694  5.7043
   39POPC  C212 5242   1.112   3.798   7.687  0.0220  0.3674  0.5739
   39POPC  H12R 5243   1.016   3.829   7.735 -1.3180 -1.0920 -1.0416
   39POPC  H12S 5244   1.130   3.865   7.600  2.0415  1.3092  1.6430
   39POPC  C213 5245   1.228   3.784   7.783 -0.1609 -0.0862 -0.1880
   39POPC  H13R 5246   1.300   3.869   7.790 -0.9390  0.4684  1.9094
   39POPC  H13S 5247   1.300   3.701   7.767 -0.8323 -0.8585  0.7001
   39POPC  C214 5248   1.173   3.752   7.923  0.3143 -0.1960  1.1166
   39POPC  H14R 5249   1.108   3.662   7.917 -2.7139  1.8572  0.6942
   39POPC  H14S 5250   1.103   3.828   7.964  2.2345  1.4518  1.5046
   39POPC  C215 5251   1.277   3.730   8.034 -0.0999 -0.0093  0.0214
   39POPC  H15R 5252   1.347   3.650   8.002  1.4521  0.8178  1.2144
   39POPC  H15S 5253   1.232   3.692   8.129 -0.2792  2.5406  1.0397
   39POPC  C216 5254   1.358   3.845   8.079  0.5271  0.2583 -0.4097
   39POPC  H16R 5255   1.411   3.892   7.993  0.3514  0.7998 -0.2270
   39POPC  H16S 5256   1.440   3.794   8.134 -1.1568 -2.4952 -0.2658
   39POPC  C217 5257   1.301   3.948   8.177 -0.1940 -0.3734  0.7334
   39POPC  H17R 5258   1.202   3.915   8.216 -0.4302  0.5044  0.8989
   39POPC  H17S 5259   1.300   4.049   8.131 -1.0105 -0.3577  0.7659
   39POPC  C218 5260   1.386   3.965   8.296 -0.4058  0.8921  0.0795
   39POPC  H18R 5261   1.405   3.869   8.347 -0.0191  1.2876  0.6891
   39POPC  H18S 5262   1.326   4.029   8.364 -3.2598 -2.1212  0.6361
   39POPC  H18T 5263   1.482   4.016   8.272  0.0001 -0.3537 -1.0988
   39POPC   C33 5264   1.183   3.568   6.744  0.4126  0.1320  0.3009
   39POPC   H3X 5265   1.131   3.665   6.757  1.0501  0.5548 -0.2122
   39POPC   H3Y 5266   1.273   3.580   6.680 -0.1709  1.6370 -0.2868
   39POPC   C34 5267   1.241   3.526   6.877 -0.1901  0.4707  0.6465
   39POPC   H4X 5268   1.279   3.423   6.869  1.1377  0.8183  1.9876
   39POPC   H4Y 5269   1.157   3.508   6.949  1.7861 -0.0221  2.9628
   39POPC   C35 5270   1.342   3.628   6.938 -0.3904  0.3745  1.0664
   39POPC   H5X 5271   1.289   3.725   6.946 -1.3276  0.2651 -2.4021
   39POPC   H5Y 5272   1.422   3.647   6.863  0.9732  0.1898  2.4129
   39POPC   C36 5273   1.401   3.578   7.073  0.3278  0.1189 -0.1952
   39POPC   H6X 5274   1.423   3.473   7.047  0.0741 -0.0386  0.2195
   39POPC   H6Y 5275   1.317   3.593   7.144 -0.3568  1.1805 -1.1895
   39POPC   C37 5276   1.525   3.649   7.124  0.7260 -0.2753 -0.2566
   39POPC   H7X 5277   1.502   3.754   7.151  4.0329  0.4839 -0.0677
   39POPC   H7Y 5278   1.607   3.640   7.050  3.1536 -2.1324  2.4421
   39POPC   C38 5279   1.580   3.586   7.252  0.1258  0.0905 -0.5235
   39POPC   H8X 5280   1.686   3.612   7.272 -0.6862  1.6339  2.3808
   39POPC   H8Y 5281   1.571   3.475   7.250 -1.7137  0.1961 -0.4631
   39POPC   C39 5282   1.495   3.624   7.374  0.1066  0.5422  0.6575
   39POPC   H9X 5283   1.384   3.629   7.368  0.1997  1.9497 -0.2702
   39POPC   H9Y 5284   1.526   3.728   7.400 -0.4204  1.2159 -1.2455
   39POPC  C310 5285   1.518   3.522   7.495  0.5916 -0.4513 -0.1438
   39POPC  H10X 5286   1.601   3.453   7.467  1.1420  0.2877 -0.3713
   39POPC  H10Y 5287   1.426   3.463   7.513 -0.2576  1.7276  3.7026
   39POPC  C311 5288   1.568   3.591   7.623 -0.3371 -0.8976 -0.5523
   39POPC  H11X 5289   1.504   3.679   7.646 -0.7393 -1.3630  0.1359
   39POPC  H11Y 5290   1.673   3.627   7.621 -0.9255  1.0838  1.1919
   39POPC  C312 5291   1.557   3.496   7.739  1.0429  0.4274 -0.5880
   39POPC  H12X 5292   1.604   3.406   7.695  1.3810 -1.0445  2.4796
   39POPC  H12Y 5293   1.449   3.486   7.762  0.6527  1.0334 -2.0446
   39POPC  C313 5294   1.630   3.550   7.863  0.4456  0.1474  0.1692
   39POPC  H13X 5295   1.574   3.637   7.902 -1.4856 -0.8642 -0.1716
   39POPC  H13Y 5296   1.733   3.583   7.839  0.8681 -2.5715 -2.3419
   39POPC  C314 5297   1.612   3.453   7.984 -0.1995 -0.2476  0.2554
   39POPC  H14X 5298   1.626   3.353   7.938 -3.1239 -0.0005 -1.4794
   39POPC  H14Y 5299   1.506   3.454   8.016 -0.4863  2.3386 -0.5062
   39POPC  C315 5300   1.712   3.481   8.102 -0.5056  0.0839 -0.1752
   39POPC  H15X 5301   1.710   3.590   8.125  1.2646 -0.1038  1.0323
   39POPC  H15Y 5302   1.816   3.460   8.070 -1.3313 -2.9119 -1.1600
   39POPC  C316 5303   1.678   3.407   8.233 -0.2516  0.0441  0.0308
   39POPC  H16X 5304   1.728   3.456   8.320  0.3982 -3.5808  1.9033
   39POPC  H16Y 5305   1.702   3.299   8.224  0.0783  0.0368  0.8535
   39POPC  H16Z 5306   1.570   3.424   8.252 -0.2346 -1.0022  1.1769
   40POPC     N 5307   0.280   0.042   5.984 -0.7758 -0.5284 -0.5212
   40POPC   C12 5308   0.411   0.008   6.059 -0.4514 -0.4004 -0.0461
   40POPC  H12A 5309   0.468   0.099   6.073  0.1982 -0.9988  1.4196
   40POPC  H12B 5310   0.470  -0.056   5.995  0.3779  1.1808 -0.9400
   40POPC   C13 5311   0.305   0.135   5.868 -0.8943  0.9638 -0.2163
   40POPC  H13A 5312   0.377   0.097   5.796  1.2286  3.5632  0.3938
   40POPC  H13B 5313   0.217   0.158   5.810  0.6265  0.1758 -3.0915
   40POPC  H13C 5314   0.352   0.227   5.899  1.0532 -0.1168  0.1888
   40POPC   C14 5315   0.213  -0.078   5.932 -0.3150  0.1797 -0.4353
   40POPC  H14A 5316   0.213  -0.160   6.003 -0.2048  2.0241  1.8063
   40POPC  H14B 5317   0.110  -0.064   5.902 -0.4422  0.3035  0.0390
   40POPC  H14C 5318   0.273  -0.119   5.853  0.7065  1.0754 -0.1434
   40POPC   C15 5319   0.183   0.111   6.075 -0.2423  0.1473  0.3581
   40POPC  H15A 5320   0.087   0.128   6.028  0.3592  0.7242 -0.7006
   40POPC  H15B 5321   0.220   0.204   6.113 -1.3355  0.3421  0.9820
   40POPC  H15C 5322   0.156   0.049   6.159  0.4352  0.3648  0.7434
   40POPC   C11 5323   0.404  -0.049   6.197  0.2319 -0.5541 -0.1788
   40POPC  H11A 5324   0.387   0.031   6.272 -0.5126 -0.1953 -0.7230
   40POPC  H11B 5325   0.499  -0.093   6.235 -0.7745 -2.3215  0.4443
   40POPC     P 5326   0.326  -0.295   6.202  0.3078  0.2509  0.2855
   40POPC   O13 5327   0.461  -0.337   6.238  0.2684 -0.0063  0.3028
   40POPC   O14 5328   0.275  -0.335   6.070 -0.0080  0.3175  0.2800
   40POPC   O12 5329   0.303  -0.147   6.217 -0.2195 -0.6674  0.0653
   40POPC   O11 5330   0.233  -0.338   6.317 -0.6072  0.4301 -0.0786
   40POPC    C1 5331   0.267  -0.311   6.451 -0.4750  0.0929 -0.2427
   40POPC    HA 5332   0.309  -0.209   6.461 -1.0860  0.2096  1.7244
   40POPC    HB 5333   0.343  -0.379   6.495 -1.3490 -1.1399 -0.5744
   40POPC    C2 5334   0.139  -0.335   6.542  0.1168 -0.3842  0.2286
   40POPC    HS 5335   0.097  -0.434   6.516  1.5071 -1.0390  0.3580
   40POPC   O21 5336   0.049  -0.225   6.525  0.6788  0.0805 -0.3217
   40POPC   C21 5337  -0.076  -0.267   6.536 -0.0285  0.2771 -0.0621
   40POPC   O22 5338  -0.113  -0.384   6.544  0.7522 -0.1768  0.2217
   40POPC   C22 5339  -0.172  -0.144   6.536  0.1919 -0.2186 -0.1212
   40POPC   H2R 5340  -0.273  -0.185   6.557  0.0430  1.4235  2.9575
   40POPC   H2S 5341  -0.163  -0.112   6.430  2.3541 -0.2254  0.0138
   40POPC    C3 5342   0.178  -0.336   6.692 -0.3056  0.3411 -0.2031
   40POPC    HX 5343   0.206  -0.232   6.717  3.7949 -0.7376  0.4209
   40POPC    HY 5344   0.279  -0.383   6.701  0.7419  2.8473  2.7015
   40POPC   O31 5345   0.074  -0.366   6.790 -0.5890 -0.0516  0.2090
   40POPC   C31 5346   0.056  -0.496   6.793  0.1682 -0.2458 -0.4468
   40POPC   O32 5347   0.110  -0.575   6.717 -0.1925 -0.1686 -0.7372
   40POPC   C32 5348  -0.049  -0.530   6.896  0.7536 -0.4965 -0.1566
   40POPC   H2X 5349  -0.094  -0.624   6.859  1.3390 -0.2249 -1.6225
   40POPC   H2Y 5350  -0.125  -0.449   6.889  1.4639  0.1758 -0.2352
   40POPC   C23 5351  -0.137  -0.038   6.639 -0.2707 -0.3369 -0.0494
   40POPC   H3R 5352  -0.197   0.054   6.624  2.9957  1.6317 -2.6826
   40POPC   H3S 5353  -0.035  -0.001   6.614 -1.0239  1.2119 -1.0295
   40POPC   C24 5354  -0.117  -0.091   6.783  0.3189  0.0390  0.7210
   40POPC   H4R 5355  -0.028  -0.157   6.787  0.2699 -0.1064 -0.3244
   40POPC   H4S 5356  -0.210  -0.148   6.806 -0.9284  1.5510 -0.3181
   40POPC   C25 5357  -0.098   0.029   6.882  0.2611  0.1467  0.2903
   40POPC   H5R 5358  -0.195   0.074   6.910  0.4166  0.2941  0.6025
   40POPC   H5S 5359  -0.039   0.106   6.828 -0.1197  0.3532  0.1640
   40POPC   C26 5360  -0.021  -0.022   7.007  0.7865 -0.4497  0.2210
   40POPC   H6R 5361  -0.045  -0.129   7.024 -0.1281 -0.6162 -1.8261
   40POPC   H6S 5362  -0.052   0.039   7.094 -1.9759 -0.4811 -0.6515
   40POPC   C27 5363   0.134  -0.008   6.984 -0.0192 -0.1067 -0.0695
   40POPC   H7R 5364   0.148   0.090   6.933  1.9500 -0.0368  0.5156
   40POPC   H7S 5365   0.169  -0.093   6.922  0.7417 -0.6105  1.0181
   40POPC   C28 5366   0.218  -0.014   7.113  0.0515  0.3363  0.3289
   40POPC   H8R 5367   0.180   0.067   7.178 -1.1642  0.4749 -0.5322
   40POPC   H8S 5368   0.322   0.024   7.099  0.1378 -0.4931 -1.6188
   40POPC   C29 5369   0.205  -0.144   7.193 -0.3609 -0.2433  0.0483
   40POPC   H91 5370   0.194  -0.231   7.126  1.9590 -0.1131 -0.6035
   40POPC  C210 5371   0.202  -0.149   7.325 -1.2370  0.7564 -0.4052
   40POPC  H101 5372   0.187  -0.248   7.372 -0.8052 -0.9057 -3.5100
   40POPC  C211 5373   0.216  -0.031   7.423  0.1029 -0.0652  0.6494
   40POPC  H11R 5374   0.113   0.000   7.448 -0.4271  0.3661 -1.7645
   40POPC  H11S 5375   0.253   0.060   7.371 -1.8579  0.0360 -0.6866
   40POPC  C212 5376   0.307  -0.057   7.545 -0.1976  0.2304  0.3686
   40POPC  H12R 5377   0.414  -0.054   7.513 -0.8514  0.3162 -1.9640
   40POPC  H12S 5378   0.280  -0.162   7.570  0.0069 -0.7463 -3.0225
   40POPC  C213 5379   0.295   0.040   7.664 -0.3225 -0.7341 -0.5621
   40POPC  H13R 5380   0.193   0.068   7.698  1.2423  0.6559  3.7785
   40POPC  H13S 5381   0.341   0.139   7.644  1.4756 -1.4381 -0.0896
   40POPC  C214 5382   0.344  -0.023   7.792 -0.3684  0.7708  1.1601
   40POPC  H14R 5383   0.441  -0.074   7.772 -1.0266  0.0604 -0.2901
   40POPC  H14S 5384   0.272  -0.105   7.812 -0.2710 -0.0271 -1.3982
   40POPC  C215 5385   0.351   0.070   7.911  0.1347 -0.3059 -0.4220
   40POPC  H15R 5386   0.247   0.105   7.934 -0.0562 -1.4501  0.5960
   40POPC  H15S 5387   0.401   0.169   7.905 -1.6636  0.6340 -0.7008
   40POPC  C216 5388   0.396  -0.008   8.042  0.6177  0.1190 -0.2728
   40POPC  H16R 5389   0.506  -0.022   8.030  0.6174  0.7041 -1.1450
   40POPC  H16S 5390   0.352  -0.109   8.039  0.0446  0.3613 -0.1422
   40POPC  C217 5391   0.359   0.047   8.179  0.0638  0.2401 -0.2930
   40POPC  H17R 5392   0.364   0.158   8.170 -4.7473  0.7020 -0.1201
   40POPC  H17S 5393   0.434   0.001   8.246  0.1033  1.8546  0.8395
   40POPC  C218 5394   0.218   0.022   8.227 -0.0057 -0.2059 -0.6559
   40POPC  H18R 5395   0.197  -0.087   8.228 -1.3268 -0.0218 -2.3863
   40POPC  H18S 5396   0.140   0.063   8.159 -0.9167 -0.5126  0.1880
   40POPC  H18T 5397   0.197   0.067   8.326  1.6916  0.2356 -0.4598
   40POPC   C33 5398   0.008  -0.548   7.036 -0.1086 -0.6218 -0.3579
   40POPC   H3X 5399   0.077  -0.465   7.064 -0.0175 -0.8772  0.1781
   40POPC   H3Y 5400   0.061  -0.645   7.051 -0.8359 -0.8548  0.8203
   40POPC   C34 5401  -0.100  -0.554   7.145  0.9896  0.5898  0.5601
   40POPC   H4X 5402  -0.162  -0.645   7.132  0.5361  0.7042  1.7560
   40POPC   H4Y 5403  -0.171  -0.471   7.123  0.3316 -0.5417 -1.9048
   40POPC   C35 5404  -0.049  -0.564   7.290  0.2879  0.2238  0.8404
   40POPC   H5X 5405   0.019  -0.477   7.302  1.6907 -0.0831 -3.2953
   40POPC   H5Y 5406   0.019  -0.652   7.287  0.3067  0.2395 -1.6530
   40POPC   C36 5407  -0.160  -0.588   7.388 -0.8721  0.4176 -0.7194
   40POPC   H6X 5408  -0.234  -0.665   7.359  0.1609  0.0363 -2.4646
   40POPC   H6Y 5409  -0.215  -0.493   7.405  0.3906  0.9260  0.7497
   40POPC   C37 5410  -0.114  -0.625   7.536 -0.0432 -0.3874 -0.6931
   40POPC   H7X 5411  -0.206  -0.620   7.598  0.0463 -1.4213 -0.4608
   40POPC   H7Y 5412  -0.049  -0.559   7.596  0.5933 -1.0663 -0.6179
   40POPC   C38 5413  -0.058  -0.775   7.544  0.1680 -0.0594 -0.0126
   40POPC   H8X 5414   0.036  -0.795   7.489  0.3350 -0.5806  0.4537
   40POPC   H8Y 5415  -0.126  -0.844   7.489  2.3685 -1.0967 -1.5440
   40POPC   C39 5416  -0.023  -0.824   7.688  0.2674 -0.4829  0.8233
   40POPC   H9X 5417   0.051  -0.757   7.737 -0.5777 -0.7293  2.5128
   40POPC   H9Y 5418   0.027  -0.923   7.690  2.0630  0.3703  0.5475
   40POPC  C310 5419  -0.154  -0.837   7.776 -0.0431 -0.7722  0.0118
   40POPC  H10X 5420  -0.215  -0.920   7.734 -1.1082  0.4139 -0.8375
   40POPC  H10Y 5421  -0.214  -0.745   7.763  1.3270 -0.1051 -2.1296
   40POPC  C311 5422  -0.112  -0.872   7.916  0.1741 -0.0876 -0.0394
   40POPC  H11X 5423  -0.029  -0.806   7.949 -0.3662  0.3578  0.4360
   40POPC  H11Y 5424  -0.070  -0.975   7.921  1.8317  0.5743  0.2723
   40POPC  C312 5425  -0.228  -0.854   8.018 -0.2488 -0.8437  0.2857
   40POPC  H12X 5426  -0.316  -0.910   7.980 -0.5919 -0.3684  0.3681
   40POPC  H12Y 5427  -0.260  -0.748   8.029  0.9940 -0.6311  2.5640
   40POPC  C313 5428  -0.192  -0.913   8.157 -0.9256 -0.5507  0.8078
   40POPC  H13X 5429  -0.098  -0.869   8.196 -1.0864  0.6883 -0.1297
   40POPC  H13Y 5430  -0.176  -1.022   8.168  0.5071 -0.6192 -1.3940
   40POPC  C314 5431  -0.303  -0.869   8.247  0.4062  0.6799 -0.1737
   40POPC  H14X 5432  -0.404  -0.889   8.204  0.1922 -0.0103  0.6029
   40POPC  H14Y 5433  -0.296  -0.758   8.255 -1.7050  0.8471 -0.0049
   40POPC  C315 5434  -0.294  -0.943   8.380  0.1249  0.1064 -0.1520
   40POPC  H15X 5435  -0.203  -0.918   8.439  0.7541 -0.2960 -0.9160
   40POPC  H15Y 5436  -0.289  -1.053   8.371  0.2875 -0.0070  1.1893
   40POPC  C316 5437  -0.420  -0.925   8.464 -0.3940  0.2529 -0.1096
   40POPC  H16X 5438  -0.506  -0.963   8.404 -0.0251  0.1374 -0.5749
   40POPC  H16Y 5439  -0.440  -0.816   8.473  2.3195  0.9511 -1.5051
   40POPC  H16Z 5440  -0.421  -0.977   8.562 -0.7005  0.9360  0.2579
   41CHL1    C3 5441   6.572   0.010  10.244 -0.5329  0.6483  0.6479
   41CHL1    H3 5442   6.477  -0.045  10.263 -0.6366  0.7011  0.2958
   41CHL1    O3 5443   6.644   0.008  10.368 -0.1652  0.0305  0.4583
   41CHL1   H3' 5444   6.700  -0.069  10.358 -1.6533 -0.9139 -1.1405
   41CHL1    C4 5445   6.663  -0.054  10.131  0.1211  0.3383  0.8759
   41CHL1   H4A 5446   6.751   0.012  10.138  0.8827 -0.4990 -0.3685
   41CHL1   H4B 5447   6.687  -0.159  10.159 -0.3520 -0.5621 -1.7263
   41CHL1    C5 5448   6.594  -0.051   9.996 -0.0130  0.2312 -0.3033
   41CHL1    C6 5449   6.571  -0.162   9.933  0.0568  0.3297  0.2556
   41CHL1    H6 5450   6.594  -0.259   9.981  2.6750  1.1925  0.8923
   41CHL1    C7 5451   6.496  -0.173   9.803  0.2571  0.5092 -0.0386
   41CHL1   H7A 5452   6.529  -0.259   9.740 -0.0674  0.1038  0.3311
   41CHL1   H7B 5453   6.386  -0.182   9.816  0.4078 -1.1117  0.3780
   41CHL1    C8 5454   6.507  -0.035   9.732 -0.0570 -0.1059  0.3974
   41CHL1    H8 5455   6.614  -0.015   9.709 -0.0165  0.0494  0.7082
   41CHL1   C14 5456   6.415  -0.040   9.610  0.4403  1.0105  0.7210
   41CHL1   H14 5457   6.310  -0.057   9.641  0.2522 -1.4134 -0.9385
   41CHL1   C15 5458   6.429  -0.155   9.509  0.3026  1.0329  0.6585
   41CHL1  H15A 5459   6.534  -0.177   9.480  0.1997 -1.1748  1.7175
   41CHL1  H15B 5460   6.389  -0.253   9.544  0.4585  1.0239  0.8139
   41CHL1   C16 5461   6.364  -0.107   9.376  0.3649 -0.4893 -0.2138
   41CHL1  H16A 5462   6.443  -0.113   9.298  0.1196 -1.3373 -0.4037
   41CHL1  H16B 5463   6.275  -0.166   9.345 -0.2148 -0.2151  0.8876
   41CHL1   C17 5464   6.329   0.048   9.402 -0.0820 -0.9802  0.2315
   41CHL1   H17 5465   6.225   0.051   9.442  0.0352 -1.1469  0.5543
   41CHL1   C13 5466   6.410   0.089   9.527  0.0969  0.2114  0.2230
   41CHL1   C18 5467   6.546   0.127   9.472  0.1791  0.0760  0.4274
   41CHL1  H18A 5468   6.548   0.232   9.435  0.6017 -0.4002 -0.9555
   41CHL1  H18B 5469   6.621   0.114   9.553 -0.7555 -1.6434  1.0615
   41CHL1  H18C 5470   6.585   0.061   9.392  1.7799  2.1950 -0.6238
   41CHL1   C12 5471   6.360   0.205   9.615 -0.7054  0.1249 -0.3469
   41CHL1  H12A 5472   6.370   0.309   9.578 -0.4161  0.7763  1.4939
   41CHL1  H12B 5473   6.252   0.188   9.631 -0.4586 -1.4620 -0.1846
   41CHL1   C11 5474   6.441   0.211   9.753  0.0694 -0.0472  0.9660
   41CHL1  H11A 5475   6.546   0.230   9.722 -0.0823 -2.1817 -1.0528
   41CHL1  H11B 5476   6.407   0.297   9.814  0.4844  1.6057 -1.0046
   41CHL1    C9 5477   6.456   0.078   9.822 -0.0215 -0.5212 -0.0207
   41CHL1    H9 5478   6.351   0.047   9.844  0.3143 -0.3481  2.0588
   41CHL1   C10 5479   6.543   0.090   9.950 -0.3195  0.4224  0.9432
   41CHL1   C19 5480   6.668   0.169   9.914 -0.5435  0.6239  0.3505
   41CHL1  H19A 5481   6.648   0.277   9.895  0.9249  1.3700  2.6334
   41CHL1  H19B 5482   6.750   0.168   9.989 -1.3331  0.5069  1.2186
   41CHL1  H19C 5483   6.714   0.133   9.819  2.1079  1.2442  1.3232
   41CHL1    C1 5484   6.460   0.158  10.066  0.5134 -0.2015  0.4300
   41CHL1   H1A 5485   6.438   0.265  10.044  0.1684 -0.0193  1.5601
   41CHL1   H1B 5486   6.364   0.104  10.072 -0.3940  1.2638 -0.4058
   41CHL1    C2 5487   6.532   0.152  10.200  0.6429  0.3532 -0.2554
   41CHL1   H2A 5488   6.481   0.213  10.277  1.5102  0.8530 -0.0650
   41CHL1   H2B 5489   6.628   0.206  10.184  0.6182  0.6532  0.5509
   41CHL1   C20 5490   6.327   0.130   9.273 -0.0288  0.0684 -0.5357
   41CHL1   H20 5491   6.429   0.123   9.229  1.2150 -0.6397  2.2123
   41CHL1   C21 5492   6.312   0.279   9.305  0.6747  0.1492 -0.2971
   41CHL1  H21A 5493   6.215   0.303   9.354 -0.0353 -0.5995 -1.2925
   41CHL1  H21B 5494   6.317   0.332   9.208  0.7492 -0.1015 -0.4303
   41CHL1  H21C 5495   6.392   0.324   9.367  1.0065  2.1714 -2.0792
   41CHL1   C22 5496   6.224   0.080   9.169 -0.7666 -1.3122  0.5134
   41CHL1  H22A 5497   6.254  -0.026   9.160 -0.5212 -1.2183  0.1878
   41CHL1  H22B 5498   6.122   0.099   9.207 -0.0749  2.3520  0.9495
   41CHL1   C23 5499   6.221   0.160   9.034  0.1577 -0.2410  0.0491
   41CHL1  H23A 5500   6.177   0.261   9.042  2.3839  0.8218 -0.3478
   41CHL1  H23B 5501   6.321   0.166   8.986 -0.2634 -1.3453 -1.0118
   41CHL1   C24 5502   6.127   0.110   8.912  0.1989  0.1798  0.2074
   41CHL1  H24A 5503   6.035   0.091   8.971  1.2954  1.9505  2.7058
   41CHL1  H24B 5504   6.097   0.191   8.842  2.6127 -0.8163 -2.1301
   41CHL1   C25 5505   6.168  -0.019   8.851  0.1850  0.3864 -0.3651
   41CHL1   H25 5506   6.179  -0.098   8.929 -2.7142 -1.8304 -2.0035
   41CHL1   C26 5507   6.063  -0.072   8.749  0.1718  0.1269  0.6453
   41CHL1  H26A 5508   6.043   0.006   8.672  0.5128  0.0221  0.4472
   41CHL1  H26B 5509   6.086  -0.173   8.710 -1.1578  0.4342 -1.0556
   41CHL1  H26C 5510   5.970  -0.088   8.806  0.5208 -3.8486  0.3618
   41CHL1   C27 5511   6.303   0.004   8.772  1.1573 -0.4103 -0.1608
   41CHL1  H27A 5512   6.392   0.020   8.835  0.1122  0.5128  1.1453
   41CHL1  H27B 5513   6.313  -0.074   8.693 -1.6749  0.2891 -1.3445
   41CHL1  H27C 5514   6.282   0.098   8.717 -0.5829 -0.6579  0.0204
   42CHL1    C3 5515   0.069   6.114   9.920  0.1991 -0.3159  0.5013
   42CHL1    H3 5516   0.074   6.216   9.962 -0.7460  1.1062 -2.6001
   42CHL1    O3 5517   0.053   6.014  10.020 -0.6342 -0.2177  0.3342
   42CHL1   H3' 5518   0.059   5.930   9.973 -0.1072 -0.1292  0.2453
   42CHL1    C4 5519  -0.057   6.114   9.834 -0.3210 -0.0952  0.2427
   42CHL1   H4A 5520  -0.057   6.010   9.796  1.3766  0.4716 -1.4964
   42CHL1   H4B 5521  -0.150   6.138   9.889 -1.1448  0.4845 -1.3416
   42CHL1    C5 5522  -0.040   6.202   9.719 -0.1737 -0.5184  0.6163
   42CHL1    C6 5523  -0.135   6.293   9.686 -0.5284  0.5975 -0.0253
   42CHL1    H6 5524  -0.215   6.301   9.761 -0.4796 -1.0216  0.2409
   42CHL1    C7 5525  -0.126   6.378   9.566  0.3171 -0.4220  0.1164
   42CHL1   H7A 5526  -0.225   6.390   9.517 -0.1768  0.0847  1.2035
   42CHL1   H7B 5527  -0.083   6.476   9.593  1.4523 -0.8705  0.0117
   42CHL1    C8 5528  -0.024   6.322   9.461  0.2104 -0.2427 -0.9898
   42CHL1    H8 5529  -0.065   6.227   9.419  0.3014 -1.3629  1.3032
   42CHL1   C14 5530  -0.016   6.417   9.342  0.3969 -0.3410  1.1156
   42CHL1   H14 5531   0.040   6.501   9.389  1.1300 -0.5732  0.6884
   42CHL1   C15 5532  -0.145   6.465   9.268  0.4550 -0.4239 -0.2191
   42CHL1  H15A 5533  -0.220   6.383   9.258 -1.4796  1.0495  1.3577
   42CHL1  H15B 5534  -0.184   6.555   9.320  0.5669  0.2054 -1.2034
   42CHL1   C16 5535  -0.092   6.512   9.128  0.0511 -0.1743  0.0838
   42CHL1  H16A 5536  -0.153   6.463   9.049 -0.5075 -3.1957  2.2161
   42CHL1  H16B 5537  -0.124   6.616   9.108  0.3877  0.2328  1.5636
   42CHL1   C17 5538   0.061   6.476   9.127 -1.0403  0.0203 -0.0573
   42CHL1   H17 5539   0.120   6.562   9.167  3.6686 -1.5687 -2.8105
   42CHL1   C13 5540   0.080   6.369   9.235 -0.4869  0.8033 -0.2462
   42CHL1   C18 5541   0.026   6.232   9.183 -0.1731 -0.0524 -0.1373
   42CHL1  H18A 5542   0.015   6.149   9.257  0.2937  1.9421  2.3122
   42CHL1  H18B 5543  -0.067   6.247   9.125 -0.8853  0.1558  1.0172
   42CHL1  H18C 5544   0.105   6.196   9.114 -2.4852 -1.5732 -2.1615
   42CHL1   C12 5545   0.218   6.354   9.300  0.3098  0.3554 -0.0937
   42CHL1  H12A 5546   0.283   6.302   9.227  2.5778  1.4523  1.0303
   42CHL1  H12B 5547   0.270   6.449   9.326  2.1079 -0.5344 -0.3019
   42CHL1   C11 5548   0.216   6.256   9.420  0.0458  0.1421  0.4879
   42CHL1  H11A 5549   0.203   6.152   9.382  1.3052  0.4691 -0.9446
   42CHL1  H11B 5550   0.310   6.253   9.479 -0.6611  1.5560  1.7458
   42CHL1    C9 5551   0.105   6.286   9.525 -1.3245  0.5598  0.1944
   42CHL1    H9 5552   0.137   6.373   9.586 -1.7470 -0.5619  2.1101
   42CHL1   C10 5553   0.090   6.181   9.639 -0.6689  0.2438  0.2189
   42CHL1   C19 5554   0.063   6.041   9.569 -0.3673  0.1270  0.2315
   42CHL1  H19A 5555  -0.036   6.039   9.519 -0.5263  1.6522  0.4291
   42CHL1  H19B 5556   0.148   6.011   9.504 -1.5664  0.2371 -1.4436
   42CHL1  H19C 5557   0.066   5.957   9.642 -1.0352 -1.2742 -1.2828
   42CHL1    C1 5558   0.220   6.174   9.735  0.2221  0.2185  0.6043
   42CHL1   H1A 5559   0.296   6.130   9.666 -0.9532  1.0890 -1.3406
   42CHL1   H1B 5560   0.249   6.278   9.763 -1.7746  0.3162  2.6250
   42CHL1    C2 5561   0.203   6.074   9.851  0.4683 -1.3923 -0.3762
   42CHL1   H2A 5562   0.286   6.071   9.926  1.4657 -0.0976 -1.3755
   42CHL1   H2B 5563   0.183   5.974   9.807 -1.9243 -1.0539 -0.1937
   42CHL1   C20 5564   0.140   6.449   9.000  0.5828 -0.1833  0.0588
   42CHL1   H20 5565   0.238   6.401   9.019  1.6367  0.5614 -2.9107
   42CHL1   C21 5566   0.183   6.581   8.933 -0.1723 -0.0984  0.3278
   42CHL1  H21A 5567   0.096   6.641   8.899  0.7336  0.2432 -1.5579
   42CHL1  H21B 5568   0.226   6.555   8.834 -2.4209 -0.8794 -0.5086
   42CHL1  H21C 5569   0.255   6.650   8.983  1.1059 -0.9719 -0.2375
   42CHL1   C22 5570   0.057   6.371   8.895  0.4074  0.2763  0.0847
   42CHL1  H22A 5571  -0.003   6.293   8.947  1.0075 -0.7551 -0.7432
   42CHL1  H22B 5572  -0.019   6.444   8.861 -0.7215  0.1053  2.0634
   42CHL1   C23 5573   0.141   6.320   8.779 -0.6415  0.0607 -0.1995
   42CHL1  H23A 5574   0.173   6.405   8.715 -0.6808 -0.8443 -1.4678
   42CHL1  H23B 5575   0.229   6.260   8.810  0.1238  1.3208  0.1202
   42CHL1   C24 5576   0.051   6.242   8.681  0.4308 -0.2624  0.4743
   42CHL1  H24A 5577   0.025   6.140   8.715  1.0094 -0.9819 -1.1412
   42CHL1  H24B 5578  -0.043   6.302   8.677  0.7550  0.2114 -0.4956
   42CHL1   C25 5579   0.096   6.241   8.529  0.4933 -0.5699 -1.2936
   42CHL1   H25 5580   0.118   6.343   8.490  1.5933 -0.7670 -1.2181
   42CHL1   C26 5581   0.233   6.165   8.520  0.1443  0.4163 -0.5886
   42CHL1  H26A 5582   0.308   6.220   8.580 -1.7672  1.2710  1.1396
   42CHL1  H26B 5583   0.218   6.060   8.552  0.2675  0.4446 -0.4401
   42CHL1  H26C 5584   0.275   6.154   8.417 -3.2170 -1.9094 -1.8823
   42CHL1   C27 5585  -0.013   6.190   8.439  0.0384 -0.2077  0.3929
   42CHL1  H27A 5586  -0.050   6.098   8.490  1.3616 -0.1452  1.5395
   42CHL1  H27B 5587  -0.095   6.265   8.439  1.1670  1.0510  0.6155
   42CHL1  H27C 5588   0.021   6.148   8.342  1.8460  3.0481 -0.5155
   43CHL1    C3 5589   0.157   4.398   9.999 -0.8732  0.1240 -0.1585
   43CHL1    H3 5590   0.053   4.375   9.966 -0.7806  0.5075 -0.7314
   43CHL1    O3 5591   0.192   4.314  10.106  0.1070 -0.0429  0.3383
   43CHL1   H3' 5592   0.220   4.376  10.173  0.7691 -0.5348  0.5215
   43CHL1    C4 5593   0.273   4.373   9.900  0.5248 -0.1764 -0.7922
   43CHL1   H4A 5594   0.366   4.399   9.954  0.3841 -0.2776 -0.4987
   43CHL1   H4B 5595   0.270   4.267   9.867 -3.5866 -0.9117  1.2517
   43CHL1    C5 5596   0.245   4.464   9.781  0.5601  0.0817  0.3834
   43CHL1    C6 5597   0.234   4.418   9.657  0.2063  0.9881  1.1214
   43CHL1    H6 5598   0.217   4.311   9.639 -1.6533  1.6348 -1.6602
   43CHL1    C7 5599   0.236   4.500   9.535  0.0447 -0.7505 -0.1310
   43CHL1   H7A 5600   0.293   4.454   9.451 -1.2387 -4.9699  1.0364
   43CHL1   H7B 5601   0.132   4.505   9.497  0.0066  0.2568  0.0888
   43CHL1    C8 5602   0.286   4.643   9.561 -0.8515  0.0948 -0.6365
   43CHL1    H8 5603   0.397   4.638   9.563 -0.8404  0.5083  0.0527
   43CHL1   C14 5604   0.251   4.729   9.441  0.0205 -0.0418 -0.6876
   43CHL1   H14 5605   0.141   4.719   9.434  0.1041 -2.6519  0.5000
   43CHL1   C15 5606   0.315   4.676   9.307 -0.5022 -0.5107  0.2474
   43CHL1  H15A 5607   0.421   4.651   9.329 -0.1762 -0.6930 -1.3758
   43CHL1  H15B 5608   0.278   4.580   9.265 -0.0012 -0.4009 -0.4609
   43CHL1   C16 5609   0.297   4.801   9.218  0.3499 -0.8075  0.4886
   43CHL1  H16A 5610   0.390   4.832   9.165  0.3094 -1.2341  0.1630
   43CHL1  H16B 5611   0.223   4.777   9.139 -0.0186 -1.9947  1.1792
   43CHL1   C17 5612   0.231   4.915   9.304 -0.0081  0.1487  0.5419
   43CHL1   H17 5613   0.120   4.913   9.298 -0.0308  0.9598  0.5676
   43CHL1   C13 5614   0.264   4.874   9.449 -0.3930 -0.5740 -0.0738
   43CHL1   C18 5615   0.415   4.905   9.477 -0.2907  0.0454  0.6421
   43CHL1  H18A 5616   0.419   5.015   9.492 -0.6302  0.8880 -3.9636
   43CHL1  H18B 5617   0.457   4.846   9.562  0.1653 -0.3836  0.1304
   43CHL1  H18C 5618   0.469   4.883   9.383 -0.2839 -0.2456  0.7117
   43CHL1   C12 5619   0.181   4.931   9.567 -0.1915 -0.1516  0.1810
   43CHL1  H12A 5620   0.204   5.039   9.585 -0.2782  0.0314 -0.7608
   43CHL1  H12B 5621   0.074   4.923   9.539 -0.3401  0.5443  0.5078
   43CHL1   C11 5622   0.215   4.854   9.699 -0.4123 -0.1696 -0.2816
   43CHL1  H11A 5623   0.323   4.873   9.716 -0.3269 -0.7722 -0.1354
   43CHL1  H11B 5624   0.157   4.891   9.786 -2.9728  0.2822 -2.0511
   43CHL1    C9 5625   0.211   4.697   9.685  0.1200 -0.1980  0.4957
   43CHL1    H9 5626   0.102   4.679   9.669  0.0972  0.2091  0.1801
   43CHL1   C10 5627   0.254   4.619   9.811  0.3681 -0.0660 -0.2032
   43CHL1   C19 5628   0.388   4.666   9.868 -0.9119  0.9303 -0.4542
   43CHL1  H19A 5629   0.426   4.598   9.947 -1.8470  1.4454  0.4498
   43CHL1  H19B 5630   0.474   4.654   9.798 -1.0898  1.2986 -0.7380
   43CHL1  H19C 5631   0.390   4.774   9.890 -1.5094  0.8629 -0.0473
   43CHL1    C1 5632   0.148   4.646   9.929 -0.1882 -0.8929  0.0870
   43CHL1   H1A 5633   0.157   4.745   9.978 -1.9845 -1.2957  1.3415
   43CHL1   H1B 5634   0.044   4.645   9.889 -0.7806  0.4084  1.4926
   43CHL1    C2 5635   0.168   4.546  10.047 -0.0075  0.2651 -0.2919
   43CHL1   H2A 5636   0.083   4.569  10.114 -0.1340 -0.5120 -0.1725
   43CHL1   H2B 5637   0.265   4.560  10.100  2.6493 -4.1667 -3.3298
   43CHL1   C20 5638   0.271   5.058   9.259  0.3080 -0.6304  0.2129
   43CHL1   H20 5639   0.380   5.075   9.275  0.4041  0.2332 -1.2473
   43CHL1   C21 5640   0.191   5.167   9.331  0.9354  0.2925  0.4122
   43CHL1  H21A 5641   0.223   5.163   9.438  0.5250  1.0387  0.5655
   43CHL1  H21B 5642   0.082   5.147   9.324  1.1689 -0.9463 -0.0476
   43CHL1  H21C 5643   0.208   5.270   9.295 -3.3719  1.0993  0.1405
   43CHL1   C22 5644   0.258   5.087   9.108  0.3390  0.5630  0.1155
   43CHL1  H22A 5645   0.306   5.187   9.094  1.5643  0.1108  0.9115
   43CHL1  H22B 5646   0.322   5.012   9.057 -2.1713 -3.3450  2.2216
   43CHL1   C23 5647   0.112   5.101   9.049  0.2090 -0.2006  0.1976
   43CHL1  H23A 5648   0.069   5.003   9.079  1.2661 -0.4610  0.9391
   43CHL1  H23B 5649   0.053   5.183   9.097  1.2719  0.6748  0.0732
   43CHL1   C24 5650   0.119   5.119   8.900  0.1982 -0.7026  0.2233
   43CHL1  H24A 5651   0.185   5.202   8.866 -1.2640  0.7627  0.8271
   43CHL1  H24B 5652   0.161   5.030   8.847  1.1754  1.0498 -2.1648
   43CHL1   C25 5653  -0.017   5.149   8.825 -0.4066 -0.0706  0.9435
   43CHL1   H25 5654  -0.098   5.096   8.879  0.5608 -1.7048  0.8504
   43CHL1   C26 5655  -0.047   5.303   8.814  0.1417  0.6237 -0.1033
   43CHL1  H26A 5656  -0.156   5.311   8.796 -0.3328 -1.9883  1.1239
   43CHL1  H26B 5657  -0.011   5.353   8.906  0.5669 -3.4769  2.1992
   43CHL1  H26C 5658   0.006   5.354   8.730 -0.2064  1.8923  0.4281
   43CHL1   C27 5659  -0.005   5.083   8.690  0.5849 -0.7679  0.4875
   43CHL1  H27A 5660  -0.010   4.973   8.701 -0.1947 -0.8161 -0.1692
   43CHL1  H27B 5661  -0.092   5.113   8.627 -0.5052  1.4246  2.8390
   43CHL1  H27C 5662   0.084   5.117   8.633 -1.1753 -0.6757 -2.4198
   44CHL1    C3 5663   1.269   0.733  10.135 -0.1311 -0.0004 -0.2775
   44CHL1    H3 5664   1.333   0.824  10.141 -0.5927  0.2984  0.2301
   44CHL1    O3 5665   1.295   0.660  10.251  0.7617  0.2894 -0.0697
   44CHL1   H3' 5666   1.233   0.588  10.238  1.8695 -0.8533  0.7349
   44CHL1    C4 5667   1.120   0.761  10.128 -0.6406  0.8221  0.0560
   44CHL1   H4A 5668   1.064   0.673  10.165 -1.2336  1.6761  1.3017
   44CHL1   H4B 5669   1.096   0.847  10.195  1.4558  2.5356 -1.2607
   44CHL1    C5 5670   1.081   0.799   9.989  0.7198 -0.4708 -0.0174
   44CHL1    C6 5671   0.999   0.908   9.967  0.2702  0.3080  0.9782
   44CHL1    H6 5672   0.966   0.976  10.047  1.1545  1.8798  0.0572
   44CHL1    C7 5673   0.939   0.946   9.832 -0.5672  0.7908 -0.7571
   44CHL1   H7A 5674   0.829   0.947   9.846 -0.4587  0.7014  0.1908
   44CHL1   H7B 5675   0.981   1.048   9.817  1.6656  0.0677  0.1151
   44CHL1    C8 5676   0.967   0.845   9.724 -0.0205 -0.7701 -0.0945
   44CHL1    H8 5677   0.889   0.766   9.734 -1.0223 -0.0062 -1.4439
   44CHL1   C14 5678   0.952   0.916   9.592 -0.2104  0.8442 -0.1344
   44CHL1   H14 5679   1.034   0.991   9.584 -1.5665  2.2170 -4.0993
   44CHL1   C15 5680   0.829   1.004   9.561  0.3832 -0.0190  0.4245
   44CHL1  H15A 5681   0.738   0.959   9.607 -0.4657  0.2850 -0.9090
   44CHL1  H15B 5682   0.832   1.109   9.596  0.6155  0.7733 -1.7918
   44CHL1   C16 5683   0.815   1.002   9.407  0.5647 -0.3257  0.3358
   44CHL1  H16A 5684   0.719   0.962   9.368  1.2071  0.7776 -2.6746
   44CHL1  H16B 5685   0.830   1.104   9.365  1.8171 -1.1466 -1.3242
   44CHL1   C17 5686   0.935   0.913   9.358  0.0543  0.3353 -0.2758
   44CHL1   H17 5687   1.020   0.983   9.346 -0.2093  0.5030 -1.2566
   44CHL1   C13 5688   0.970   0.815   9.472 -0.5577 -0.1414 -0.1060
   44CHL1   C18 5689   0.854   0.710   9.471 -0.9328  0.2715 -0.3964
   44CHL1  H18A 5690   0.873   0.644   9.384 -0.5157  1.7388 -1.4728
   44CHL1  H18B 5691   0.874   0.642   9.556  1.8793  1.0214 -0.3509
   44CHL1  H18C 5692   0.747   0.740   9.462 -0.8846  0.0710 -1.8699
   44CHL1   C12 5693   1.103   0.751   9.474 -0.0684  0.8655  0.6587
   44CHL1  H12A 5694   1.114   0.673   9.395 -0.7690  0.5082  0.9049
   44CHL1  H12B 5695   1.183   0.826   9.459  1.2811 -0.6522  0.0177
   44CHL1   C11 5696   1.134   0.687   9.608  0.1497 -0.8333  0.4705
   44CHL1  H11A 5697   1.075   0.593   9.609 -1.3564  0.0800  2.0679
   44CHL1  H11B 5698   1.238   0.648   9.615 -0.1947 -1.5574  1.8699
   44CHL1    C9 5699   1.108   0.780   9.734  0.1866  0.8469  0.4934
   44CHL1    H9 5700   1.182   0.862   9.718  0.2537  0.6680 -0.1460
   44CHL1   C10 5701   1.128   0.715   9.873 -0.9231  0.6832  0.1023
   44CHL1   C19 5702   1.043   0.574   9.867 -0.4976 -0.5689 -0.4265
   44CHL1  H19A 5703   1.065   0.512   9.957  0.4156 -1.5187 -1.2732
   44CHL1  H19B 5704   0.936   0.600   9.881 -0.4543 -0.1324 -0.8869
   44CHL1  H19C 5705   1.079   0.507   9.786 -1.4381 -1.5816 -0.0290
   44CHL1    C1 5706   1.282   0.693   9.886  0.4967 -0.0963  0.4860
   44CHL1   H1A 5707   1.332   0.624   9.814  2.8945  3.4155 -1.5450
   44CHL1   H1B 5708   1.348   0.782   9.885  2.6305 -1.5761  2.0074
   44CHL1    C2 5709   1.322   0.643  10.025 -0.1743 -0.1838 -0.1252
   44CHL1   H2A 5710   1.433   0.638  10.032 -0.2166  0.7229  4.7537
   44CHL1   H2B 5711   1.280   0.542  10.045 -0.1171  0.2352  2.4163
   44CHL1   C20 5712   0.914   0.868   9.215  0.2320 -0.1381 -0.3334
   44CHL1   H20 5713   0.830   0.796   9.213  0.7956 -0.8295  0.2039
   44CHL1   C21 5714   1.028   0.792   9.156 -0.2410  0.3209 -0.5537
   44CHL1  H21A 5715   1.126   0.841   9.170  0.2631 -0.7698 -0.1675
   44CHL1  H21B 5716   1.003   0.752   9.055 -2.0239 -1.9207  0.6952
   44CHL1  H21C 5717   1.023   0.695   9.210 -1.5574  1.4398  1.4711
   44CHL1   C22 5718   0.859   0.975   9.114  0.0669  0.3532  0.4445
   44CHL1  H22A 5719   0.768   1.018   9.161 -1.2654 -3.3708  1.6424
   44CHL1  H22B 5720   0.934   1.052   9.087  1.1300 -0.6621  0.4409
   44CHL1   C23 5721   0.804   0.909   8.984  0.0065  0.1813  0.3088
   44CHL1  H23A 5722   0.878   0.862   8.916 -0.8129 -1.3924  0.4715
   44CHL1  H23B 5723   0.735   0.827   9.014 -0.5343  0.0776 -1.1106
   44CHL1   C24 5724   0.716   1.011   8.905 -0.3644 -0.4172 -0.7322
   44CHL1  H24A 5725   0.653   1.077   8.967 -0.2138  0.3402 -1.3776
   44CHL1  H24B 5726   0.771   1.094   8.856 -3.1769  1.9920 -0.0398
   44CHL1   C25 5727   0.626   0.957   8.788 -0.1549 -0.0923 -0.1572
   44CHL1   H25 5728   0.583   0.858   8.813 -1.2819  0.7552  1.5054
   44CHL1   C26 5729   0.515   1.058   8.759  0.2445 -0.2931 -0.1835
   44CHL1  H26A 5730   0.466   1.077   8.856 -0.0056 -1.4240 -0.0699
   44CHL1  H26B 5731   0.558   1.151   8.717  3.4061 -0.3213  2.6030
   44CHL1  H26C 5732   0.437   1.022   8.688  0.0308  0.9071 -0.5715
   44CHL1   C27 5733   0.706   0.941   8.658  0.1956  0.1867  0.0176
   44CHL1  H27A 5734   0.652   0.918   8.564 -2.2211  3.0968  0.5159
   44CHL1  H27B 5735   0.761   1.036   8.640  2.6713 -1.4913 -2.0315
   44CHL1  H27C 5736   0.776   0.858   8.679  0.3413  0.1297 -0.6743
   45CHL1    C3 5737   3.973   6.204  10.208  0.0863 -0.3950 -0.9362
   45CHL1    H3 5738   4.077   6.180  10.241 -1.0247 -4.7595  0.0962
   45CHL1    O3 5739   3.897   6.229  10.333 -0.2425  0.8997 -0.2242
   45CHL1   H3' 5740   3.926   6.313  10.369  0.1816  0.1653  1.2238
   45CHL1    C4 5741   3.972   6.314  10.102 -0.5818 -1.1408  0.2567
   45CHL1   H4A 5742   3.868   6.317  10.064  0.1262  0.5939 -1.7751
   45CHL1   H4B 5743   4.011   6.403  10.156  1.3205 -0.9457 -1.3027
   45CHL1    C5 5744   4.070   6.287   9.991  0.2886 -0.6105 -0.3481
   45CHL1    C6 5745   4.172   6.367   9.958  0.7114  0.2509  0.0009
   45CHL1    H6 5746   4.183   6.453  10.025  1.5803 -0.1023  0.3244
   45CHL1    C7 5747   4.266   6.340   9.839  0.3518 -0.6475 -0.4917
   45CHL1   H7A 5748   4.266   6.441   9.792  2.2103  0.0898  0.9661
   45CHL1   H7B 5749   4.370   6.323   9.872  0.2186  0.4872  0.5521
   45CHL1    C8 5750   4.246   6.217   9.751 -0.2572 -0.1158 -0.2488
   45CHL1    H8 5751   4.342   6.171   9.720 -0.9303 -2.1548  0.4712
   45CHL1   C14 5752   4.172   6.244   9.621  0.3972 -0.4265  0.9394
   45CHL1   H14 5753   4.075   6.292   9.645  0.3169 -0.8962  1.6085
   45CHL1   C15 5754   4.247   6.342   9.523  0.6887 -0.5962 -0.2251
   45CHL1  H15A 5755   4.179   6.401   9.458  1.0361  0.2143  0.1409
   45CHL1  H15B 5756   4.310   6.411   9.581  0.9236 -0.8766 -0.1420
   45CHL1   C16 5757   4.324   6.246   9.431  0.0228  0.0812  0.3005
   45CHL1  H16A 5758   4.313   6.280   9.326  3.3843 -1.0481 -0.5547
   45CHL1  H16B 5759   4.435   6.256   9.435  0.0602 -0.2596  0.2176
   45CHL1   C17 5760   4.280   6.103   9.455  0.4908 -0.1431  0.1361
   45CHL1   H17 5761   4.346   6.060   9.533 -0.9249 -1.5789  0.5857
   45CHL1   C13 5762   4.149   6.125   9.528  0.3122  1.1011  0.0716
   45CHL1   C18 5763   4.034   6.159   9.421 -0.2436  0.5582 -0.2684
   45CHL1  H18A 5764   4.076   6.210   9.332 -0.3292  0.1824 -0.5273
   45CHL1  H18B 5765   3.990   6.064   9.384  0.4176  1.0596 -2.5255
   45CHL1  H18C 5766   3.965   6.228   9.474 -1.1139 -1.0437  0.7471
   45CHL1   C12 5767   4.105   6.006   9.606 -0.0363 -0.1147 -0.1927
   45CHL1  H12A 5768   3.994   6.004   9.611 -0.0361 -3.1381  0.4785
   45CHL1  H12B 5769   4.135   5.911   9.557  2.0127 -0.1160  0.9710
   45CHL1   C11 5770   4.166   5.984   9.744 -0.1461 -0.4019 -0.5954
   45CHL1  H11A 5771   4.121   5.901   9.803  0.7970 -0.0386  0.6940
   45CHL1  H11B 5772   4.271   5.948   9.734  0.5109  1.4314 -0.6800
   45CHL1    C9 5773   4.180   6.106   9.837 -0.5377 -0.1809  0.3935
   45CHL1    H9 5774   4.264   6.095   9.909  0.4121  2.1480 -0.2470
   45CHL1   C10 5775   4.060   6.157   9.923  0.0919  0.8783 -0.2326
   45CHL1   C19 5776   3.933   6.140   9.834  0.0104 -0.2529 -0.1316
   45CHL1  H19A 5777   3.909   6.035   9.807 -2.1115  0.7669 -2.6402
   45CHL1  H19B 5778   3.849   6.168   9.900  0.6411  0.6042  0.3240
   45CHL1  H19C 5779   3.930   6.198   9.739  1.9279  1.1806  0.6223
   45CHL1    C1 5780   4.042   6.046  10.033  1.0541 -0.3460 -0.1272
   45CHL1   H1A 5781   4.009   5.956   9.977  0.1886  0.1467 -0.4145
   45CHL1   H1B 5782   4.142   6.033  10.081  0.3682 -0.8213  1.2066
   45CHL1    C2 5783   3.937   6.073  10.146  0.0639  0.3806 -0.6256
   45CHL1   H2A 5784   3.951   5.997  10.226 -0.9874  0.1377 -0.6556
   45CHL1   H2B 5785   3.830   6.062  10.118 -0.9175  1.8553  2.1797
   45CHL1   C20 5786   4.276   5.998   9.335 -0.2577  0.1361  0.3337
   45CHL1   H20 5787   4.192   5.925   9.338  0.6296 -0.9286  0.2987
   45CHL1   C21 5788   4.412   5.925   9.352  0.1800 -0.4052  0.4639
   45CHL1  H21A 5789   4.501   5.992   9.347 -0.2028  0.0773  0.0770
   45CHL1  H21B 5790   4.431   5.845   9.278  1.7599 -0.9469  1.3797
   45CHL1  H21C 5791   4.413   5.877   9.453  0.2606  0.0925  0.7063
   45CHL1   C22 5792   4.280   6.062   9.195 -0.2221  0.2506 -0.0865
   45CHL1  H22A 5793   4.209   6.147   9.180 -0.5603 -0.0652 -0.2708
   45CHL1  H22B 5794   4.380   6.108   9.179  0.4717 -0.7195  1.2965
   45CHL1   C23 5795   4.261   5.973   9.070  0.2364  0.4319  0.2546
   45CHL1  H23A 5796   4.349   5.905   9.067  1.3603  1.8690 -1.3892
   45CHL1  H23B 5797   4.166   5.917   9.073 -0.6567  1.9451  1.4674
   45CHL1   C24 5798   4.261   6.052   8.935  0.5213 -0.1609  0.2013
   45CHL1  H24A 5799   4.159   6.096   8.940 -0.2881 -2.0248  1.1719
   45CHL1  H24B 5800   4.339   6.131   8.936 -0.9644  1.6989 -4.0780
   45CHL1   C25 5801   4.273   5.976   8.800  1.0852  0.2007 -0.2520
   45CHL1   H25 5802   4.211   5.884   8.810  1.3650  0.0586  0.2042
   45CHL1   C26 5803   4.216   6.067   8.686 -0.2573 -0.3345  0.1289
   45CHL1  H26A 5804   4.199   6.013   8.590 -3.0872  0.2091  0.2415
   45CHL1  H26B 5805   4.112   6.102   8.703 -1.3382 -2.8763 -0.7381
   45CHL1  H26C 5806   4.283   6.152   8.664  2.3064 -3.1526 -4.6141
   45CHL1   C27 5807   4.417   5.934   8.771 -0.0910 -0.1590  1.3158
   45CHL1  H27A 5808   4.426   5.887   8.671 -1.3516  1.8112  0.2101
   45CHL1  H27B 5809   4.465   6.034   8.763  1.6525 -1.0997 -2.8482
   45CHL1  H27C 5810   4.479   5.873   8.841  0.0437 -0.7090  0.7217
   46CHL1    C3 5811   5.423   2.123  10.132  0.3750  0.0336 -0.2064
   46CHL1    H3 5812   5.519   2.080  10.094  0.2930 -0.9773  0.6831
   46CHL1    O3 5813   5.435   2.148  10.269  0.3051 -0.1421 -0.5389
   46CHL1   H3' 5814   5.353   2.129  10.314  0.9259 -0.3619  0.5190
   46CHL1    C4 5815   5.391   2.258  10.062 -0.4812 -0.8050  0.1087
   46CHL1   H4A 5816   5.303   2.303  10.112  0.2758 -1.4452  2.1141
   46CHL1   H4B 5817   5.485   2.315  10.083  0.3040 -0.0479 -4.4336
   46CHL1    C5 5818   5.367   2.252   9.913 -0.9615 -0.5559 -0.6177
   46CHL1    C6 5819   5.448   2.317   9.830  0.3475 -0.5485 -0.7627
   46CHL1    H6 5820   5.529   2.380   9.869  0.4998 -0.0359 -1.8509
   46CHL1    C7 5821   5.426   2.323   9.684 -0.1603 -0.3342 -0.1587
   46CHL1   H7A 5822   5.426   2.426   9.643  0.3123 -1.0063 -1.9109
   46CHL1   H7B 5823   5.513   2.268   9.642  0.1113  1.4061 -2.0329
   46CHL1    C8 5824   5.292   2.267   9.643  0.4850  0.1749  0.0140
   46CHL1    H8 5825   5.220   2.348   9.667 -0.8355 -0.7012 -0.8397
   46CHL1   C14 5826   5.302   2.254   9.489  0.0229  0.4577  0.2226
   46CHL1   H14 5827   5.395   2.198   9.467  0.5506  0.9881  1.0264
   46CHL1   C15 5828   5.323   2.391   9.411  0.3212  0.2023  1.5645
   46CHL1  H15A 5829   5.271   2.471   9.467  0.2987  1.9372 -0.7778
   46CHL1  H15B 5830   5.433   2.409   9.412  0.3713 -0.0120  0.4661
   46CHL1   C16 5831   5.254   2.367   9.274 -0.0183  0.1068  0.7698
   46CHL1  H16A 5832   5.162   2.427   9.260 -1.2095 -1.7182  0.4338
   46CHL1  H16B 5833   5.326   2.388   9.192  1.3389  1.3613  2.2209
   46CHL1   C17 5834   5.215   2.222   9.276  0.4560  0.0221 -0.5225
   46CHL1   H17 5835   5.301   2.157   9.250 -0.8417 -1.1117 -2.2963
   46CHL1   C13 5836   5.178   2.193   9.423 -0.3359  0.8198 -0.6130
   46CHL1   C18 5837   5.050   2.267   9.466 -1.2092  0.1989 -0.0095
   46CHL1  H18A 5838   5.054   2.376   9.446  1.0631  0.1538 -0.0504
   46CHL1  H18B 5839   4.960   2.222   9.419 -1.5001 -0.3412  1.0343
   46CHL1  H18C 5840   5.024   2.259   9.574 -0.1281  1.2387  0.3476
   46CHL1   C12 5841   5.170   2.053   9.483  0.5540  0.0459 -0.4059
   46CHL1  H12A 5842   5.075   2.013   9.443  0.7390  1.3436 -2.2770
   46CHL1  H12B 5843   5.262   1.994   9.467  0.2207 -1.3489  2.3511
   46CHL1   C11 5844   5.152   2.048   9.639  0.1021  0.1908 -0.7704
   46CHL1  H11A 5845   5.053   2.092   9.666  1.4320  2.0244  1.5510
   46CHL1  H11B 5846   5.155   1.944   9.678 -0.6814  0.7632  0.9530
   46CHL1    C9 5847   5.267   2.133   9.718  0.3198 -0.5764  1.1699
   46CHL1    H9 5848   5.360   2.075   9.702 -0.6156 -1.9474  0.4163
   46CHL1   C10 5849   5.256   2.155   9.868  0.6284 -0.0937 -0.6162
   46CHL1   C19 5850   5.116   2.215   9.898 -0.0025  0.9302 -0.4976
   46CHL1  H19A 5851   5.037   2.147   9.860  0.6223  0.0649 -0.2638
   46CHL1  H19B 5852   5.099   2.232  10.006 -0.9187 -0.4677 -0.3969
   46CHL1  H19C 5853   5.115   2.308   9.837 -0.1685  0.7415 -0.7875
   46CHL1    C1 5854   5.284   2.017   9.941 -0.6628  0.2815  0.7331
   46CHL1   H1A 5855   5.189   1.960   9.929 -0.1121 -0.9730  2.0940
   46CHL1   H1B 5856   5.367   1.962   9.894 -0.5532  2.5233 -1.9529
   46CHL1    C2 5857   5.302   2.031  10.094 -0.4377  0.6631  0.7881
   46CHL1   H2A 5858   5.315   1.933  10.144  0.1208 -1.7956 -3.6738
   46CHL1   H2B 5859   5.216   2.083  10.142  0.3255  2.1362  0.6329
   46CHL1   C20 5860   5.118   2.173   9.175 -0.2602  0.2847  0.2955
   46CHL1   H20 5861   5.031   2.135   9.234 -0.4902 -0.9769 -0.8072
   46CHL1   C21 5862   5.162   2.039   9.117 -0.2893 -0.6738 -1.0900
   46CHL1  H21A 5863   5.081   1.980   9.069 -2.5269  0.7000  0.7441
   46CHL1  H21B 5864   5.201   1.971   9.195 -0.8689  0.1825 -0.0229
   46CHL1  H21C 5865   5.251   2.054   9.053  0.1525  0.1005 -0.3201
   46CHL1   C22 5866   5.053   2.267   9.077  0.3530 -0.0672  0.4310
   46CHL1  H22A 5867   4.962   2.214   9.043  1.0684 -1.4373  0.6074
   46CHL1  H22B 5868   5.024   2.366   9.119  0.1662  1.0287 -2.0820
   46CHL1   C23 5869   5.138   2.299   8.952 -0.8108 -0.2697  0.0677
   46CHL1  H23A 5870   5.234   2.337   8.993 -1.3258  1.6959 -0.4135
   46CHL1  H23B 5871   5.168   2.207   8.897 -0.5841  0.7496 -1.5872
   46CHL1   C24 5872   5.069   2.400   8.844 -0.3110  0.2908 -1.3168
   46CHL1  H24A 5873   5.029   2.483   8.907  2.4086  1.7395 -1.3493
   46CHL1  H24B 5874   5.158   2.439   8.791  1.4300 -1.1846  0.3725
   46CHL1   C25 5875   4.952   2.350   8.766  0.1628 -0.1493 -0.0511
   46CHL1   H25 5876   4.861   2.352   8.829  0.8551  1.6434  0.9574
   46CHL1   C26 5877   4.933   2.447   8.648  0.8728 -0.0632 -0.3251
   46CHL1  H26A 5878   4.934   2.548   8.694  1.8779  0.2942 -1.1024
   46CHL1  H26B 5879   5.019   2.432   8.579 -0.1874 -2.1468 -1.2986
   46CHL1  H26C 5880   4.837   2.423   8.597  1.1221 -0.8710 -0.4234
   46CHL1   C27 5881   4.972   2.207   8.713  0.2052  0.0662  0.5013
   46CHL1  H27A 5882   5.072   2.177   8.675  0.0776  0.2056  0.0514
   46CHL1  H27B 5883   4.956   2.141   8.801 -1.3783 -1.4145 -0.8382
   46CHL1  H27C 5884   4.885   2.179   8.650  0.4629 -1.7694  0.9154
   47CHL1    C3 5885   2.041   2.036   9.953  0.4173  0.2305  0.6276
   47CHL1    H3 5886   2.119   2.113   9.932  1.9303 -1.3417  0.2249
   47CHL1    O3 5887   2.058   2.004  10.088 -0.1473 -0.2752  0.4862
   47CHL1   H3' 5888   1.972   1.970  10.114 -0.5411  0.3574  0.0573
   47CHL1    C4 5889   1.911   2.108   9.935  0.2484  0.2003  0.0194
   47CHL1   H4A 5890   1.826   2.042   9.963  1.2977 -1.8108 -1.2524
   47CHL1   H4B 5891   1.921   2.198   9.999  1.7554  1.9839 -2.5373
   47CHL1    C5 5892   1.911   2.147   9.788 -0.1879 -0.0945 -0.8051
   47CHL1    C6 5893   1.896   2.275   9.753 -0.0248 -0.2690 -0.7565
   47CHL1    H6 5894   1.874   2.352   9.829 -1.9316 -0.9721 -0.5540
   47CHL1    C7 5895   1.894   2.336   9.618 -0.0768 -0.1976  0.0156
   47CHL1   H7A 5896   1.815   2.412   9.605  0.3929  0.2655 -0.1832
   47CHL1   H7B 5897   1.992   2.388   9.616 -0.0588 -0.2144  0.3828
   47CHL1    C8 5898   1.883   2.230   9.505 -0.4534 -0.0301  0.5418
   47CHL1    H8 5899   1.777   2.197   9.511  0.1519 -2.2684  0.0051
   47CHL1   C14 5900   1.906   2.287   9.368 -0.4772  0.1600 -0.2970
   47CHL1   H14 5901   2.015   2.308   9.358 -0.3458 -1.1377 -2.1376
   47CHL1   C15 5902   1.840   2.418   9.329 -0.4224  0.3444 -0.0264
   47CHL1  H15A 5903   1.737   2.423   9.372 -0.1339  1.0360  0.6058
   47CHL1  H15B 5904   1.895   2.509   9.362  0.7989  0.1450 -1.4380
   47CHL1   C16 5905   1.848   2.420   9.176 -0.2673 -0.0109  0.2021
   47CHL1  H16A 5906   1.740   2.424   9.149 -0.2744 -1.8294 -0.1603
   47CHL1  H16B 5907   1.912   2.496   9.126  0.3417 -0.4302  0.3310
   47CHL1   C17 5908   1.900   2.276   9.128 -0.1179 -0.2031 -0.6483
   47CHL1   H17 5909   2.010   2.290   9.125 -0.3403  2.6858  0.9104
   47CHL1   C13 5910   1.880   2.186   9.253  0.4395  0.6918  0.0041
   47CHL1   C18 5911   1.731   2.126   9.248 -0.6001  0.2999 -0.2255
   47CHL1  H18A 5912   1.713   2.086   9.350  0.2009  1.8054  0.5360
   47CHL1  H18B 5913   1.658   2.205   9.219  0.3142  0.8687 -1.0425
   47CHL1  H18C 5914   1.734   2.040   9.178  0.7152  0.3496 -0.2575
   47CHL1   C12 5915   1.982   2.069   9.270 -0.5611  0.3872  0.3865
   47CHL1  H12A 5916   1.978   1.989   9.193 -1.6760  1.6798 -0.9615
   47CHL1  H12B 5917   2.085   2.111   9.266 -0.6483  0.6014  0.3879
   47CHL1   C11 5918   1.966   1.998   9.413 -0.2298  0.1392  0.4067
   47CHL1  H11A 5919   1.867   1.948   9.422  0.7695 -2.2585 -0.9967
   47CHL1  H11B 5920   2.042   1.918   9.424  1.4772  1.4202 -1.3149
   47CHL1    C9 5921   1.974   2.106   9.533  0.1730 -0.7055  0.0357
   47CHL1    H9 5922   2.078   2.144   9.540 -0.3118  0.4516  1.4046
   47CHL1   C10 5923   1.942   2.045   9.675 -0.1714 -0.1195  1.4287
   47CHL1   C19 5924   1.813   1.959   9.667  0.5984  0.8484  0.6004
   47CHL1  H19A 5925   1.796   1.912   9.767  1.7908  0.0102  0.4339
   47CHL1  H19B 5926   1.719   2.012   9.641 -0.6273 -0.7062  1.6535
   47CHL1  H19C 5927   1.827   1.874   9.597  0.9419  1.5896 -0.2536
   47CHL1    C1 5928   2.062   1.950   9.717  1.0075 -0.3815  0.2046
   47CHL1   H1A 5929   2.054   1.856   9.659  0.7499 -0.6417  0.6499
   47CHL1   H1B 5930   2.159   2.004   9.704  0.2887  1.3650  1.5822
   47CHL1    C2 5931   2.057   1.913   9.870  1.0760  0.3481 -0.6270
   47CHL1   H2A 5932   2.154   1.862   9.892  0.9509  1.0779  1.9715
   47CHL1   H2B 5933   1.976   1.840   9.890  1.4369  0.2104  0.3864
   47CHL1   C20 5934   1.844   2.230   8.988 -0.3915 -0.2486 -0.1938
   47CHL1   H20 5935   1.734   2.217   8.993 -0.5545  0.4225 -1.5318
   47CHL1   C21 5936   1.914   2.095   8.960 -0.4835 -0.6436 -0.4209
   47CHL1  H21A 5937   1.912   2.081   8.850 -0.8192  2.7714 -0.9618
   47CHL1  H21B 5938   1.857   2.011   9.005  1.5542 -1.0238  1.6664
   47CHL1  H21C 5939   2.022   2.087   8.985 -0.5081 -1.2695 -0.4933
   47CHL1   C22 5940   1.877   2.328   8.870  0.0302 -0.1501  0.5396
   47CHL1  H22A 5941   1.843   2.429   8.899 -1.6139 -0.2153 -1.0329
   47CHL1  H22B 5942   1.987   2.322   8.852  0.0741 -0.2049  0.8112
   47CHL1   C23 5943   1.809   2.301   8.738  0.2579  0.7285  0.1656
   47CHL1  H23A 5944   1.855   2.208   8.697  1.6771  1.4582  0.0560
   47CHL1  H23B 5945   1.706   2.268   8.764  1.4392 -1.7562  2.1547
   47CHL1   C24 5946   1.812   2.415   8.638  0.0311 -0.3026 -0.7937
   47CHL1  H24A 5947   1.734   2.491   8.659  1.1374  0.2635  1.7104
   47CHL1  H24B 5948   1.907   2.472   8.643  0.2202 -0.6948  0.7133
   47CHL1   C25 5949   1.777   2.386   8.496  0.9327 -0.2915 -0.3468
   47CHL1   H25 5950   1.863   2.333   8.448  0.9493 -1.0213  0.4626
   47CHL1   C26 5951   1.648   2.299   8.473 -0.5321 -0.8936 -0.3550
   47CHL1  H26A 5952   1.626   2.291   8.364 -1.0450  0.6669 -0.3882
   47CHL1  H26B 5953   1.559   2.355   8.509  0.7340 -0.5610  2.4878
   47CHL1  H26C 5954   1.657   2.203   8.528 -0.7635 -0.7477 -0.0566
   47CHL1   C27 5955   1.769   2.518   8.420 -0.2246 -0.4386 -0.3497
   47CHL1  H27A 5956   1.864   2.573   8.432  2.0769 -4.3528  1.5113
   47CHL1  H27B 5957   1.737   2.512   8.314 -1.6573  0.9982 -0.0412
   47CHL1  H27C 5958   1.694   2.585   8.466  0.3448  0.6921 -1.0369
   48CHL1    C3 5959   1.388   1.195  10.175 -0.0187  0.0736 -0.4348
   48CHL1    H3 5960   1.437   1.096  10.187  1.4223  0.6352 -1.3462
   48CHL1    O3 5961   1.360   1.264  10.296 -0.5007 -0.1374  0.1270
   48CHL1   H3' 5962   1.398   1.348  10.271  1.6955 -1.1254 -0.1018
   48CHL1    C4 5963   1.502   1.265  10.099 -0.3832  0.1190  0.1001
   48CHL1   H4A 5964   1.489   1.376  10.095  0.4269  0.2224  0.2682
   48CHL1   H4B 5965   1.595   1.248  10.156  0.3768 -1.5949 -1.5681
   48CHL1    C5 5966   1.521   1.210   9.958  0.3479  0.4128  0.4069
   48CHL1    C6 5967   1.641   1.164   9.914  0.8532 -0.0649 -0.4946
   48CHL1    H6 5968   1.728   1.172   9.982 -0.3739 -1.6013  1.3567
   48CHL1    C7 5969   1.674   1.119   9.774 -0.3825  0.3474 -0.0398
   48CHL1   H7A 5970   1.772   1.162   9.742  0.1664 -0.5261  0.4335
   48CHL1   H7B 5971   1.683   1.009   9.763  1.1121  0.6908 -3.4098
   48CHL1    C8 5972   1.561   1.160   9.676 -0.2914  0.1052  0.0080
   48CHL1    H8 5973   1.561   1.269   9.658  0.9843  0.2793  0.8953
   48CHL1   C14 5974   1.575   1.087   9.544 -0.2996  0.1058  0.1495
   48CHL1   H14 5975   1.559   0.979   9.565 -0.3080 -0.4199 -2.1792
   48CHL1   C15 5976   1.714   1.079   9.476  0.8219  0.6384  0.2777
   48CHL1  H15A 5977   1.794   1.152   9.497  0.8303  0.3220  1.4656
   48CHL1  H15B 5978   1.757   0.982   9.509  1.1546  1.0081  0.9642
   48CHL1   C16 5979   1.679   1.056   9.325 -0.0018 -0.5357 -0.2880
   48CHL1  H16A 5980   1.711   1.152   9.280 -1.9001 -0.4376 -1.5752
   48CHL1  H16B 5981   1.750   0.983   9.281  1.8947  0.9233  0.2497
   48CHL1   C17 5982   1.525   1.032   9.314  0.8388 -0.6414 -0.4731
   48CHL1   H17 5983   1.497   0.930   9.350 -0.3636  0.1211  0.8685
   48CHL1   C13 5984   1.470   1.121   9.432 -0.4780  0.2261 -0.2294
   48CHL1   C18 5985   1.472   1.270   9.402  0.3575 -0.5568 -1.0902
   48CHL1  H18A 5986   1.572   1.302   9.365  1.1386  1.6601  2.5188
   48CHL1  H18B 5987   1.397   1.292   9.323  0.2849  0.1544 -0.8232
   48CHL1  H18C 5988   1.461   1.327   9.496  3.0647 -2.1513  0.3241
   48CHL1   C12 5989   1.334   1.080   9.485 -0.8318 -0.3173  0.4378
   48CHL1  H12A 5990   1.259   1.122   9.415  2.5430 -0.6474 -3.7522
   48CHL1  H12B 5991   1.327   0.970   9.494  0.1670 -0.3647  0.7635
   48CHL1   C11 5992   1.304   1.143   9.619 -0.1006  0.1802  0.2914
   48CHL1  H11A 5993   1.287   1.252   9.605  0.1547  0.0484 -1.2105
   48CHL1  H11B 5994   1.208   1.108   9.661 -0.0514 -2.4592 -1.5259
   48CHL1    C9 5995   1.420   1.125   9.730  0.2150 -0.0136  0.1282
   48CHL1    H9 5996   1.425   1.018   9.758 -2.2344 -0.5118 -1.0522
   48CHL1   C10 5997   1.393   1.192   9.868  0.4122 -0.7540 -0.2432
   48CHL1   C19 5998   1.351   1.342   9.850 -0.3657 -0.1592  0.0016
   48CHL1  H19A 5999   1.399   1.392   9.763  0.9590 -1.3059  0.0393
   48CHL1  H19B 6000   1.243   1.338   9.827 -0.4896 -0.3061  0.5869
   48CHL1  H19C 6001   1.366   1.400   9.944  2.1337 -1.0554  0.2311
   48CHL1    C1 6002   1.273   1.129   9.951  0.0524 -0.6518 -0.5788
   48CHL1   H1A 6003   1.185   1.153   9.886  1.2989  1.7107 -1.5393
   48CHL1   H1B 6004   1.298   1.021   9.957 -1.9678 -1.1218  0.1408
   48CHL1    C2 6005   1.258   1.185  10.101 -0.2429  0.3528 -0.1270
   48CHL1   H2A 6006   1.195   1.106  10.146 -0.1955  0.6388  0.4477
   48CHL1   H2B 6007   1.205   1.283  10.106 -2.6881 -0.9352  4.7427
   48CHL1   C20 6008   1.466   1.059   9.176  0.5189  0.1230  0.2174
   48CHL1   H20 6009   1.484   1.165   9.150 -0.5513  0.6147  1.3711
   48CHL1   C21 6010   1.316   1.043   9.167  0.4172 -0.2850  0.0761
   48CHL1  H21A 6011   1.290   0.948   9.218  1.2096 -2.0234 -2.5636
   48CHL1  H21B 6012   1.281   1.035   9.062 -1.9588 -0.5334  0.8290
   48CHL1  H21C 6013   1.257   1.128   9.207  1.5138  0.0240  1.1031
   48CHL1   C22 6014   1.538   0.981   9.059  0.8699  0.0348 -0.2525
   48CHL1  H22A 6015   1.648   1.000   9.055  1.0262 -0.9261 -1.0172
   48CHL1  H22B 6016   1.526   0.871   9.069  2.6562 -0.2441 -0.8446
   48CHL1   C23 6017   1.494   1.004   8.909 -0.0771 -0.6839 -0.6875
   48CHL1  H23A 6018   1.410   0.939   8.875 -0.4798 -1.2019  1.1688
   48CHL1  H23B 6019   1.455   1.108   8.911 -3.8064 -1.9041  1.5533
   48CHL1   C24 6020   1.609   0.980   8.808 -0.2569 -0.2965 -0.1505
   48CHL1  H24A 6021   1.692   1.044   8.843 -1.3175 -0.0490  2.1007
   48CHL1  H24B 6022   1.643   0.875   8.794  0.7422  0.1461 -1.1307
   48CHL1   C25 6023   1.573   1.008   8.661 -0.5129  0.5345 -1.1096
   48CHL1   H25 6024   1.532   1.111   8.651 -0.0525  0.6816 -1.5195
   48CHL1   C26 6025   1.700   1.011   8.569  0.4962 -0.1078  0.0298
   48CHL1  H26A 6026   1.670   1.031   8.464  0.2861  0.3199  0.1676
   48CHL1  H26B 6027   1.770   1.090   8.603 -1.7420  1.6790  0.7197
   48CHL1  H26C 6028   1.761   0.920   8.585  1.3346  0.4508  0.0748
   48CHL1   C27 6029   1.465   0.913   8.613 -0.9872 -0.0039 -0.5772
   48CHL1  H27A 6030   1.442   0.940   8.507  2.8747 -2.9084 -2.3840
   48CHL1  H27B 6031   1.489   0.806   8.626  0.3075  0.4873  1.4454
   48CHL1  H27C 6032   1.373   0.944   8.667 -0.3525  2.0785 -0.5876
   49CHL1    C3 6033   5.191   1.217   9.970  0.4172  0.2549 -0.3199
   49CHL1    H3 6034   5.239   1.317   9.961 -1.7878  1.3461 -0.6663
   49CHL1    O3 6035   5.145   1.191  10.102 -0.3998  0.2976  0.3661
   49CHL1   H3' 6036   5.068   1.133  10.097  0.7607 -1.4618  1.6378
   49CHL1    C4 6037   5.069   1.225   9.893 -0.0467 -0.1961  0.2103
   49CHL1   H4A 6038   5.004   1.135   9.901  0.5332 -0.7191 -0.7730
   49CHL1   H4B 6039   5.014   1.317   9.920 -0.2696 -0.1310 -0.4348
   49CHL1    C5 6040   5.090   1.228   9.738  0.0223 -0.0035 -0.0695
   49CHL1    C6 6041   5.034   1.323   9.660  0.8346 -0.5404 -0.2023
   49CHL1    H6 6042   4.977   1.400   9.714 -0.3063 -2.7285  1.9267
   49CHL1    C7 6043   5.057   1.332   9.509  0.2012  0.1952 -1.2958
   49CHL1   H7A 6044   4.969   1.347   9.443  0.5357  1.2304 -1.5238
   49CHL1   H7B 6045   5.129   1.410   9.478 -1.7802  2.5928 -0.1566
   49CHL1    C8 6046   5.118   1.192   9.460  0.3023 -0.4647  0.1326
   49CHL1    H8 6047   5.039   1.116   9.444  1.2023 -1.1686 -1.0476
   49CHL1   C14 6048   5.173   1.231   9.320  0.6851  0.3654  0.5527
   49CHL1   H14 6049   5.252   1.309   9.330 -0.4652  1.8793 -1.3442
   49CHL1   C15 6050   5.075   1.304   9.212 -0.2071  0.0866  0.9820
   49CHL1  H15A 6051   4.977   1.255   9.228 -1.8359  2.8405  0.2284
   49CHL1  H15B 6052   5.063   1.414   9.219 -2.0747 -0.0579  0.6868
   49CHL1   C16 6053   5.132   1.267   9.074 -0.3259 -0.0994  0.1018
   49CHL1  H16A 6054   5.060   1.203   9.019 -1.2870  0.6766  0.4250
   49CHL1  H16B 6055   5.156   1.364   9.025 -1.2170  1.8627  3.2861
   49CHL1   C17 6056   5.268   1.196   9.116  0.1485  0.1957 -0.1563
   49CHL1   H17 6057   5.339   1.274   9.151  0.9026  0.2309 -1.6783
   49CHL1   C13 6058   5.241   1.114   9.242 -0.8090 -0.6855 -0.3013
   49CHL1   C18 6059   5.142   1.007   9.220  0.2332  0.7042 -0.2495
   49CHL1  H18A 6060   5.062   1.041   9.151 -1.1656 -3.0369 -0.6576
   49CHL1  H18B 6061   5.200   0.928   9.168  1.9411  2.3834 -1.0411
   49CHL1  H18C 6062   5.106   0.962   9.315  1.8182  1.4959  0.7780
   49CHL1   C12 6063   5.361   1.062   9.336  0.4909  0.0167  0.0491
   49CHL1  H12A 6064   5.399   0.971   9.286  1.3410 -0.2252  1.1034
   49CHL1  H12B 6065   5.435   1.145   9.339 -0.4633  0.8670  1.0146
   49CHL1   C11 6066   5.316   1.030   9.474  0.0711 -1.0171  0.2560
   49CHL1  H11A 6067   5.243   0.947   9.483 -2.2547  1.1075  2.8533
   49CHL1  H11B 6068   5.400   1.005   9.542  0.8163 -0.7092 -0.5320
   49CHL1    C9 6069   5.235   1.145   9.544  0.6420 -0.4621 -0.9590
   49CHL1    H9 6070   5.296   1.238   9.552 -1.1271  0.9088 -2.2514
   49CHL1   C10 6071   5.180   1.118   9.691 -0.6369 -0.4990 -0.1120
   49CHL1   C19 6072   5.111   0.979   9.696 -0.5990  0.8815 -1.3823
   49CHL1  H19A 6073   5.029   0.968   9.622 -1.1398  1.4460 -0.8736
   49CHL1  H19B 6074   5.190   0.903   9.677  0.7467  1.5357  1.1116
   49CHL1  H19C 6075   5.070   0.970   9.799  2.5264 -0.5905 -0.1305
   49CHL1    C1 6076   5.309   1.125   9.782 -0.2966 -1.0429 -0.5170
   49CHL1   H1A 6077   5.379   1.042   9.757  0.0053 -0.9017 -0.1388
   49CHL1   H1B 6078   5.359   1.221   9.759 -0.5194 -0.9530 -0.6247
   49CHL1    C2 6079   5.286   1.102   9.929  0.0253 -0.3945 -0.1869
   49CHL1   H2A 6080   5.384   1.124   9.977  0.4841 -0.2938 -1.1434
   49CHL1   H2B 6081   5.250   1.000   9.955 -2.5931  0.7842  1.2799
   49CHL1   C20 6082   5.347   1.126   8.994  0.3749 -0.4462 -0.6100
   49CHL1   H20 6083   5.318   1.021   9.017 -2.2451  0.8204  2.5779
   49CHL1   C21 6084   5.500   1.141   9.012  0.2494 -0.9901  0.1769
   49CHL1  H21A 6085   5.535   1.229   8.954 -0.9395 -1.1991 -0.8954
   49CHL1  H21B 6086   5.553   1.060   8.958 -0.0128 -0.6548 -0.5926
   49CHL1  H21C 6087   5.536   1.150   9.117  2.4250  1.0950 -0.6473
   49CHL1   C22 6088   5.293   1.170   8.848 -0.1190  0.1770 -0.0179
   49CHL1  H22A 6089   5.182   1.169   8.844 -0.1658  2.5217 -1.0397
   49CHL1  H22B 6090   5.323   1.276   8.835 -1.8146  0.8643  1.3646
   49CHL1   C23 6091   5.363   1.088   8.735 -0.2631 -0.5333 -0.5015
   49CHL1  H23A 6092   5.472   1.096   8.755 -0.8021 -0.2315  2.9946
   49CHL1  H23B 6093   5.347   0.979   8.728 -0.1947 -0.4932 -1.4455
   49CHL1   C24 6094   5.328   1.160   8.608  0.9955  0.2491 -0.7550
   49CHL1  H24A 6095   5.343   1.269   8.620  0.4761  0.1964  0.4827
   49CHL1  H24B 6096   5.394   1.133   8.523 -0.6601  0.8751 -2.3006
   49CHL1   C25 6097   5.187   1.141   8.551 -0.5966 -0.0407  0.0410
   49CHL1   H25 6098   5.112   1.183   8.621  1.5474  4.0001  0.2434
   49CHL1   C26 6099   5.183   1.229   8.432  0.4197  0.6244  0.1153
   49CHL1  H26A 6100   5.206   1.337   8.450 -0.5196  0.5863  1.7833
   49CHL1  H26B 6101   5.255   1.190   8.357  0.8911 -0.9193  1.3187
   49CHL1  H26C 6102   5.083   1.218   8.384  0.8935 -1.0266 -0.5500
   49CHL1   C27 6103   5.171   0.996   8.518  0.2912 -0.3717 -0.1499
   49CHL1  H27A 6104   5.073   0.978   8.469  0.2864  0.0793 -0.3121
   49CHL1  H27B 6105   5.247   0.975   8.441  1.0258  1.8389 -0.1080
   49CHL1  H27C 6106   5.176   0.933   8.609 -1.7142  0.3423  0.5133
   50CHL1    C3 6107   3.580   4.329  10.031  0.1444  0.3712  0.1983
   50CHL1    H3 6108   3.599   4.220  10.047 -1.8050 -0.3126 -1.6613
   50CHL1    O3 6109   3.546   4.383  10.155 -0.3276  0.0172  0.3300
   50CHL1   H3' 6110   3.551   4.479  10.153  0.1783  0.0228  1.3591
   50CHL1    C4 6111   3.703   4.392   9.978 -0.3206 -0.2830  0.7877
   50CHL1   H4A 6112   3.681   4.501   9.976  1.2817  0.1452  2.8875
   50CHL1   H4B 6113   3.788   4.375  10.048  0.2853 -1.3581 -0.1711
   50CHL1    C5 6114   3.743   4.353   9.840 -0.0162  0.6749 -0.4119
   50CHL1    C6 6115   3.870   4.300   9.818 -0.6624 -0.1152 -0.3476
   50CHL1    H6 6116   3.943   4.308   9.900 -0.4875  2.1144 -0.6653
   50CHL1    C7 6117   3.921   4.253   9.686  0.6100 -0.1814  1.0445
   50CHL1   H7A 6118   4.018   4.303   9.670  1.0018 -1.9596 -3.7924
   50CHL1   H7B 6119   3.928   4.142   9.687 -3.0191 -0.5511  0.3422
   50CHL1    C8 6120   3.819   4.288   9.567 -0.3626 -0.6959  0.1743
   50CHL1    H8 6121   3.839   4.393   9.536  0.9086 -0.2965  2.2102
   50CHL1   C14 6122   3.855   4.202   9.443 -0.0201  0.1893  0.5976
   50CHL1   H14 6123   3.820   4.100   9.471 -2.7138  0.6323 -0.8177
   50CHL1   C15 6124   3.996   4.206   9.391 -0.2729  0.4189  0.0815
   50CHL1  H15A 6125   4.040   4.308   9.390 -0.8591  0.6853 -1.2408
   50CHL1  H15B 6126   4.055   4.135   9.452  1.1172  1.2126 -0.3178
   50CHL1   C16 6127   3.982   4.150   9.249 -0.4091 -0.3381  0.4427
   50CHL1  H16A 6128   4.007   4.224   9.171 -2.5437 -0.5116 -0.4810
   50CHL1  H16B 6129   4.051   4.064   9.233  1.2917  1.2714 -1.4636
   50CHL1   C17 6130   3.833   4.124   9.234  0.4069  0.0480 -0.1517
   50CHL1   H17 6131   3.826   4.020   9.273  1.2663  0.7022  1.9029
   50CHL1   C13 6132   3.762   4.227   9.328 -0.4685  0.0145  0.2731
   50CHL1   C18 6133   3.776   4.368   9.267 -0.7017 -0.2920  0.2649
   50CHL1  H18A 6134   3.768   4.453   9.338 -0.7686  1.2335 -1.4941
   50CHL1  H18B 6135   3.875   4.376   9.219  0.1010 -3.9084  1.0015
   50CHL1  H18C 6136   3.692   4.379   9.196  1.0569 -0.9006 -2.0226
   50CHL1   C12 6137   3.614   4.204   9.366 -0.8949  0.5046 -0.6072
   50CHL1  H12A 6138   3.551   4.237   9.281  0.5621  3.9332 -0.5071
   50CHL1  H12B 6139   3.598   4.098   9.395  0.1762  1.1950  3.1265
   50CHL1   C11 6140   3.576   4.290   9.483  0.0991  0.2899  0.1902
   50CHL1  H11A 6141   3.597   4.396   9.456 -1.9868  0.8755  0.6932
   50CHL1  H11B 6142   3.471   4.274   9.514  0.2024 -0.4228  0.1960
   50CHL1    C9 6143   3.676   4.267   9.605 -0.5807 -0.1298 -0.2833
   50CHL1    H9 6144   3.671   4.160   9.634 -1.1351 -1.3988 -4.3868
   50CHL1   C10 6145   3.630   4.342   9.733 -0.3633 -0.0706 -0.4579
   50CHL1   C19 6146   3.610   4.489   9.694  0.1706 -0.1848  0.3424
   50CHL1  H19A 6147   3.581   4.548   9.783 -2.6836 -1.5179  0.4011
   50CHL1  H19B 6148   3.698   4.537   9.645  0.5388 -0.8677  0.3203
   50CHL1  H19C 6149   3.527   4.497   9.620 -0.8104  1.2538  1.5411
   50CHL1    C1 6150   3.494   4.284   9.790  0.5582 -0.1036 -0.2291
   50CHL1   H1A 6151   3.414   4.306   9.716 -0.5248 -1.0039  0.6338
   50CHL1   H1B 6152   3.515   4.175   9.797 -1.2906 -0.5269 -0.7361
   50CHL1    C2 6153   3.461   4.327   9.933 -0.5314  0.0301  0.4741
   50CHL1   H2A 6154   3.375   4.266   9.967 -0.7033 -1.4497 -2.3391
   50CHL1   H2B 6155   3.428   4.430   9.904 -2.5215 -0.2172  1.6868
   50CHL1   C20 6156   3.779   4.124   9.089 -0.6637 -0.3371 -0.3697
   50CHL1   H20 6157   3.753   4.223   9.047 -1.7178 -0.8558 -0.9797
   50CHL1   C21 6158   3.654   4.028   9.086 -0.3528 -0.4080 -0.1194
   50CHL1  H21A 6159   3.630   4.018   8.978 -0.6611  1.4640 -0.2599
   50CHL1  H21B 6160   3.567   4.074   9.138 -0.4641 -0.4385 -0.2778
   50CHL1  H21C 6161   3.674   3.929   9.131  1.1901 -0.2142 -0.3231
   50CHL1   C22 6162   3.876   4.066   8.982  0.7513 -0.3807 -0.4113
   50CHL1  H22A 6163   3.967   4.128   9.000  0.0828  0.0919  1.6445
   50CHL1  H22B 6164   3.903   3.966   9.020  1.0414  0.4871  1.8010
   50CHL1   C23 6165   3.840   4.075   8.832  0.1963  0.6542  0.3043
   50CHL1  H23A 6166   3.770   4.000   8.789  0.4615  0.0171  0.9679
   50CHL1  H23B 6167   3.789   4.172   8.814 -0.9444 -0.3675 -2.6471
   50CHL1   C24 6168   3.964   4.079   8.739 -0.9668 -0.3800 -0.1456
   50CHL1  H24A 6169   4.039   4.152   8.779 -0.6409  0.6106 -2.3891
   50CHL1  H24B 6170   4.010   3.978   8.743  0.5432  0.2251 -1.1328
   50CHL1   C25 6171   3.946   4.119   8.585  0.6616 -0.3879  0.2032
   50CHL1   H25 6172   4.050   4.118   8.547 -0.1741 -2.1077 -2.3402
   50CHL1   C26 6173   3.867   4.017   8.508  0.2390  0.5756 -0.0061
   50CHL1  H26A 6174   3.759   4.028   8.531 -0.1258 -2.5178  0.2116
   50CHL1  H26B 6175   3.887   4.023   8.399 -0.3952  1.6383 -0.0756
   50CHL1  H26C 6176   3.899   3.913   8.533  1.2441  1.0039  0.5966
   50CHL1   C27 6177   3.882   4.261   8.574 -0.4674  0.3070 -0.2776
   50CHL1  H27A 6178   3.937   4.322   8.648 -0.3347 -1.4927  1.1895
   50CHL1  H27B 6179   3.897   4.301   8.471  0.0143  1.4875  0.2347
   50CHL1  H27C 6180   3.773   4.254   8.596 -0.4933  2.0736  0.2502
   51CHL1    C3 6181   3.382   0.768  10.164  0.6818 -0.0123  0.1852
   51CHL1    H3 6182   3.479   0.730  10.126  0.9872 -0.9365  1.8117
   51CHL1    O3 6183   3.394   0.793  10.305 -0.0813  0.0972  0.7810
   51CHL1   H3' 6184   3.343   0.727  10.352 -0.9039  0.7941  0.8986
   51CHL1    C4 6185   3.341   0.891  10.084  0.1016  0.4516  0.0071
   51CHL1   H4A 6186   3.259   0.949  10.133 -0.9565 -0.6243 -0.4356
   51CHL1   H4B 6187   3.434   0.950  10.081  0.0635  0.6096  1.2256
   51CHL1    C5 6188   3.297   0.857   9.939 -0.2589  0.2749  0.2571
   51CHL1    C6 6189   3.360   0.904   9.833 -0.0683  0.1559  0.0495
   51CHL1    H6 6190   3.442   0.976   9.846  0.4698 -0.0152 -2.0383
   51CHL1    C7 6191   3.327   0.883   9.688 -1.3521  0.2639 -0.0717
   51CHL1   H7A 6192   3.327   0.980   9.634 -1.3986 -0.0677 -0.6719
   51CHL1   H7B 6193   3.415   0.827   9.649 -1.6212  0.3699 -0.8427
   51CHL1    C8 6194   3.197   0.799   9.666  0.2767  0.1609  0.6460
   51CHL1    H8 6195   3.125   0.883   9.669  0.4359  0.2764  1.6431
   51CHL1   C14 6196   3.201   0.749   9.528 -0.6783 -0.6208  0.1162
   51CHL1   H14 6197   3.289   0.683   9.511  0.9087  1.1030  1.2277
   51CHL1   C15 6198   3.218   0.848   9.412 -0.8131  0.1330  0.6413
   51CHL1  H15A 6199   3.165   0.945   9.423 -0.5863  0.3185  0.1737
   51CHL1  H15B 6200   3.321   0.884   9.392 -2.1985  3.8816 -0.5979
   51CHL1   C16 6201   3.179   0.761   9.296  0.1615 -0.0927  0.2051
   51CHL1  H16A 6202   3.117   0.818   9.223  2.6890  0.7009 -1.4210
   51CHL1  H16B 6203   3.273   0.738   9.242  1.1701  1.7686  1.0422
   51CHL1   C17 6204   3.099   0.641   9.356  0.7199  0.5259 -0.0079
   51CHL1   H17 6205   3.160   0.549   9.359  0.1614  0.1750  0.8149
   51CHL1   C13 6206   3.070   0.677   9.500 -0.4886  0.2163  0.5245
   51CHL1   C18 6207   2.951   0.769   9.504 -0.2955  0.3279 -0.4026
   51CHL1  H18A 6208   2.854   0.719   9.484  0.0081 -0.5514  0.2615
   51CHL1  H18B 6209   2.934   0.799   9.609 -1.8749 -0.6524 -0.3417
   51CHL1  H18C 6210   2.966   0.862   9.446  2.8647 -0.9324 -1.8619
   51CHL1   C12 6211   3.058   0.557   9.594 -0.9590 -0.0734 -0.3790
   51CHL1  H12A 6212   2.971   0.490   9.575  0.1889 -1.6656 -0.2545
   51CHL1  H12B 6213   3.138   0.483   9.570 -0.4605  0.8240 -1.5714
   51CHL1   C11 6214   3.064   0.602   9.740 -0.1325  0.9324  0.3666
   51CHL1  H11A 6215   2.964   0.650   9.751 -0.8323 -0.2754 -0.4600
   51CHL1  H11B 6216   3.055   0.510   9.801 -2.5694  1.2456  0.5795
   51CHL1    C9 6217   3.177   0.689   9.775 -0.2095 -0.0279 -0.0124
   51CHL1    H9 6218   3.267   0.624   9.762 -1.2633 -1.1862 -2.0409
   51CHL1   C10 6219   3.190   0.748   9.920  0.3314  0.4516  1.0858
   51CHL1   C19 6220   3.041   0.794   9.951  0.4440 -0.5991 -0.0475
   51CHL1  H19A 6221   2.967   0.710   9.955 -1.2244  0.8493  1.0084
   51CHL1  H19B 6222   3.028   0.856  10.042 -1.7712 -1.5368  0.3353
   51CHL1  H19C 6223   3.003   0.858   9.868 -3.4760 -1.7887  0.5904
   51CHL1    C1 6224   3.241   0.634  10.006  0.5723 -0.4015  0.2337
   51CHL1   H1A 6225   3.174   0.548   9.990 -0.9669  1.0220 -1.4427
   51CHL1   H1B 6226   3.337   0.598   9.961  1.7229  0.5021  1.8599
   51CHL1    C2 6227   3.262   0.667  10.155  0.9386 -0.1555 -0.1504
   51CHL1   H2A 6228   3.288   0.577  10.215  2.1911 -0.9706 -1.8378
   51CHL1   H2B 6229   3.168   0.715  10.191  0.0689 -2.0299  0.2416
   51CHL1   C20 6230   2.974   0.603   9.265 -0.4303 -0.6462  0.1487
   51CHL1   H20 6231   2.889   0.675   9.268  0.5627  0.6057 -0.6827
   51CHL1   C21 6232   2.906   0.469   9.311 -0.8886 -0.5727  0.5267
   51CHL1  H21A 6233   2.824   0.441   9.242  0.6843 -1.7418 -0.9647
   51CHL1  H21B 6234   2.855   0.489   9.407  1.1013  0.9399  1.3525
   51CHL1  H21C 6235   2.966   0.375   9.316 -1.0676 -0.7131  0.1087
   51CHL1   C22 6236   3.016   0.591   9.111 -0.5288  0.4007  0.3209
   51CHL1  H22A 6237   3.126   0.602   9.096 -0.2380 -0.8433  1.4101
   51CHL1  H22B 6238   3.004   0.485   9.082 -3.0017  1.0281 -1.2762
   51CHL1   C23 6239   2.951   0.687   9.012  0.0035 -0.5874  0.3760
   51CHL1  H23A 6240   2.842   0.668   9.000  0.3596 -2.2571 -0.5340
   51CHL1  H23B 6241   2.951   0.792   9.047 -1.7339 -0.5936  0.4851
   51CHL1   C24 6242   3.006   0.671   8.875  0.5784  0.4199 -0.3179
   51CHL1  H24A 6243   3.111   0.707   8.878  1.0836 -0.8407 -1.7644
   51CHL1  H24B 6244   2.999   0.566   8.840 -1.9321 -0.1833  1.6760
   51CHL1   C25 6245   2.915   0.743   8.773 -0.3174 -0.1302  0.4062
   51CHL1   H25 6246   2.813   0.705   8.794  1.0475 -4.2857  0.3112
   51CHL1   C26 6247   2.924   0.898   8.794 -0.0651 -0.1632  0.3569
   51CHL1  H26A 6248   2.879   0.952   8.708  1.0436  2.2842  1.2380
   51CHL1  H26B 6249   2.858   0.918   8.881 -1.3525  2.6619 -1.1530
   51CHL1  H26C 6250   3.027   0.937   8.808  0.7745 -1.9757 -0.4475
   51CHL1   C27 6251   2.950   0.700   8.629 -0.6491  0.3614  0.3964
   51CHL1  H27A 6252   2.949   0.592   8.602 -3.4306  0.3372  0.3189
   51CHL1  H27B 6253   2.878   0.748   8.560 -1.6095  2.2772  2.5907
   51CHL1  H27C 6254   3.051   0.736   8.602 -0.8697 -0.1338 -1.2133
   52CHL1    C3 6255   2.303   6.415   9.733 -0.5125 -0.2439 -0.3844
   52CHL1    H3 6256   2.387   6.388   9.666 -0.6536 -2.1806  0.1542
   52CHL1    O3 6257   2.355   6.446   9.859  0.3869  0.1782  0.2350
   52CHL1   H3' 6258   2.273   6.475   9.898  0.0287  1.7232 -1.5055
   52CHL1    C4 6259   2.211   6.521   9.672  0.4851  0.2685 -0.4643
   52CHL1   H4A 6260   2.122   6.533   9.738 -0.6900 -0.9310 -1.7611
   52CHL1   H4B 6261   2.270   6.615   9.678  0.0095  0.7571 -2.5765
   52CHL1    C5 6262   2.149   6.482   9.533  0.0297  0.0855 -0.6453
   52CHL1    C6 6263   2.183   6.554   9.430 -0.1427 -0.1811 -0.4312
   52CHL1    H6 6264   2.248   6.640   9.451 -1.0465  0.0371  1.7315
   52CHL1    C7 6265   2.146   6.526   9.293 -0.1939  0.1685 -0.0380
   52CHL1   H7A 6266   2.091   6.614   9.252  0.5986  0.0464 -1.4241
   52CHL1   H7B 6267   2.233   6.513   9.225 -0.5711  1.2346 -0.7680
   52CHL1    C8 6268   2.046   6.408   9.285 -0.2402  0.2109  0.0560
   52CHL1    H8 6269   1.948   6.441   9.324  0.0148 -0.8961  1.7417
   52CHL1   C14 6270   2.037   6.359   9.140  0.5748 -0.1995  0.1747
   52CHL1   H14 6271   2.136   6.315   9.116  0.2830 -0.3253 -0.8450
   52CHL1   C15 6272   2.017   6.455   9.022  0.4501 -0.3724 -0.0236
   52CHL1  H15A 6273   1.951   6.537   9.058 -0.4773 -1.0089 -0.2395
   52CHL1  H15B 6274   2.113   6.504   8.994 -0.3782  1.2466 -0.1352
   52CHL1   C16 6275   1.939   6.377   8.920  0.0023  0.7665  0.5772
   52CHL1  H16A 6276   1.833   6.410   8.913 -0.5291 -0.9647 -0.2988
   52CHL1  H16B 6277   1.980   6.391   8.817 -0.1692  0.4074  0.4560
   52CHL1   C17 6278   1.940   6.234   8.967 -0.4182  1.2245 -0.0832
   52CHL1   H17 6279   2.039   6.192   8.940 -1.3649  0.6207 -2.9715
   52CHL1   C13 6280   1.937   6.247   9.122  0.7506  0.9332  0.5395
   52CHL1   C18 6281   1.798   6.300   9.171  0.0617  0.3041  0.1538
   52CHL1  H18A 6282   1.796   6.330   9.278  0.2956  0.2578  0.1703
   52CHL1  H18B 6283   1.767   6.390   9.114 -0.0145  0.3598  0.2816
   52CHL1  H18C 6284   1.721   6.226   9.143  1.0487 -0.1517 -1.4973
   52CHL1   C12 6285   1.982   6.124   9.205 -0.5003  0.5822  0.0721
   52CHL1  H12A 6286   1.904   6.046   9.202 -2.4977  2.4967 -2.1361
   52CHL1  H12B 6287   2.079   6.092   9.161 -0.3157  2.7339 -1.2662
   52CHL1   C11 6288   2.001   6.161   9.346 -0.1157 -0.1977  0.1384
   52CHL1  H11A 6289   1.894   6.167   9.377 -0.5372  0.8724 -1.4115
   52CHL1  H11B 6290   2.056   6.079   9.397  1.0661  1.7265  2.1254
   52CHL1    C9 6291   2.085   6.291   9.373  0.2440  0.0463  0.5410
   52CHL1    H9 6292   2.185   6.255   9.342  0.1907  0.2450  0.1338
   52CHL1   C10 6293   2.104   6.342   9.521  0.4620  0.6155 -0.0973
   52CHL1   C19 6294   1.961   6.330   9.586  0.1885 -0.5765 -0.0413
   52CHL1  H19A 6295   1.941   6.225   9.615  2.2999 -1.0477 -0.1268
   52CHL1  H19B 6296   1.962   6.387   9.682  4.7626  0.2094 -0.3470
   52CHL1  H19C 6297   1.881   6.377   9.524  1.9835  0.2686 -1.8227
   52CHL1    C1 6298   2.196   6.244   9.602 -0.2301  0.1492  0.1573
   52CHL1   H1A 6299   2.154   6.141   9.596  4.2350 -1.9171  0.0940
   52CHL1   H1B 6300   2.289   6.239   9.541  0.5505  1.0357  1.2396
   52CHL1    C2 6301   2.228   6.283   9.750  0.6334  0.5318 -0.4603
   52CHL1   H2A 6302   2.275   6.199   9.804  0.0602  1.1591  1.0562
   52CHL1   H2B 6303   2.131   6.291   9.804  0.3984  1.2415 -0.9693
   52CHL1   C20 6304   1.835   6.147   8.886  0.6782  0.6239 -0.2818
   52CHL1   H20 6305   1.734   6.179   8.920 -0.8137 -2.9747 -0.9207
   52CHL1   C21 6306   1.876   6.002   8.903  0.1202  0.3494  0.1241
   52CHL1  H21A 6307   1.979   5.969   8.875 -0.5644 -0.6124 -1.3833
   52CHL1  H21B 6308   1.814   5.933   8.842  1.9217 -0.1657 -1.1928
   52CHL1  H21C 6309   1.857   5.970   9.008 -1.0076 -0.8339 -0.4085
   52CHL1   C22 6310   1.832   6.176   8.731  0.4342 -0.6415  0.2055
   52CHL1  H22A 6311   1.738   6.130   8.694 -0.2638  0.7094  0.2361
   52CHL1  H22B 6312   1.819   6.286   8.717 -3.2775 -1.0898 -0.8189
   52CHL1   C23 6313   1.946   6.120   8.643  0.2088 -0.0074 -0.1195
   52CHL1  H23A 6314   2.037   6.131   8.706 -2.0271  0.0089  3.3459
   52CHL1  H23B 6315   1.911   6.016   8.630 -2.8224  0.9618 -0.4226
   52CHL1   C24 6316   1.970   6.190   8.503  0.4645 -0.0198  0.1637
   52CHL1  H24A 6317   1.871   6.228   8.469  0.1050 -1.2878 -0.2678
   52CHL1  H24B 6318   2.038   6.275   8.520  0.7154 -0.2218  0.1673
   52CHL1   C25 6319   2.043   6.107   8.399 -0.3273  0.4535 -0.6194
   52CHL1   H25 6320   2.002   6.004   8.404 -0.5381  0.5839  0.7971
   52CHL1   C26 6321   2.030   6.182   8.269 -0.2609 -0.5083  0.2849
   52CHL1  H26A 6322   2.082   6.280   8.269  0.6606 -0.9802  0.5456
   52CHL1  H26B 6323   2.062   6.113   8.189  0.9053  0.8870 -0.5012
   52CHL1  H26C 6324   1.924   6.209   8.252  0.1136 -0.4697 -2.2536
   52CHL1   C27 6325   2.193   6.093   8.440 -0.3290  0.3382  0.5510
   52CHL1  H27A 6326   2.247   6.190   8.439 -3.4818  2.2830  1.3597
   52CHL1  H27B 6327   2.196   6.048   8.541 -2.5673 -1.9368 -0.2886
   52CHL1  H27C 6328   2.245   6.029   8.366 -2.1650  1.5628 -1.9882
   53CHL1    C3 6329   4.378   5.664  10.105  0.2086  0.1687  0.2962
   53CHL1    H3 6330   4.363   5.560  10.141  0.2750  0.8425  2.4266
   53CHL1    O3 6331   4.369   5.739  10.226  0.3576 -0.2280  0.8799
   53CHL1   H3' 6332   4.456   5.778  10.236  0.2895  0.5941 -1.2065
   53CHL1    C4 6333   4.522   5.677  10.056  0.0204 -0.2273 -0.4477
   53CHL1   H4A 6334   4.529   5.781  10.018 -0.6555 -0.3651 -0.9638
   53CHL1   H4B 6335   4.597   5.650  10.134 -1.5261 -2.2322  0.4455
   53CHL1    C5 6336   4.536   5.575   9.943 -0.0043 -0.2569 -0.5382
   53CHL1    C6 6337   4.610   5.469   9.961  0.2143  0.5975  0.8421
   53CHL1    H6 6338   4.664   5.444  10.054  0.5617 -2.3632 -0.0507
   53CHL1    C7 6339   4.635   5.387   9.834 -0.2574 -0.0464 -0.4207
   53CHL1   H7A 6340   4.742   5.368   9.812 -0.0823 -1.5210  1.4478
   53CHL1   H7B 6341   4.598   5.284   9.852  0.4409 -0.0981  0.8146
   53CHL1    C8 6342   4.592   5.436   9.695  0.5191 -0.3401 -0.5280
   53CHL1    H8 6343   4.653   5.520   9.656 -3.2944  3.1171  0.2101
   53CHL1   C14 6344   4.581   5.322   9.592  0.4936 -0.3023  0.7711
   53CHL1   H14 6345   4.510   5.254   9.645  0.2832  0.3583  1.3481
   53CHL1   C15 6346   4.707   5.232   9.577 -0.9807  0.5044 -0.0020
   53CHL1  H15A 6347   4.797   5.296   9.574 -0.3482 -0.2850  1.2523
   53CHL1  H15B 6348   4.715   5.147   9.648 -2.2224 -1.8714 -2.5183
   53CHL1   C16 6349   4.681   5.163   9.443 -0.5733 -0.2651 -0.3868
   53CHL1  H16A 6350   4.768   5.173   9.374  0.5807 -0.1763  1.0440
   53CHL1  H16B 6351   4.686   5.054   9.464 -0.9718 -0.2076  0.0277
   53CHL1   C17 6352   4.545   5.213   9.392  0.0436  0.2932  0.4792
   53CHL1   H17 6353   4.467   5.151   9.443  1.4819  0.0999  2.6091
   53CHL1   C13 6354   4.525   5.356   9.453 -0.0600  0.0581  0.5434
   53CHL1   C18 6355   4.622   5.454   9.392  0.8615 -0.8872  0.3247
   53CHL1  H18A 6356   4.586   5.484   9.292 -1.8283 -2.4950  0.7109
   53CHL1  H18B 6357   4.649   5.540   9.457  1.3722 -1.2080  0.5419
   53CHL1  H18C 6358   4.723   5.414   9.370  1.4980  0.6911  0.2523
   53CHL1   C12 6359   4.384   5.414   9.479 -0.2597  0.6614  0.2910
   53CHL1  H12A 6360   4.325   5.444   9.389  0.5835 -1.1433 -0.9011
   53CHL1  H12B 6361   4.338   5.320   9.515  2.2816 -0.4238  0.8961
   53CHL1   C11 6362   4.378   5.527   9.580  0.0250 -0.3653  0.1385
   53CHL1  H11A 6363   4.405   5.623   9.533  1.5899  0.1007  1.8912
   53CHL1  H11B 6364   4.272   5.543   9.609  0.5980  1.9156  1.1410
   53CHL1    C9 6365   4.450   5.498   9.714 -0.3226  0.1982 -0.6040
   53CHL1    H9 6366   4.384   5.420   9.758  0.1652  1.1348  2.0082
   53CHL1   C10 6367   4.451   5.612   9.820  0.1498 -1.0937 -0.2499
   53CHL1   C19 6368   4.509   5.738   9.751  0.0259 -0.1451 -0.0245
   53CHL1  H19A 6369   4.466   5.765   9.652  0.8403  1.4787  0.0162
   53CHL1  H19B 6370   4.498   5.822   9.823 -1.6341 -1.0344  0.8064
   53CHL1  H19C 6371   4.617   5.725   9.728  0.4275 -2.3306  2.5905
   53CHL1    C1 6372   4.298   5.632   9.867 -0.7905  0.5303  0.0298
   53CHL1   H1A 6373   4.249   5.680   9.779 -1.8529 -1.1229 -0.3362
   53CHL1   H1B 6374   4.248   5.533   9.870  1.5079 -0.7493 -0.9348
   53CHL1    C2 6375   4.272   5.708  10.001 -0.3818 -0.2298 -1.2140
   53CHL1   H2A 6376   4.167   5.694  10.033 -0.7087 -1.3491 -2.6623
   53CHL1   H2B 6377   4.279   5.816   9.978  0.4730  0.5006  1.8926
   53CHL1   C20 6378   4.522   5.205   9.240 -0.9372 -0.7195 -0.1908
   53CHL1   H20 6379   4.585   5.279   9.186 -0.1687 -0.4948  0.9922
   53CHL1   C21 6380   4.386   5.265   9.202  0.0608  0.1584  0.4127
   53CHL1  H21A 6381   4.309   5.229   9.273 -0.1265  1.5449  0.9483
   53CHL1  H21B 6382   4.357   5.234   9.100  0.4888  1.5830 -0.1742
   53CHL1  H21C 6383   4.392   5.375   9.186  0.4276 -0.0858 -1.3009
   53CHL1   C22 6384   4.543   5.058   9.187  0.1096 -0.2937 -0.4256
   53CHL1  H22A 6385   4.645   5.025   9.218  0.4025  1.9405  1.2193
   53CHL1  H22B 6386   4.473   4.985   9.234  0.1976 -1.4874 -2.0291
   53CHL1   C23 6387   4.536   5.056   9.036  0.4665  0.2420  0.7964
   53CHL1  H23A 6388   4.434   5.088   9.005  0.7673 -0.0653 -0.6148
   53CHL1  H23B 6389   4.600   5.130   8.983 -0.6911  0.0911 -0.9181
   53CHL1   C24 6390   4.561   4.915   8.987 -0.1147 -0.7651  0.0024
   53CHL1  H24A 6391   4.641   4.868   9.048  0.0602  1.7610  1.8642
   53CHL1  H24B 6392   4.466   4.861   9.010 -0.0603 -0.4217  1.0784
   53CHL1   C25 6393   4.584   4.902   8.839 -0.2824 -0.4338  0.3063
   53CHL1   H25 6394   4.686   4.939   8.813  0.5774 -4.2009 -2.5409
   53CHL1   C26 6395   4.578   4.756   8.795 -0.1833 -0.0283 -0.0892
   53CHL1  H26A 6396   4.641   4.690   8.859 -0.1109 -2.1745 -2.2060
   53CHL1  H26B 6397   4.476   4.712   8.798 -0.0112 -0.4207  0.2106
   53CHL1  H26C 6398   4.619   4.748   8.692  0.6245  0.2530  0.2020
   53CHL1   C27 6399   4.491   4.990   8.752  0.2337 -0.1301 -0.5211
   53CHL1  H27A 6400   4.506   5.099   8.769  1.7261 -0.2487 -0.9032
   53CHL1  H27B 6401   4.524   4.963   8.649 -0.2339 -0.7278 -0.5195
   53CHL1  H27C 6402   4.387   4.955   8.768  1.1438 -3.9173 -1.7440
   54CHL1    C3 6403   2.442   1.437  10.177 -0.2009  0.6406  0.4385
   54CHL1    H3 6404   2.437   1.326  10.170 -0.9740  0.6471  0.7510
   54CHL1    O3 6405   2.440   1.465  10.319 -0.2900 -0.0102 -0.3131
   54CHL1   H3' 6406   2.455   1.559  10.334 -1.2748  0.5793 -2.5755
   54CHL1    C4 6407   2.566   1.504  10.106  0.1307 -0.0734  0.2968
   54CHL1   H4A 6408   2.562   1.613  10.126  0.8462  0.0717 -0.2958
   54CHL1   H4B 6409   2.660   1.472  10.157 -1.1955 -4.3138  0.4568
   54CHL1    C5 6410   2.562   1.491   9.957 -0.0364 -0.0653 -0.6849
   54CHL1    C6 6411   2.666   1.441   9.890  0.2874  0.1965  0.5659
   54CHL1    H6 6412   2.753   1.408   9.950  1.8968  2.1323 -0.5648
   54CHL1    C7 6413   2.678   1.430   9.742  0.5330  0.1840 -0.9576
   54CHL1   H7A 6414   2.781   1.449   9.704  1.1569  2.3222  1.5559
   54CHL1   H7B 6415   2.657   1.326   9.707  1.8662 -0.2289 -0.6166
   54CHL1    C8 6416   2.569   1.524   9.676  0.2326 -0.2260 -0.5500
   54CHL1    H8 6417   2.602   1.626   9.706  1.3577 -0.5888 -0.5153
   54CHL1   C14 6418   2.562   1.489   9.526  0.0749 -0.4310 -0.1590
   54CHL1   H14 6419   2.516   1.389   9.518  0.3531 -0.5947  0.2358
   54CHL1   C15 6420   2.693   1.482   9.447  0.1671  0.1438  0.5570
   54CHL1  H15A 6421   2.773   1.554   9.477 -0.6304  0.7765  1.2266
   54CHL1  H15B 6422   2.736   1.380   9.446  1.6079  0.6922 -1.9924
   54CHL1   C16 6423   2.650   1.518   9.302 -0.0095  0.0075 -0.0161
   54CHL1  H16A 6424   2.705   1.613   9.284  0.4717 -0.3715 -0.6032
   54CHL1  H16B 6425   2.684   1.443   9.227  0.0781 -0.6144  0.6390
   54CHL1   C17 6426   2.489   1.544   9.306  0.0362  0.6513 -0.3141
   54CHL1   H17 6427   2.440   1.445   9.289  0.4768  0.2482  0.6988
   54CHL1   C13 6428   2.456   1.578   9.456 -0.3517  0.0337  0.0372
   54CHL1   C18 6429   2.491   1.727   9.478 -0.0892  0.6163 -0.2147
   54CHL1  H18A 6430   2.429   1.788   9.409 -0.1221  1.6959  0.7425
   54CHL1  H18B 6431   2.480   1.760   9.584  0.3839  1.2266 -0.3496
   54CHL1  H18C 6432   2.597   1.757   9.460 -0.0170  0.3272 -0.2825
   54CHL1   C12 6433   2.315   1.540   9.513 -0.1855 -0.4368 -0.0718
   54CHL1  H12A 6434   2.235   1.609   9.480  0.7177  1.1112  0.8211
   54CHL1  H12B 6435   2.305   1.433   9.488  0.3473  0.2026 -3.5372
   54CHL1   C11 6436   2.313   1.558   9.664 -0.0391 -0.7041 -0.4811
   54CHL1  H11A 6437   2.315   1.666   9.690  0.7891 -0.7667 -0.2479
   54CHL1  H11B 6438   2.218   1.519   9.706 -0.2700 -1.4653 -1.6717
   54CHL1    C9 6439   2.434   1.496   9.744  0.2168 -0.0514 -0.0169
   54CHL1    H9 6440   2.415   1.386   9.740 -1.7409  0.2479 -0.0710
   54CHL1   C10 6441   2.429   1.536   9.898 -0.3474  0.3086  0.1970
   54CHL1   C19 6442   2.426   1.686   9.915  0.1263 -0.4926  0.1043
   54CHL1  H19A 6443   2.333   1.735   9.880  0.3680  0.4419  0.7334
   54CHL1  H19B 6444   2.443   1.727  10.016 -2.0655 -2.1416  1.2103
   54CHL1  H19C 6445   2.508   1.729   9.853  0.1654 -2.3155 -1.1902
   54CHL1    C1 6446   2.304   1.471   9.961  0.0625 -0.6343 -0.0964
   54CHL1   H1A 6447   2.208   1.510   9.922  0.8602  2.0259  0.3642
   54CHL1   H1B 6448   2.318   1.362   9.944  2.6865 -0.3683 -0.1823
   54CHL1    C2 6449   2.307   1.482  10.117  0.0681  0.0588  0.4522
   54CHL1   H2A 6450   2.222   1.426  10.161  0.5841 -0.4428  0.8398
   54CHL1   H2B 6451   2.289   1.588  10.145 -2.5330  0.0112 -0.7965
   54CHL1   C20 6452   2.440   1.632   9.193  0.0358 -0.6463  1.1250
   54CHL1   H20 6453   2.465   1.737   9.218  1.6890 -1.0682  1.3971
   54CHL1   C21 6454   2.289   1.614   9.192  0.3799 -0.2171  0.1362
   54CHL1  H21A 6455   2.235   1.653   9.281  1.3591 -1.5091  1.3431
   54CHL1  H21B 6456   2.260   1.507   9.195 -2.6452  0.5310  0.5029
   54CHL1  H21C 6457   2.250   1.663   9.101  1.2842  2.3270  1.0183
   54CHL1   C22 6458   2.502   1.604   9.048  0.7043  0.5784 -0.2528
   54CHL1  H22A 6459   2.483   1.687   8.976 -0.5275 -0.3944 -1.0807
   54CHL1  H22B 6460   2.611   1.592   9.064  0.0055 -2.3372  4.3080
   54CHL1   C23 6461   2.452   1.466   8.993  0.0706  0.1023  0.1988
   54CHL1  H23A 6462   2.456   1.378   9.061  0.9597 -1.6278 -1.9666
   54CHL1  H23B 6463   2.343   1.478   8.972 -0.7409 -2.7677  2.0888
   54CHL1   C24 6464   2.514   1.425   8.852  0.0262  0.3224 -0.1161
   54CHL1  H24A 6465   2.475   1.327   8.817 -0.7439  0.8225 -0.7016
   54CHL1  H24B 6466   2.486   1.504   8.779 -0.1341  0.1206 -0.2728
   54CHL1   C25 6467   2.673   1.409   8.844  0.4536  0.4281 -0.0836
   54CHL1   H25 6468   2.711   1.504   8.889 -0.6209 -0.2204  2.3517
   54CHL1   C26 6469   2.738   1.314   8.943 -0.3000  0.2816  0.2503
   54CHL1  H26A 6470   2.839   1.349   8.971  1.5305 -4.2013  0.0864
   54CHL1  H26B 6471   2.686   1.320   9.041  0.5906 -1.0304  0.8286
   54CHL1  H26C 6472   2.741   1.206   8.916  1.0759  0.3886 -0.0663
   54CHL1   C27 6473   2.737   1.418   8.706 -0.3259 -0.3455 -0.3568
   54CHL1  H27A 6474   2.737   1.318   8.659 -0.6996 -1.2075  1.3799
   54CHL1  H27B 6475   2.679   1.488   8.642 -0.3331 -1.6012 -1.7708
   54CHL1  H27C 6476   2.844   1.448   8.716  0.1222 -2.3364  1.8136
   55CHL1    C3 6477   3.532   5.307   9.875  0.0659  0.3386  0.1277
   55CHL1    H3 6478   3.602   5.393   9.881 -1.0556  1.3332 -0.5642
   55CHL1    O3 6479   3.541   5.243  10.005  0.1122 -0.3209  0.6810
   55CHL1   H3' 6480   3.459   5.193  10.013 -0.1750 -0.4741 -2.0189
   55CHL1    C4 6481   3.393   5.347   9.830  0.2625 -0.5836 -0.3905
   55CHL1   H4A 6482   3.340   5.249   9.825  0.4083 -0.7632  1.0685
   55CHL1   H4B 6483   3.344   5.402   9.913 -1.5791 -1.4912 -0.8235
   55CHL1    C5 6484   3.397   5.421   9.701 -0.4049  0.4858  0.6648
   55CHL1    C6 6485   3.362   5.553   9.690 -0.0815  0.0856 -0.2522
   55CHL1    H6 6486   3.332   5.607   9.781  0.3958 -2.9811  1.8823
   55CHL1    C7 6487   3.365   5.631   9.558 -0.4036  0.4160  0.0685
   55CHL1   H7A 6488   3.269   5.684   9.544  0.2841  1.5012 -0.7627
   55CHL1   H7B 6489   3.448   5.704   9.549  0.2369 -0.4034 -0.9829
   55CHL1    C8 6490   3.384   5.533   9.439  0.2786  0.4371  0.6869
   55CHL1    H8 6491   3.287   5.482   9.419 -0.7698  3.1211 -1.8583
   55CHL1   C14 6492   3.423   5.610   9.315  0.4803 -0.1579  0.8658
   55CHL1   H14 6493   3.525   5.649   9.336  0.8097 -0.3619 -0.3228
   55CHL1   C15 6494   3.326   5.733   9.279 -0.2041  0.0349 -0.2640
   55CHL1  H15A 6495   3.222   5.698   9.289 -1.2203  3.1548  1.5783
   55CHL1  H15B 6496   3.350   5.825   9.337  1.6280 -0.4437 -0.1869
   55CHL1   C16 6497   3.355   5.766   9.132 -0.7549 -0.1731  0.2269
   55CHL1  H16A 6498   3.267   5.745   9.067 -2.0831  1.3153  1.4298
   55CHL1  H16B 6499   3.396   5.869   9.119 -0.0944 -0.3614  0.7674
   55CHL1   C17 6500   3.458   5.651   9.089 -0.0663 -0.2873 -0.8070
   55CHL1   H17 6501   3.556   5.697   9.115  0.6104 -1.8498 -0.4869
   55CHL1   C13 6502   3.441   5.533   9.178 -0.4584  0.4505 -0.4236
   55CHL1   C18 6503   3.305   5.466   9.137  0.0838  0.6252  0.1573
   55CHL1  H18A 6504   3.227   5.542   9.116  0.9514  1.9045  1.3314
   55CHL1  H18B 6505   3.304   5.402   9.047 -1.0709 -0.7268  1.0897
   55CHL1  H18C 6506   3.266   5.404   9.220  1.9510 -1.0428 -0.1219
   55CHL1   C12 6507   3.560   5.435   9.207  0.9086  0.2567 -0.7634
   55CHL1  H12A 6508   3.571   5.366   9.121 -1.6038 -0.9779 -0.1852
   55CHL1  H12B 6509   3.658   5.482   9.230  0.5615  0.7610 -0.2938
   55CHL1   C11 6510   3.513   5.336   9.326  0.5132  0.0490 -0.0156
   55CHL1  H11A 6511   3.422   5.283   9.292  1.0918 -0.1436 -1.3397
   55CHL1  H11B 6512   3.589   5.257   9.344  0.2550 -0.3730 -0.7307
   55CHL1    C9 6513   3.485   5.424   9.457 -0.5518  0.1080  0.0981
   55CHL1    H9 6514   3.583   5.473   9.477  0.1482 -1.4493  0.6444
   55CHL1   C10 6515   3.457   5.340   9.588  0.0437  0.0341 -0.3447
   55CHL1   C19 6516   3.360   5.219   9.553  0.0718  0.2020  0.1896
   55CHL1  H19A 6517   3.395   5.160   9.465 -0.5152  0.1019  0.0194
   55CHL1  H19B 6518   3.337   5.148   9.635 -0.4009  2.3553  1.9897
   55CHL1  H19C 6519   3.260   5.255   9.521  0.6362  2.7214  1.0181
   55CHL1    C1 6520   3.596   5.283   9.637  1.3672 -0.3673  0.2338
   55CHL1   H1A 6521   3.625   5.215   9.554  1.8528 -0.5320  0.5307
   55CHL1   H1B 6522   3.669   5.366   9.628  1.1252  0.1293  2.3261
   55CHL1    C2 6523   3.597   5.220   9.772 -0.8895 -0.0048 -0.5858
   55CHL1   H2A 6524   3.700   5.193   9.805 -1.1364  1.4880  1.5816
   55CHL1   H2B 6525   3.539   5.126   9.761  1.3886 -1.4926 -0.6172
   55CHL1   C20 6526   3.461   5.625   8.935 -0.1777 -0.5520  0.1592
   55CHL1   H20 6527   3.361   5.581   8.916 -0.1402 -1.0388  1.0226
   55CHL1   C21 6528   3.576   5.528   8.893 -0.0410 -0.4816  0.9364
   55CHL1  H21A 6529   3.675   5.563   8.930 -0.3158  0.4274  0.8214
   55CHL1  H21B 6530   3.588   5.513   8.783  1.0883  1.7150  0.6927
   55CHL1  H21C 6531   3.553   5.428   8.935 -0.3878 -0.7284  0.1802
   55CHL1   C22 6532   3.483   5.766   8.857 -0.1829 -0.3664  0.1363
   55CHL1  H22A 6533   3.403   5.830   8.901 -2.5135 -1.3626 -2.4079
   55CHL1  H22B 6534   3.581   5.816   8.874 -0.2078  0.1403 -1.0988
   55CHL1   C23 6535   3.454   5.759   8.705  0.0078  0.0735 -0.2387
   55CHL1  H23A 6536   3.463   5.864   8.670  0.1885 -0.1537 -0.8925
   55CHL1  H23B 6537   3.552   5.720   8.667 -0.3847 -0.5554 -0.6367
   55CHL1   C24 6538   3.331   5.690   8.667 -0.0191  1.0618  0.0151
   55CHL1  H24A 6539   3.332   5.581   8.687 -1.2934  1.0779  0.2634
   55CHL1  H24B 6540   3.252   5.735   8.732  1.0929 -0.5590  2.6800
   55CHL1   C25 6541   3.288   5.710   8.518 -0.7903  0.4540  0.3693
   55CHL1   H25 6542   3.192   5.659   8.497  0.3188 -0.6154 -2.5620
   55CHL1   C26 6543   3.262   5.853   8.485 -0.1964 -0.6974 -0.3823
   55CHL1  H26A 6544   3.232   5.849   8.378  0.0737 -1.2625 -0.4421
   55CHL1  H26B 6545   3.185   5.891   8.555 -0.3084  0.1660 -0.9570
   55CHL1  H26C 6546   3.354   5.915   8.499 -1.4463  0.4520  4.5374
   55CHL1   C27 6547   3.384   5.636   8.422 -0.1280 -0.4989 -0.0499
   55CHL1  H27A 6548   3.349   5.618   8.318  0.2432  0.4954 -0.3586
   55CHL1  H27B 6549   3.480   5.692   8.424 -0.1462 -0.4866  0.8548
   55CHL1  H27C 6550   3.409   5.537   8.464 -0.9680 -0.2738  1.0335
   56CHL1    C3 6551   5.830   1.991  10.162  0.0761 -0.7360 -0.1290
   56CHL1    H3 6552   5.723   2.020  10.168 -0.4152 -1.3566 -3.7416
   56CHL1    O3 6553   5.871   1.951  10.291  0.7762 -0.3027 -0.1148
   56CHL1   H3' 6554   5.954   1.908  10.269  0.4806 -0.8329 -0.2094
   56CHL1    C4 6555   5.841   1.875  10.064 -0.3665  0.1734 -0.4338
   56CHL1   H4A 6556   5.948   1.845  10.062 -0.4857 -0.2234 -2.4316
   56CHL1   H4B 6557   5.803   1.777  10.099  2.0721 -0.4135  0.7911
   56CHL1    C5 6558   5.797   1.905   9.933 -0.8833  0.1690 -0.2948
   56CHL1    C6 6559   5.697   1.843   9.878  0.3741  0.1497 -0.0182
   56CHL1    H6 6560   5.643   1.766   9.936  2.5912 -1.0650  0.5387
   56CHL1    C7 6561   5.656   1.869   9.732  0.0997 -0.3881 -0.7653
   56CHL1   H7A 6562   5.652   1.773   9.676 -1.3098  0.3447 -1.9901
   56CHL1   H7B 6563   5.563   1.930   9.739  0.4668  0.0325  1.4140
   56CHL1    C8 6564   5.755   1.965   9.655 -0.1495  0.5173 -0.4658
   56CHL1    H8 6565   5.844   1.899   9.643 -1.5181 -2.0686  2.2186
   56CHL1   C14 6566   5.698   2.006   9.527 -0.1881 -0.7071 -0.6256
   56CHL1   H14 6567   5.613   2.070   9.559  0.1687  0.2429 -1.5084
   56CHL1   C15 6568   5.631   1.906   9.432 -0.1190 -0.3122  0.3510
   56CHL1  H15A 6569   5.697   1.817   9.426  2.7867  1.7816 -1.9518
   56CHL1  H15B 6570   5.532   1.872   9.469  0.6891 -0.3542  2.6058
   56CHL1   C16 6571   5.628   1.984   9.303 -0.6157  0.4248 -0.5572
   56CHL1  H16A 6572   5.669   1.928   9.217 -1.1948  2.4838 -2.2682
   56CHL1  H16B 6573   5.526   2.018   9.276 -1.4542 -0.3403  1.4613
   56CHL1   C17 6574   5.706   2.117   9.328  0.2307  0.7127  0.1776
   56CHL1   H17 6575   5.625   2.185   9.362 -1.4113 -0.3453 -1.4081
   56CHL1   C13 6576   5.794   2.093   9.453  0.5039  0.0492 -0.4405
   56CHL1   C18 6577   5.921   2.011   9.410  0.4402  0.2890  0.0010
   56CHL1  H18A 6578   5.971   2.076   9.335 -0.6472  0.7395 -0.3516
   56CHL1  H18B 6579   5.990   1.979   9.492 -0.2691  0.4586  0.6718
   56CHL1  H18C 6580   5.887   1.918   9.361  1.1606  0.1311 -0.2129
   56CHL1   C12 6581   5.830   2.224   9.534  0.1018 -0.7468  0.7804
   56CHL1  H12A 6582   5.899   2.279   9.466 -0.8455  0.7512  0.9817
   56CHL1  H12B 6583   5.758   2.309   9.541  0.1557 -0.7124  0.9202
   56CHL1   C11 6584   5.885   2.197   9.669  0.3823  0.6098 -0.0929
   56CHL1  H11A 6585   5.991   2.163   9.659  0.7796  2.4122 -3.5631
   56CHL1  H11B 6586   5.887   2.294   9.723 -1.4772  1.3821 -1.3212
   56CHL1    C9 6587   5.803   2.083   9.743  0.4776  0.1180 -0.5576
   56CHL1    H9 6588   5.705   2.125   9.774  0.3840 -0.3486 -0.2111
   56CHL1   C10 6589   5.873   2.029   9.867  0.1726  0.1454 -0.4629
   56CHL1   C19 6590   6.018   1.977   9.846 -0.0823 -0.1027  0.2702
   56CHL1  H19A 6591   6.074   1.960   9.940  0.4517  0.2943  0.0289
   56CHL1  H19B 6592   6.018   1.887   9.780 -0.2433  0.9941 -1.2902
   56CHL1  H19C 6593   6.082   2.053   9.797  1.5300 -1.8015 -0.3713
   56CHL1    C1 6594   5.884   2.148   9.972  0.3665  0.1459  0.0069
   56CHL1   H1A 6595   5.960   2.227   9.952  2.4693 -1.6726  0.4693
   56CHL1   H1B 6596   5.787   2.201   9.975 -0.7980 -1.4785 -3.4367
   56CHL1    C2 6597   5.922   2.107  10.117  0.9973  0.0119  0.8337
   56CHL1   H2A 6598   5.916   2.192  10.189 -0.5966  0.9108 -0.2959
   56CHL1   H2B 6599   6.027   2.072  10.108  0.9960  0.4852 -1.5778
   56CHL1   C20 6600   5.764   2.179   9.200 -0.6470 -0.1495  0.1630
   56CHL1   H20 6601   5.835   2.101   9.165 -0.9070 -0.5336  0.4859
   56CHL1   C21 6602   5.827   2.323   9.228  0.3716  0.6608 -0.1478
   56CHL1  H21A 6603   5.925   2.319   9.280  0.6172  2.5887 -0.4054
   56CHL1  H21B 6604   5.755   2.380   9.290  0.2403  2.1039 -1.5648
   56CHL1  H21C 6605   5.840   2.381   9.135 -3.6803 -0.1472 -1.4340
   56CHL1   C22 6606   5.657   2.192   9.091  0.1558 -0.3062 -0.0502
   56CHL1  H22A 6607   5.613   2.092   9.072 -0.8933  0.3599 -1.3582
   56CHL1  H22B 6608   5.586   2.259   9.143  0.1481 -0.8014  0.5825
   56CHL1   C23 6609   5.699   2.257   8.957 -0.1833  0.5575 -0.2364
   56CHL1  H23A 6610   5.606   2.264   8.895 -0.0000  2.4061 -0.3591
   56CHL1  H23B 6611   5.739   2.360   8.965  1.2152  0.2062 -1.9602
   56CHL1   C24 6612   5.800   2.168   8.892 -0.5577 -0.7461  0.0075
   56CHL1  H24A 6613   5.890   2.176   8.957 -0.9669  2.0495  0.3561
   56CHL1  H24B 6614   5.763   2.063   8.887 -0.9393 -0.6747  1.1107
   56CHL1   C25 6615   5.838   2.228   8.753 -0.0738 -0.4391  0.0755
   56CHL1   H25 6616   5.917   2.161   8.713  1.3522  0.6612  0.9899
   56CHL1   C26 6617   5.718   2.204   8.660  0.3847  0.3174  0.5740
   56CHL1  H26A 6618   5.638   2.278   8.682  0.3754  0.4482  0.1000
   56CHL1  H26B 6619   5.750   2.218   8.555  0.3806 -3.0793  0.0067
   56CHL1  H26C 6620   5.687   2.100   8.683  2.2664 -0.6047 -0.8203
   56CHL1   C27 6621   5.893   2.371   8.755  0.0376 -0.4281 -0.2472
   56CHL1  H27A 6622   5.811   2.431   8.799 -0.9063 -1.6851 -0.2455
   56CHL1  H27B 6623   5.985   2.394   8.813 -0.1801  1.6968 -0.6290
   56CHL1  H27C 6624   5.911   2.395   8.647  0.5605 -1.8104 -0.4833
   57CHL1    C3 6625   2.862   5.526  10.102  0.3192  0.2508 -0.1717
   57CHL1    H3 6626   2.761   5.571  10.112 -0.8697 -2.4910  1.2478
   57CHL1    O3 6627   2.923   5.519  10.235 -0.1348 -0.2776 -0.0845
   57CHL1   H3' 6628   2.981   5.443  10.231 -1.1836 -1.0762 -0.5502
   57CHL1    C4 6629   2.839   5.388  10.053  0.0639  0.0856 -0.0858
   57CHL1   H4A 6630   2.938   5.344  10.079  0.1750  1.7076  2.6816
   57CHL1   H4B 6631   2.758   5.336  10.108  1.2453 -2.4926 -0.6253
   57CHL1    C5 6632   2.809   5.380   9.900 -0.4102 -0.6672  0.5007
   57CHL1    C6 6633   2.697   5.322   9.853 -0.3575  0.7728  0.0112
   57CHL1    H6 6634   2.632   5.274   9.928 -0.4465 -0.1282 -0.6197
   57CHL1    C7 6635   2.678   5.295   9.704 -0.5591 -0.6352 -0.4624
   57CHL1   H7A 6636   2.645   5.192   9.677 -1.2958 -0.4613 -0.2376
   57CHL1   H7B 6637   2.606   5.376   9.682 -1.0755  0.4198  4.1101
   57CHL1    C8 6638   2.804   5.328   9.619  1.1399 -0.1491  0.4054
   57CHL1    H8 6639   2.877   5.244   9.625  3.5232  1.8391  1.0334
   57CHL1   C14 6640   2.764   5.351   9.477  0.8830  0.0490 -0.1099
   57CHL1   H14 6641   2.689   5.432   9.489 -0.6269 -1.6288  3.7038
   57CHL1   C15 6642   2.683   5.242   9.411 -0.2710  0.0874 -0.1769
   57CHL1  H15A 6643   2.732   5.143   9.423  0.6609  0.4014 -1.2484
   57CHL1  H15B 6644   2.581   5.231   9.454  0.5747  0.2058  1.9438
   57CHL1   C16 6645   2.674   5.277   9.264  0.2250 -0.2594 -0.0108
   57CHL1  H16A 6646   2.693   5.178   9.217  1.0791 -0.9027  1.5803
   57CHL1  H16B 6647   2.574   5.320   9.245  0.2912  0.2956  0.8327
   57CHL1   C17 6648   2.783   5.387   9.243 -0.6113  0.5590  0.0603
   57CHL1   H17 6649   2.733   5.486   9.252 -1.0486  0.4425 -0.9663
   57CHL1   C13 6650   2.872   5.382   9.374  0.5507  0.7931 -0.1311
   57CHL1   C18 6651   2.970   5.266   9.363  0.1102 -0.4192  0.0981
   57CHL1  H18A 6652   3.054   5.311   9.305  0.3149  0.3400  0.9534
   57CHL1  H18B 6653   3.006   5.236   9.464  0.6486  0.8036  0.2966
   57CHL1  H18C 6654   2.928   5.177   9.311 -0.4254 -1.3719  2.0910
   57CHL1   C12 6655   2.940   5.513   9.419  0.4753 -0.2489 -0.5098
   57CHL1  H12A 6656   3.022   5.539   9.350 -1.1368  0.0489 -2.3934
   57CHL1  H12B 6657   2.864   5.595   9.423  2.6093  1.8149  1.9463
   57CHL1   C11 6658   2.984   5.504   9.567  0.2584 -0.1740 -0.3694
   57CHL1  H11A 6659   3.065   5.430   9.584 -1.8809 -2.2576  1.5245
   57CHL1  H11B 6660   3.011   5.609   9.592  1.4662 -0.2634 -1.2282
   57CHL1    C9 6661   2.868   5.463   9.662 -0.0481 -0.2976  0.2556
   57CHL1    H9 6662   2.790   5.539   9.638 -0.4973 -1.4393 -2.1846
   57CHL1   C10 6663   2.904   5.462   9.807  0.4951  0.0234 -0.5846
   57CHL1   C19 6664   3.046   5.408   9.818  0.1549  0.1488  0.4267
   57CHL1  H19A 6665   3.114   5.488   9.783 -0.4757  0.1677 -0.8236
   57CHL1  H19B 6666   3.064   5.374   9.922 -0.1645  0.9099  0.7442
   57CHL1  H19C 6667   3.055   5.325   9.745 -2.8990  2.1765 -2.5469
   57CHL1    C1 6668   2.896   5.609   9.867 -0.5976  0.2008  0.1272
   57CHL1   H1A 6669   2.958   5.677   9.805 -0.4902 -0.6901 -0.7758
   57CHL1   H1B 6670   2.796   5.657   9.874 -0.8158 -0.4746  2.9422
   57CHL1    C2 6671   2.951   5.611  10.012 -0.5706  0.2023  0.4206
   57CHL1   H2A 6672   2.939   5.714  10.051  1.7277  0.4239  0.6474
   57CHL1   H2B 6673   3.059   5.588  10.016 -0.1715  0.5219 -3.8122
   57CHL1   C20 6674   2.858   5.374   9.113  0.4408  0.2841  0.3197
   57CHL1   H20 6675   2.928   5.288   9.105 -0.3446 -0.3046 -0.4839
   57CHL1   C21 6676   2.938   5.501   9.093  0.4277 -0.2747 -0.3099
   57CHL1  H21A 6677   2.880   5.592   9.124  1.8728  0.0881  1.5288
   57CHL1  H21B 6678   2.973   5.511   8.989  2.0366  3.3049  0.4256
   57CHL1  H21C 6679   3.033   5.485   9.148  0.9781 -0.3309 -1.2741
   57CHL1   C22 6680   2.767   5.342   8.993  0.4961  0.0115  1.2707
   57CHL1  H22A 6681   2.829   5.331   8.902  1.3351  3.2928  1.3216
   57CHL1  H22B 6682   2.721   5.242   9.004 -1.9319  0.8529 -0.2961
   57CHL1   C23 6683   2.665   5.454   8.969 -0.5362 -0.3181  0.0317
   57CHL1  H23A 6684   2.603   5.469   9.060  1.2434  0.1354  1.2211
   57CHL1  H23B 6685   2.727   5.544   8.949 -0.1026 -0.8428 -1.0506
   57CHL1   C24 6686   2.577   5.426   8.849 -0.1603 -0.6606 -0.0611
   57CHL1  H24A 6687   2.503   5.508   8.839 -0.2512 -0.4233  2.1733
   57CHL1  H24B 6688   2.641   5.430   8.758 -0.4355  0.4174 -0.2157
   57CHL1   C25 6689   2.504   5.290   8.851  0.2524 -0.2553 -0.6441
   57CHL1   H25 6690   2.583   5.212   8.858  0.4418 -0.1478 -1.4769
   57CHL1   C26 6691   2.399   5.276   8.968  1.0548  0.7806  0.5129
   57CHL1  H26A 6692   2.328   5.362   8.970  0.0804 -0.0176  0.6922
   57CHL1  H26B 6693   2.343   5.181   8.959  4.9482 -1.5940 -0.6767
   57CHL1  H26C 6694   2.450   5.281   9.067  0.9122 -1.5714  0.7520
   57CHL1   C27 6695   2.433   5.265   8.720  0.2222  0.7906  0.9251
   57CHL1  H27A 6696   2.350   5.339   8.719 -0.0579  0.4826  1.2883
   57CHL1  H27B 6697   2.500   5.266   8.631 -0.3698  1.9827  0.4716
   57CHL1  H27C 6698   2.385   5.165   8.713 -0.4777  1.2443 -2.4286
   58CHL1    C3 6699   0.032   2.211  10.219 -0.1241  0.1286  0.3496
   58CHL1    H3 6700  -0.070   2.254  10.225 -0.6924 -1.2374  0.7807
   58CHL1    O3 6701   0.095   2.222  10.347 -0.1780 -0.3375 -0.2708
   58CHL1   H3' 6702   0.189   2.209  10.335  0.1700 -0.0214  1.7237
   58CHL1    C4 6703   0.028   2.064  10.176 -0.3018 -0.0946  0.3461
   58CHL1   H4A 6704   0.129   2.018  10.176 -0.7710 -1.1671 -0.9636
   58CHL1   H4B 6705  -0.024   1.996  10.247  1.3966 -0.8720  0.8880
   58CHL1    C5 6706  -0.031   2.053  10.037 -0.1433 -0.3754  0.4373
   58CHL1    C6 6707  -0.135   1.972  10.000  0.9606 -1.3346 -0.4016
   58CHL1    H6 6708  -0.185   1.921  10.084  0.1555 -0.6703 -0.4662
   58CHL1    C7 6709  -0.167   1.939   9.853  0.2007  0.6065 -1.0163
   58CHL1   H7A 6710  -0.150   1.830   9.840  1.9794  0.7090  0.1834
   58CHL1   H7B 6711  -0.275   1.963   9.846 -0.2329 -1.5763 -3.7940
   58CHL1    C8 6712  -0.076   1.994   9.740 -0.3698  0.7151 -0.0779
   58CHL1    H8 6713   0.015   1.932   9.753 -1.1281  0.0692  3.2861
   58CHL1   C14 6714  -0.143   1.998   9.606 -0.2695 -1.3090  0.4580
   58CHL1   H14 6715  -0.229   2.067   9.613  1.0167  0.2444  1.8782
   58CHL1   C15 6716  -0.203   1.870   9.547 -0.4302 -0.5322 -0.0393
   58CHL1  H15A 6717  -0.133   1.784   9.547 -0.8815 -0.9905 -3.2719
   58CHL1  H15B 6718  -0.294   1.830   9.595 -1.6258  1.3764 -0.5887
   58CHL1   C16 6719  -0.229   1.904   9.402  0.2390  0.1574  0.3503
   58CHL1  H16A 6720  -0.199   1.810   9.350  1.2974  2.2571 -3.2295
   58CHL1  H16B 6721  -0.334   1.933   9.380  0.7350  0.7938 -1.3697
   58CHL1   C17 6722  -0.139   2.030   9.364 -0.4932  0.1861  0.3558
   58CHL1   H17 6723  -0.210   2.116   9.356  1.2615  2.1103  3.4690
   58CHL1   C13 6724  -0.058   2.057   9.494 -0.1593  0.2208  0.4001
   58CHL1   C18 6725   0.072   1.967   9.480 -0.4193  0.6501 -0.5713
   58CHL1  H18A 6726   0.132   1.965   9.573 -2.3079  0.0297  0.6874
   58CHL1  H18B 6727   0.039   1.866   9.446 -3.3449  2.0885 -2.4479
   58CHL1  H18C 6728   0.141   1.994   9.397 -1.4132  1.7582 -1.0713
   58CHL1   C12 6729  -0.021   2.202   9.532 -0.3215 -0.0321 -0.2126
   58CHL1  H12A 6730   0.049   2.242   9.457  2.0367 -1.4335  1.1036
   58CHL1  H12B 6731  -0.118   2.254   9.517  0.0538  0.4096 -1.1875
   58CHL1   C11 6732   0.033   2.211   9.672 -0.1313  0.1190 -0.3176
   58CHL1  H11A 6733   0.131   2.161   9.653 -0.4850 -0.6282 -0.2035
   58CHL1  H11B 6734   0.025   2.317   9.703  1.0448  0.7424 -1.9836
   58CHL1    C9 6735  -0.035   2.134   9.781  0.1150 -0.1351  0.2171
   58CHL1    H9 6736  -0.131   2.189   9.783  0.4949  0.8136 -2.7653
   58CHL1   C10 6737   0.037   2.142   9.923 -0.8377  0.5828  0.3750
   58CHL1   C19 6738   0.183   2.088   9.899 -0.2915  0.4222 -0.4881
   58CHL1  H19A 6739   0.231   2.090  10.000 -0.3322  1.9951 -0.4677
   58CHL1  H19B 6740   0.193   1.980   9.876 -0.7057 -0.7498  3.8522
   58CHL1  H19C 6741   0.249   2.160   9.846  0.2668  0.2487 -0.0355
   58CHL1    C1 6742   0.050   2.288   9.979 -0.3544  0.1669  0.1158
   58CHL1   H1A 6743   0.103   2.355   9.907  1.4738 -1.2436  0.0657
   58CHL1   H1B 6744  -0.056   2.316   9.998 -1.2077 -2.1599 -0.8886
   58CHL1    C2 6745   0.111   2.296  10.117 -0.1915 -0.3205  0.8008
   58CHL1   H2A 6746   0.107   2.400  10.155  0.6937  0.4358 -1.0727
   58CHL1   H2B 6747   0.219   2.269  10.120  1.0868  3.2037 -3.3846
   58CHL1   C20 6748  -0.074   2.009   9.229  0.2252 -0.4152 -0.0108
   58CHL1   H20 6749  -0.021   1.911   9.229 -0.3782 -0.7777 -2.0440
   58CHL1   C21 6750   0.022   2.126   9.197 -0.3773  0.0895  0.3297
   58CHL1  H21A 6751  -0.032   2.222   9.212 -1.7470 -0.4047 -1.0951
   58CHL1  H21B 6752   0.049   2.123   9.089 -2.2138  0.8120 -0.1913
   58CHL1  H21C 6753   0.113   2.137   9.259  0.2637  0.7975 -0.7226
   58CHL1   C22 6754  -0.179   2.002   9.114  0.6541 -0.2844  0.2095
   58CHL1  H22A 6755  -0.271   1.950   9.149  0.4386 -0.1905 -0.2094
   58CHL1  H22B 6756  -0.212   2.104   9.086 -3.6461 -1.2761  0.9067
   58CHL1   C23 6757  -0.135   1.934   8.981  0.5540 -0.0275 -0.2774
   58CHL1  H23A 6758  -0.043   1.989   8.952 -0.2259  4.1281  3.8988
   58CHL1  H23B 6759  -0.106   1.828   8.998  0.1328 -0.1113 -0.0687
   58CHL1   C24 6760  -0.234   1.953   8.865 -0.1944 -0.8497  0.1528
   58CHL1  H24A 6761  -0.327   1.906   8.902  0.6007 -2.6879 -0.0972
   58CHL1  H24B 6762  -0.242   2.063   8.848  0.0162 -0.8680 -0.0819
   58CHL1   C25 6763  -0.207   1.886   8.732 -0.7263  0.0866 -0.1895
   58CHL1   H25 6764  -0.102   1.911   8.707 -0.8638  2.2893  1.1607
   58CHL1   C26 6765  -0.222   1.731   8.733 -0.1499  0.0091 -0.4723
   58CHL1  H26A 6766  -0.183   1.689   8.638  0.6020  0.4755 -0.3805
   58CHL1  H26B 6767  -0.177   1.689   8.825 -0.8581 -3.1293 -1.4253
   58CHL1  H26C 6768  -0.330   1.705   8.740 -0.1785  0.3901  0.8942
   58CHL1   C27 6769  -0.300   1.950   8.627  0.2727 -0.1963 -0.5720
   58CHL1  H27A 6770  -0.307   2.061   8.635  0.8848 -0.1813 -0.2400
   58CHL1  H27B 6771  -0.260   1.922   8.527 -0.3665 -0.2587 -0.8197
   58CHL1  H27C 6772  -0.404   1.912   8.640  0.0778  0.3778 -0.3916
   59CHL1    C3 6773   3.637   2.343  10.433  0.0327  0.4351 -0.3305
   59CHL1    H3 6774   3.529   2.338  10.457  0.2877  0.8725  0.9753
   59CHL1    O3 6775   3.706   2.348  10.556 -0.0071 -0.1875 -1.0784
   59CHL1   H3' 6776   3.691   2.264  10.601 -0.3075  0.7123  0.5544
   59CHL1    C4 6777   3.680   2.203  10.360  0.4546  0.1053  0.0012
   59CHL1   H4A 6778   3.789   2.181  10.368  0.0606 -1.6469  1.1204
   59CHL1   H4B 6779   3.623   2.134  10.426 -0.7815  0.6328 -0.5021
   59CHL1    C5 6780   3.621   2.194  10.227 -0.5990  0.2618 -0.4510
   59CHL1    C6 6781   3.539   2.092  10.188  0.8057  0.1880 -0.5607
   59CHL1    H6 6782   3.517   2.010  10.257  0.4968  1.9595  1.5666
   59CHL1    C7 6783   3.487   2.078  10.048 -0.2045 -0.1570 -0.6038
   59CHL1   H7A 6784   3.495   1.975  10.008  0.0911 -0.8867  1.2304
   59CHL1   H7B 6785   3.380   2.109  10.043 -0.3955 -0.0950  2.2948
   59CHL1    C8 6786   3.550   2.174   9.948 -0.3919 -0.4444 -0.1328
   59CHL1    H8 6787   3.655   2.145   9.927 -0.5934  1.2183 -4.7687
   59CHL1   C14 6788   3.468   2.177   9.816 -0.0921  0.1917 -0.0160
   59CHL1   H14 6789   3.367   2.203   9.855  0.1951 -0.4871  1.2333
   59CHL1   C15 6790   3.439   2.041   9.747 -0.4729 -0.1695 -0.3744
   59CHL1  H15A 6791   3.517   1.962   9.751 -0.2831 -0.0561 -1.4668
   59CHL1  H15B 6792   3.353   1.993   9.799 -1.2068 -2.2424 -3.2373
   59CHL1   C16 6793   3.405   2.081   9.605 -0.0198  0.0973  0.2494
   59CHL1  H16A 6794   3.487   2.049   9.537  1.0028  1.8017  0.6140
   59CHL1  H16B 6795   3.310   2.035   9.571  1.0385 -2.2322  0.2622
   59CHL1   C17 6796   3.404   2.246   9.598 -0.7575 -0.0067 -0.6417
   59CHL1   H17 6797   3.305   2.276   9.637 -0.8749  0.0964 -1.0182
   59CHL1   C13 6798   3.508   2.279   9.710  0.3589 -0.1489  0.0506
   59CHL1   C18 6799   3.651   2.248   9.656 -0.2055  0.0948 -0.2996
   59CHL1  H18A 6800   3.717   2.228   9.743  0.7561 -3.3019 -1.6256
   59CHL1  H18B 6801   3.659   2.157   9.593  0.6162 -0.2710  0.3038
   59CHL1  H18C 6802   3.694   2.331   9.595  3.5852 -1.4895 -0.0724
   59CHL1   C12 6803   3.496   2.416   9.771  0.1529 -0.7036  0.6494
   59CHL1  H12A 6804   3.536   2.496   9.705 -0.4252 -0.4877  0.5567
   59CHL1  H12B 6805   3.392   2.444   9.797 -0.2432  0.7854 -2.1145
   59CHL1   C11 6806   3.581   2.425   9.899  0.3719 -0.8103 -0.2909
   59CHL1  H11A 6807   3.684   2.398   9.865  1.0082  0.7075  0.3090
   59CHL1  H11B 6808   3.574   2.529   9.937  1.8012 -1.2114  1.2012
   59CHL1    C9 6809   3.552   2.314  10.009  0.6319 -0.1558 -0.1153
   59CHL1    H9 6810   3.445   2.332  10.035  0.9152  1.8091 -0.1456
   59CHL1   C10 6811   3.640   2.314  10.131 -0.0963 -0.2830 -0.4058
   59CHL1   C19 6812   3.790   2.308  10.092 -0.8776 -0.0272  0.0753
   59CHL1  H19A 6813   3.822   2.214  10.042  0.2575  1.6544 -2.6073
   59CHL1  H19B 6814   3.814   2.387  10.017  2.2035 -0.9313  0.0044
   59CHL1  H19C 6815   3.856   2.336  10.176 -0.3905 -1.4953  0.2031
   59CHL1    C1 6816   3.625   2.450  10.202  0.0007 -0.2043 -0.3233
   59CHL1   H1A 6817   3.673   2.525  10.135  0.2128  0.3068  0.3875
   59CHL1   H1B 6818   3.519   2.482  10.204 -0.0251 -0.2955  1.5829
   59CHL1    C2 6819   3.680   2.463  10.345 -0.5146  0.1831 -0.5549
   59CHL1   H2A 6820   3.648   2.563  10.381 -0.2964 -0.1664  0.6487
   59CHL1   H2B 6821   3.790   2.471  10.353 -0.6696  2.7947 -0.1665
   59CHL1   C20 6822   3.426   2.300   9.456  0.7673 -0.3750  0.2883
   59CHL1   H20 6823   3.519   2.251   9.422  0.8533  0.0501 -0.0818
   59CHL1   C21 6824   3.434   2.454   9.458  0.6312  0.5296 -0.3494
   59CHL1  H21A 6825   3.438   2.497   9.356  1.5012  2.5545  0.4830
   59CHL1  H21B 6826   3.530   2.489   9.504  0.4136  1.1050 -0.3185
   59CHL1  H21C 6827   3.348   2.484   9.521 -0.9915 -2.5247 -0.9635
   59CHL1   C22 6828   3.325   2.252   9.352 -0.4365  0.2340  0.6059
   59CHL1  H22A 6829   3.318   2.141   9.349  0.6088  0.1419  1.0430
   59CHL1  H22B 6830   3.222   2.282   9.379 -0.2515  1.2501  0.2158
   59CHL1   C23 6831   3.366   2.301   9.210  0.1557  0.3815 -0.2331
   59CHL1  H23A 6832   3.325   2.403   9.192 -1.5957 -0.2936 -0.1893
   59CHL1  H23B 6833   3.477   2.298   9.198  0.2548 -0.0654  0.7579
   59CHL1   C24 6834   3.300   2.201   9.112 -0.3532 -0.1649  0.0799
   59CHL1  H24A 6835   3.356   2.106   9.113 -0.6970 -0.3823 -0.5715
   59CHL1  H24B 6836   3.194   2.181   9.140 -0.7830  1.8569  0.1268
   59CHL1   C25 6837   3.289   2.259   8.971 -0.1524 -0.3450  0.2697
   59CHL1   H25 6838   3.392   2.295   8.947 -0.1943 -0.0365  0.5438
   59CHL1   C26 6839   3.267   2.153   8.863 -0.3268  0.3464  0.4202
   59CHL1  H26A 6840   3.299   2.197   8.766  0.5222  2.9565  1.7801
   59CHL1  H26B 6841   3.337   2.067   8.870  0.1073  0.5652 -0.9470
   59CHL1  H26C 6842   3.168   2.103   8.869  0.2143 -0.7612  0.4439
   59CHL1   C27 6843   3.193   2.369   8.946  0.1923 -0.2220 -0.6159
   59CHL1  H27A 6844   3.215   2.411   8.845 -0.5793  0.0417 -0.6803
   59CHL1  H27B 6845   3.089   2.335   8.969  1.3324 -1.3685  3.8418
   59CHL1  H27C 6846   3.203   2.454   9.017 -1.5046  0.9743 -1.7385
   60CHL1    C3 6847   4.543   1.270  10.045  0.3320  0.1191 -0.9476
   60CHL1    H3 6848   4.550   1.159  10.047  1.3063  0.1239  2.3379
   60CHL1    O3 6849   4.575   1.308  10.177  0.0645  0.1463  0.0690
   60CHL1   H3' 6850   4.668   1.299  10.200  0.6877  2.2723 -1.2669
   60CHL1    C4 6851   4.667   1.309   9.964  0.0223 -0.1972 -0.0441
   60CHL1   H4A 6852   4.692   1.417   9.967  3.7610 -0.9433  0.6742
   60CHL1   H4B 6853   4.764   1.267   9.996  0.0840 -0.1038 -0.1073
   60CHL1    C5 6854   4.643   1.266   9.815 -0.3051  0.5420 -0.1365
   60CHL1    C6 6855   4.727   1.177   9.752 -0.2696  0.4118 -0.0010
   60CHL1    H6 6856   4.818   1.148   9.807 -0.1659  1.1170  0.2111
   60CHL1    C7 6857   4.716   1.144   9.604  0.4941 -0.1999 -0.1333
   60CHL1   H7A 6858   4.815   1.166   9.559  1.4302  1.4036  2.4476
   60CHL1   H7B 6859   4.683   1.039   9.586 -2.4819  0.4354  0.9689
   60CHL1    C8 6860   4.617   1.239   9.529  0.4791 -0.0144  0.1262
   60CHL1    H8 6861   4.664   1.338   9.512 -0.2185  0.4055  0.5617
   60CHL1   C14 6862   4.569   1.178   9.394 -0.5043 -0.0601 -0.0146
   60CHL1   H14 6863   4.510   1.091   9.430 -0.3778  0.5639  1.8070
   60CHL1   C15 6864   4.675   1.121   9.293  0.3533 -0.4485 -0.4710
   60CHL1  H15A 6865   4.755   1.198   9.293 -0.0660  0.0198  0.8903
   60CHL1  H15B 6866   4.718   1.024   9.325 -1.2843 -1.0971 -0.0976
   60CHL1   C16 6867   4.595   1.117   9.159  0.4950 -0.0281 -0.0839
   60CHL1  H16A 6868   4.660   1.177   9.092 -1.3820  1.4507 -0.6665
   60CHL1  H16B 6869   4.589   1.012   9.123  2.6133  0.5976 -2.5172
   60CHL1   C17 6870   4.453   1.177   9.189  0.1475  0.3709  0.2379
   60CHL1   H17 6871   4.396   1.089   9.226  0.4231 -0.0466 -0.3062
   60CHL1   C13 6872   4.471   1.267   9.313 -0.1639 -0.5049 -0.0390
   60CHL1   C18 6873   4.545   1.400   9.274  0.6690 -0.2799 -0.7592
   60CHL1  H18A 6874   4.497   1.469   9.201 -0.1309 -0.7090 -0.6486
   60CHL1  H18B 6875   4.562   1.463   9.364  0.9604 -0.5659 -0.6142
   60CHL1  H18C 6876   4.647   1.369   9.242  0.6290 -2.9008  1.3492
   60CHL1   C12 6877   4.345   1.296   9.402 -0.1350 -0.7265 -0.0434
   60CHL1  H12A 6878   4.295   1.382   9.353 -0.6920  0.2484  2.1218
   60CHL1  H12B 6879   4.271   1.213   9.395 -0.6525 -0.1358 -3.2433
   60CHL1   C11 6880   4.377   1.340   9.543 -0.1475  0.0133 -0.3299
   60CHL1  H11A 6881   4.416   1.443   9.528 -1.8805  0.5854 -1.1601
   60CHL1  H11B 6882   4.285   1.337   9.605  0.5068  1.4076  0.7980
   60CHL1    C9 6883   4.493   1.260   9.615 -0.3236 -0.2564 -0.2242
   60CHL1    H9 6884   4.456   1.156   9.626  3.0235 -1.5413 -0.0301
   60CHL1   C10 6885   4.518   1.318   9.756 -0.5774 -0.0685 -0.0455
   60CHL1   C19 6886   4.536   1.473   9.743  0.2261 -1.1171 -0.0930
   60CHL1  H19A 6887   4.580   1.511   9.837 -0.3881 -0.5820 -0.0172
   60CHL1  H19B 6888   4.609   1.507   9.666  0.5574 -1.7725 -0.0761
   60CHL1  H19C 6889   4.436   1.517   9.725  0.8749  0.0166 -1.1255
   60CHL1    C1 6890   4.396   1.297   9.847 -0.0359  0.3321  0.0666
   60CHL1   H1A 6891   4.303   1.353   9.822 -1.3242 -0.8022  2.0418
   60CHL1   H1B 6892   4.362   1.192   9.863 -1.2677  0.8359  0.8555
   60CHL1    C2 6893   4.421   1.337   9.994  0.4941  0.2211 -0.1242
   60CHL1   H2A 6894   4.327   1.314  10.050  0.7553  0.8941  0.6173
   60CHL1   H2B 6895   4.436   1.447   9.998 -0.2548  0.3473 -0.6483
   60CHL1   C20 6896   4.380   1.234   9.068  0.0851  0.0197 -0.4967
   60CHL1   H20 6897   4.449   1.307   9.021 -0.5333  1.7124  1.0842
   60CHL1   C21 6898   4.248   1.308   9.097  0.9764  0.2828 -0.0543
   60CHL1  H21A 6899   4.168   1.248   9.146 -1.1205  0.0552 -3.4117
   60CHL1  H21B 6900   4.204   1.357   9.007  0.4782 -1.1893 -0.6520
   60CHL1  H21C 6901   4.274   1.391   9.165 -1.3582  0.1251  1.1484
   60CHL1   C22 6902   4.373   1.119   8.967 -0.3448  0.0792 -0.2516
   60CHL1  H22A 6903   4.470   1.075   8.934 -0.5886  0.7586 -1.9519
   60CHL1  H22B 6904   4.328   1.030   9.016  0.2145  1.1016  2.2859
   60CHL1   C23 6905   4.279   1.149   8.848 -0.0913  0.1111  0.7124
   60CHL1  H23A 6906   4.179   1.184   8.883 -0.4177 -1.1334  1.0882
   60CHL1  H23B 6907   4.336   1.231   8.799 -1.2239  0.4945 -0.0026
   60CHL1   C24 6908   4.255   1.054   8.734 -0.1204  0.1903 -0.2765
   60CHL1  H24A 6909   4.348   1.003   8.701 -0.7511 -1.2494  0.1068
   60CHL1  H24B 6910   4.202   0.971   8.786 -2.6286  1.7818 -0.1136
   60CHL1   C25 6911   4.182   1.107   8.617  0.5883  0.6729  0.6283
   60CHL1   H25 6912   4.233   1.197   8.575 -0.8800 -0.3091 -3.8707
   60CHL1   C26 6913   4.176   1.012   8.501 -0.3780 -0.6267 -0.0523
   60CHL1  H26A 6914   4.113   1.058   8.422  0.3830 -0.6070 -0.6605
   60CHL1  H26B 6915   4.278   0.994   8.461 -0.7237 -0.8738 -0.8388
   60CHL1  H26C 6916   4.134   0.918   8.542  2.9986 -2.0592  0.4766
   60CHL1   C27 6917   4.040   1.162   8.660  0.6158  0.1269  0.1576
   60CHL1  H27A 6918   4.056   1.253   8.721 -1.0598  1.4097 -1.1948
   60CHL1  H27B 6919   3.976   1.204   8.580  0.5178  2.6895  1.4931
   60CHL1  H27C 6920   3.979   1.082   8.709 -1.9573  0.4226 -2.2381
   61CHL1    C3 6921   5.822   1.413  10.260 -0.1149 -0.7526 -0.0713
   61CHL1    H3 6922   5.747   1.495  10.254  0.8279  0.2028  0.7489
   61CHL1    O3 6923   5.849   1.386  10.402  0.7471  0.0202 -0.3949
   61CHL1   H3' 6924   5.899   1.460  10.438  0.4973  0.3883 -0.7790
   61CHL1    C4 6925   5.780   1.287  10.188  0.2479  0.3200  0.1602
   61CHL1   H4A 6926   5.844   1.197  10.205  0.5761  0.7516  1.2651
   61CHL1   H4B 6927   5.684   1.249  10.230  0.5301  0.2078  0.7159
   61CHL1    C5 6928   5.766   1.311  10.036 -0.4212  0.3861  0.1667
   61CHL1    C6 6929   5.655   1.271   9.971  0.1757 -0.1391  0.6635
   61CHL1    H6 6930   5.565   1.236  10.025 -1.0158  2.3799  0.4627
   61CHL1    C7 6931   5.637   1.286   9.821  0.2036  0.3496  0.0636
   61CHL1   H7A 6932   5.593   1.188   9.792  2.2696 -0.7206  0.3487
   61CHL1   H7B 6933   5.549   1.350   9.797 -0.8046 -1.0368 -0.1239
   61CHL1    C8 6934   5.762   1.323   9.743  0.4420  0.3588  0.5598
   61CHL1    H8 6935   5.819   1.228   9.730 -2.5793 -1.1396 -4.1235
   61CHL1   C14 6936   5.729   1.367   9.608  0.9973 -0.0733  0.4744
   61CHL1   H14 6937   5.690   1.471   9.619  0.0952 -0.3905  0.3668
   61CHL1   C15 6938   5.622   1.288   9.528  0.6409  0.7413  0.8157
   61CHL1  H15A 6939   5.636   1.179   9.542  0.9645  0.7109  0.2897
   61CHL1  H15B 6940   5.521   1.316   9.563  0.0549 -0.9085  0.5209
   61CHL1   C16 6941   5.650   1.322   9.378  0.3051  0.6268 -0.8241
   61CHL1  H16A 6942   5.660   1.232   9.315  1.9763  0.0194  0.2513
   61CHL1  H16B 6943   5.565   1.385   9.344 -0.3209  0.3109  0.0834
   61CHL1   C17 6944   5.775   1.411   9.386 -0.1334  0.2349  0.1696
   61CHL1   H17 6945   5.739   1.513   9.413 -2.7665 -0.9564  1.5987
   61CHL1   C13 6946   5.852   1.385   9.521 -0.8616 -0.1969  0.7184
   61CHL1   C18 6947   5.940   1.259   9.494  0.1497 -0.1430  0.2446
   61CHL1  H18A 6948   5.875   1.181   9.449 -0.3402 -0.6520  1.7673
   61CHL1  H18B 6949   6.029   1.274   9.430  0.1681  1.7296  0.6394
   61CHL1  H18C 6950   5.981   1.212   9.586 -1.1227 -0.6404  0.5829
   61CHL1   C12 6951   5.935   1.494   9.594  0.0867  0.2354 -0.6559
   61CHL1  H12A 6952   6.020   1.518   9.527 -0.6274  1.2980 -1.2085
   61CHL1  H12B 6953   5.874   1.587   9.594  1.8115  1.3968 -0.8612
   61CHL1   C11 6954   5.977   1.454   9.738 -0.1362  0.7111 -0.1728
   61CHL1  H11A 6955   6.037   1.362   9.724  1.2731  1.8301 -1.8879
   61CHL1  H11B 6956   6.042   1.528   9.789  0.6520 -0.8038  1.1319
   61CHL1    C9 6957   5.845   1.423   9.822 -0.3642  0.1954 -0.3282
   61CHL1    H9 6958   5.782   1.514   9.825 -2.1041 -0.9618 -0.5534
   61CHL1   C10 6959   5.883   1.381   9.970  0.8884 -0.3247  0.2447
   61CHL1   C19 6960   5.989   1.268   9.965 -0.8229  0.7114  0.5482
   61CHL1  H19A 6961   6.015   1.220  10.061  3.7094  0.2948 -0.6576
   61CHL1  H19B 6962   5.968   1.188   9.891  3.2193 -3.7545  3.6694
   61CHL1  H19C 6963   6.090   1.309   9.943 -0.1262 -1.0350  0.3740
   61CHL1    C1 6964   5.935   1.498  10.052 -0.0565 -0.5552  0.4902
   61CHL1   H1A 6965   6.034   1.535  10.017 -0.7218  0.3747 -0.4686
   61CHL1   H1B 6966   5.875   1.588  10.025 -0.9895 -1.0936  0.7269
   61CHL1    C2 6967   5.952   1.474  10.203  0.0956 -0.0796 -0.2854
   61CHL1   H2A 6968   5.977   1.572  10.247 -0.1081 -1.2553  2.6474
   61CHL1   H2B 6969   6.037   1.409  10.232 -0.0783  0.8273  2.4802
   61CHL1   C20 6970   5.851   1.409   9.246  0.3263  0.3248 -0.5492
   61CHL1   H20 6971   5.907   1.314   9.231 -1.1213 -0.7298  0.4550
   61CHL1   C21 6972   5.946   1.528   9.256  0.1476  0.3033  0.4045
   61CHL1  H21A 6973   5.996   1.534   9.157  1.7521 -0.8200  1.1011
   61CHL1  H21B 6974   6.032   1.497   9.318 -0.1452  0.7032  1.0211
   61CHL1  H21C 6975   5.901   1.627   9.280  0.2415  1.0711 -2.2672
   61CHL1   C22 6976   5.755   1.428   9.127 -0.0836  0.0741 -0.3037
   61CHL1  H22A 6977   5.662   1.369   9.139  0.2930 -0.6036 -0.6242
   61CHL1  H22B 6978   5.722   1.534   9.125 -2.0844 -0.3496  3.1581
   61CHL1   C23 6979   5.813   1.398   8.992  0.0229 -0.5353  0.1485
   61CHL1  H23A 6980   5.918   1.430   8.975  0.1238 -1.8680 -2.1185
   61CHL1  H23B 6981   5.817   1.288   9.003  0.0197 -0.3677  2.2039
   61CHL1   C24 6982   5.725   1.439   8.865 -0.0175 -0.1110 -0.0852
   61CHL1  H24A 6983   5.627   1.386   8.863  0.1839 -0.4685 -0.5518
   61CHL1  H24B 6984   5.697   1.545   8.880 -1.8663 -0.7275  1.2870
   61CHL1   C25 6985   5.785   1.408   8.730  0.3367  0.1148  0.0497
   61CHL1   H25 6986   5.890   1.444   8.741  0.9409 -1.7052  0.7194
   61CHL1   C26 6987   5.772   1.260   8.706  0.2954  0.0786 -0.4369
   61CHL1  H26A 6988   5.824   1.225   8.615  0.9624 -0.9007  0.2973
   61CHL1  H26B 6989   5.826   1.213   8.791  0.2346  0.6411 -0.0868
   61CHL1  H26C 6990   5.666   1.225   8.716  0.2075  0.4839  0.0617
   61CHL1   C27 6991   5.725   1.492   8.617 -0.1129  0.4564  0.1263
   61CHL1  H27A 6992   5.751   1.599   8.629 -2.5930  0.9851  1.3483
   61CHL1  H27B 6993   5.744   1.460   8.512 -1.1305 -0.2433  0.1375
   61CHL1  H27C 6994   5.614   1.495   8.622 -0.0772  0.9133  0.6818
   62CHL1    C3 6995   4.166   4.591   9.972  0.2281 -0.1929 -0.2234
   62CHL1    H3 6996   4.130   4.486   9.968 -0.7585  0.1192  0.1370
   62CHL1    O3 6997   4.196   4.629  10.106 -0.8357  0.2812 -0.3356
   62CHL1   H3' 6998   4.115   4.665  10.143  0.8826  4.1402  0.1919
   62CHL1    C4 6999   4.293   4.605   9.886 -0.6123 -0.1527  0.5708
   62CHL1   H4A 7000   4.326   4.711   9.894 -0.5184 -0.1175 -0.2316
   62CHL1   H4B 7001   4.381   4.547   9.921 -1.0660 -0.7456  0.7258
   62CHL1    C5 7002   4.276   4.583   9.738  0.1374 -0.5842 -0.4267
   62CHL1    C6 7003   4.339   4.491   9.661  0.2301  0.1535  0.0791
   62CHL1    H6 7004   4.392   4.413   9.717 -0.8394 -0.6170  0.0559
   62CHL1    C7 7005   4.313   4.482   9.512  0.3099  0.0964  0.9947
   62CHL1   H7A 7006   4.409   4.465   9.458 -0.9112 -2.2387 -0.5987
   62CHL1   H7B 7007   4.252   4.392   9.490  0.1927  0.9364 -2.6260
   62CHL1    C8 7008   4.251   4.601   9.439  0.5395 -0.4895 -0.8381
   62CHL1    H8 7009   4.339   4.669   9.433  0.9180 -1.0920 -4.6995
   62CHL1   C14 7010   4.210   4.562   9.302  0.9911 -0.6934 -0.6048
   62CHL1   H14 7011   4.133   4.483   9.302 -1.3251  1.4338  0.2254
   62CHL1   C15 7012   4.317   4.509   9.210  0.0632  0.6707  0.3678
   62CHL1  H15A 7013   4.408   4.570   9.230  1.4876 -0.6656 -1.6792
   62CHL1  H15B 7014   4.336   4.405   9.244 -1.0712  0.9158  1.9126
   62CHL1   C16 7015   4.259   4.527   9.068  0.7876 -0.2903 -0.3191
   62CHL1  H16A 7016   4.330   4.594   9.015 -0.3003  1.0426 -0.1430
   62CHL1  H16B 7017   4.250   4.423   9.028  3.0682 -1.4651  1.9211
   62CHL1   C17 7018   4.112   4.597   9.086 -0.2448 -0.0217 -0.2310
   62CHL1   H17 7019   4.040   4.515   9.105  1.5167 -2.0117 -1.6157
   62CHL1   C13 7020   4.130   4.667   9.223 -0.0597 -0.4313 -1.0227
   62CHL1   C18 7021   4.219   4.797   9.203 -0.0298  0.6436 -0.9038
   62CHL1  H18A 7022   4.236   4.860   9.292 -0.7280  1.2652 -1.2033
   62CHL1  H18B 7023   4.323   4.764   9.183  0.9912  2.1303  1.4840
   62CHL1  H18C 7024   4.190   4.863   9.119 -1.9824 -0.7526 -1.3810
   62CHL1   C12 7025   4.002   4.705   9.310 -0.5267 -0.0114 -0.5502
   62CHL1  H12A 7026   3.956   4.791   9.256 -0.1700 -0.5528 -1.7608
   62CHL1  H12B 7027   3.946   4.610   9.322  1.5717 -1.1647  0.6640
   62CHL1   C11 7028   4.039   4.755   9.445  0.2742  0.4058 -0.3165
   62CHL1  H11A 7029   4.099   4.848   9.442  1.8538 -0.3493  2.8884
   62CHL1  H11B 7030   3.943   4.778   9.497  1.5973  1.3444  1.8417
   62CHL1    C9 7031   4.130   4.650   9.523  0.7563 -0.5228  0.5495
   62CHL1    H9 7032   4.057   4.566   9.525 -0.3661  0.3190 -1.7773
   62CHL1   C10 7033   4.164   4.681   9.677 -0.0490  0.6354  1.0023
   62CHL1   C19 7034   4.214   4.822   9.680  0.2983  0.7302 -0.3732
   62CHL1  H19A 7035   4.298   4.822   9.607 -0.0634  0.8998 -0.7956
   62CHL1  H19B 7036   4.133   4.893   9.653 -0.4848  0.8210  2.0139
   62CHL1  H19C 7037   4.245   4.851   9.783  0.5928  1.1044 -0.5634
   62CHL1    C1 7038   4.031   4.670   9.754  0.7270  0.6692 -0.3309
   62CHL1   H1A 7039   3.950   4.746   9.744  0.0163  0.2801  1.8682
   62CHL1   H1B 7040   3.983   4.572   9.732 -1.7751  2.3402 -3.2134
   62CHL1    C2 7041   4.056   4.684   9.914 -0.4560  0.5202 -0.0475
   62CHL1   H2A 7042   3.958   4.672   9.965 -0.6414 -1.0331 -0.7065
   62CHL1   H2B 7043   4.094   4.786   9.936 -0.1436  0.2220  0.8505
   62CHL1   C20 7044   4.059   4.667   8.961 -0.1635 -0.6710  0.2945
   62CHL1   H20 7045   4.099   4.770   8.958  1.2269 -1.1071 -4.0956
   62CHL1   C21 7046   3.901   4.672   8.994 -0.6111 -0.3226 -0.3165
   62CHL1  H21A 7047   3.882   4.701   9.099 -0.7917 -1.5062 -0.0065
   62CHL1  H21B 7048   3.857   4.570   8.992  0.7960 -0.9531 -1.2721
   62CHL1  H21C 7049   3.844   4.738   8.925  0.5272  1.9960  0.8571
   62CHL1   C22 7050   4.090   4.605   8.826  0.2746  0.1989 -0.2150
   62CHL1  H22A 7051   4.199   4.583   8.816  0.4087 -1.2053  3.1563
   62CHL1  H22B 7052   4.037   4.509   8.809  0.5705  0.2401 -1.4686
   62CHL1   C23 7053   4.046   4.694   8.712  0.3228 -0.0484 -0.1034
   62CHL1  H23A 7054   3.949   4.740   8.740  0.9087  0.5930  0.9453
   62CHL1  H23B 7055   4.114   4.780   8.694  0.5153 -0.1636  0.0690
   62CHL1   C24 7056   4.043   4.631   8.576  0.4138  0.1152  0.1502
   62CHL1  H24A 7057   3.976   4.542   8.581  1.9384 -1.0495  0.6185
   62CHL1  H24B 7058   4.013   4.704   8.498 -0.4682 -0.8151 -0.4190
   62CHL1   C25 7059   4.182   4.582   8.526 -0.8338  0.3296  0.3150
   62CHL1   H25 7060   4.223   4.505   8.595 -0.3544  1.2098  1.0407
   62CHL1   C26 7061   4.169   4.521   8.378 -0.4002  0.2886 -0.2178
   62CHL1  H26A 7062   4.090   4.444   8.375 -0.6846  0.5362  0.6842
   62CHL1  H26B 7063   4.131   4.608   8.319 -0.1870  2.1334  2.1936
   62CHL1  H26C 7064   4.266   4.488   8.334 -0.4665 -0.5230  0.2306
   62CHL1   C27 7065   4.288   4.689   8.513 -0.0526 -1.1215  1.2781
   62CHL1  H27A 7066   4.252   4.766   8.442 -0.0780 -1.8584  0.4795
   62CHL1  H27B 7067   4.324   4.728   8.611 -1.7027 -2.1991  2.3710
   62CHL1  H27C 7068   4.378   4.644   8.465  0.1586 -1.3659  1.8937
   63CHL1    C3 7069   3.869   1.366  10.356  0.1614  0.4313 -0.6932
   63CHL1    H3 7070   3.787   1.434  10.327 -1.5633 -1.1411  0.2860
   63CHL1    O3 7071   3.879   1.362  10.495 -0.4319 -0.1513 -0.3845
   63CHL1   H3' 7072   3.954   1.303  10.510  0.7116  1.3893  0.3377
   63CHL1    C4 7073   3.851   1.219  10.311 -0.1431 -0.3334 -0.4323
   63CHL1   H4A 7074   3.944   1.162  10.334 -0.9931 -1.2537  0.8198
   63CHL1   H4B 7075   3.773   1.170  10.373 -0.6991 -0.4368 -1.2066
   63CHL1    C5 7076   3.826   1.227  10.164  1.0743  0.1501 -0.1654
   63CHL1    C6 7077   3.706   1.190  10.116  0.3811  0.1132  0.2222
   63CHL1    H6 7078   3.632   1.157  10.190  2.1612  0.2937  2.1758
   63CHL1    C7 7079   3.677   1.197   9.968 -0.3488  0.0870 -0.3822
   63CHL1   H7A 7080   3.627   1.107   9.924 -1.8631  1.2711 -1.2089
   63CHL1   H7B 7081   3.599   1.276   9.956 -1.8827 -1.2184  0.5562
   63CHL1    C8 7082   3.800   1.210   9.873  0.2806  0.1276  0.7575
   63CHL1    H8 7083   3.846   1.111   9.859  0.1397  0.1440  0.1719
   63CHL1   C14 7084   3.748   1.268   9.739 -0.3021  0.5411 -0.0207
   63CHL1   H14 7085   3.703   1.367   9.762 -0.5389  0.3174  0.4967
   63CHL1   C15 7086   3.654   1.173   9.660 -0.2455  0.6705  0.7208
   63CHL1  H15A 7087   3.695   1.071   9.677  0.0265  0.7285  0.4194
   63CHL1  H15B 7088   3.548   1.165   9.694  0.0233 -1.3625  1.2004
   63CHL1   C16 7089   3.669   1.219   9.516 -0.3492  0.9763 -0.6605
   63CHL1  H16A 7090   3.693   1.123   9.465  1.2691  0.7060  0.5434
   63CHL1  H16B 7091   3.577   1.264   9.473 -1.8983  0.0440  1.4909
   63CHL1   C17 7092   3.793   1.315   9.503  0.0548  0.0817  0.6199
   63CHL1   H17 7093   3.759   1.421   9.511 -0.7961 -0.2830  2.3145
   63CHL1   C13 7094   3.866   1.287   9.635 -0.1385  0.2163 -0.2637
   63CHL1   C18 7095   3.944   1.154   9.603 -0.2773 -0.0617  0.1931
   63CHL1  H18A 7096   3.891   1.091   9.528  0.4068 -1.6467  0.9733
   63CHL1  H18B 7097   4.040   1.177   9.551 -0.4198 -1.4330 -0.7414
   63CHL1  H18C 7098   3.964   1.090   9.692 -0.4161 -2.2048 -1.2362
   63CHL1   C12 7099   3.967   1.391   9.696  0.5465 -0.1681 -0.2333
   63CHL1  H12A 7100   4.048   1.408   9.622 -0.8699  0.5471 -1.6618
   63CHL1  H12B 7101   3.914   1.488   9.703 -0.1455 -0.4591 -1.1769
   63CHL1   C11 7102   4.011   1.359   9.837 -0.2212  0.9454  0.2047
   63CHL1  H11A 7103   4.074   1.269   9.819 -0.1336  0.7871  1.2607
   63CHL1  H11B 7104   4.073   1.445   9.871  1.0326  0.8371 -1.6795
   63CHL1    C9 7105   3.897   1.308   9.935  0.5020  0.7876 -0.5233
   63CHL1    H9 7106   3.825   1.393   9.944  0.7146  0.9714 -0.5272
   63CHL1   C10 7107   3.940   1.283  10.084  0.3619 -0.2640  0.5356
   63CHL1   C19 7108   4.048   1.179  10.096 -0.2538 -0.4373  0.5576
   63CHL1  H19A 7109   4.023   1.080  10.052  2.5582 -1.3812  0.9127
   63CHL1  H19B 7110   4.132   1.220  10.038 -0.0191 -0.7232  0.6937
   63CHL1  H19C 7111   4.093   1.160  10.196  0.7259  0.0467  0.2146
   63CHL1    C1 7112   3.989   1.417  10.147 -0.0508  0.2976 -0.5435
   63CHL1   H1A 7113   4.085   1.448  10.100  0.2367  0.4491  0.1315
   63CHL1   H1B 7114   3.913   1.492  10.116 -1.1429 -0.9713 -1.0392
   63CHL1    C2 7115   3.992   1.432  10.303 -0.0910  0.0765 -0.0067
   63CHL1   H2A 7116   3.994   1.539  10.333 -2.5677 -0.1031  1.0065
   63CHL1   H2B 7117   4.080   1.374  10.339 -0.3085  0.0166  0.4277
   63CHL1   C20 7118   3.852   1.322   9.357 -0.4077 -0.2765 -0.3088
   63CHL1   H20 7119   3.892   1.219   9.342 -1.2322 -1.1627  2.8119
   63CHL1   C21 7120   3.975   1.414   9.343  0.3724 -0.4946 -0.8614
   63CHL1  H21A 7121   4.056   1.385   9.414  0.3323 -0.8158 -0.9411
   63CHL1  H21B 7122   3.935   1.515   9.364  0.7988 -0.2733 -1.0856
   63CHL1  H21C 7123   4.020   1.414   9.241  1.1597  1.5288 -0.5548
   63CHL1   C22 7124   3.742   1.332   9.245 -0.3531 -0.2333 -0.4551
   63CHL1  H22A 7125   3.660   1.259   9.261 -1.0668  0.6178 -0.1768
   63CHL1  H22B 7126   3.701   1.434   9.262 -1.9861 -1.1099  1.1839
   63CHL1   C23 7127   3.791   1.317   9.102 -0.0891 -0.1008  0.5730
   63CHL1  H23A 7128   3.850   1.404   9.065  0.1010  0.6999  2.6363
   63CHL1  H23B 7129   3.863   1.233   9.098 -0.6278 -0.5195 -1.5674
   63CHL1   C24 7130   3.676   1.270   9.014  0.5585  0.3993  0.8931
   63CHL1  H24A 7131   3.645   1.169   9.047 -1.1101  0.9063  0.9520
   63CHL1  H24B 7132   3.595   1.345   9.028 -0.3366 -0.1312 -1.1432
   63CHL1   C25 7133   3.719   1.251   8.865  0.2620  0.3191 -0.5427
   63CHL1   H25 7134   3.816   1.197   8.867  1.1082  1.7859  1.5981
   63CHL1   C26 7135   3.618   1.163   8.786 -0.1182 -0.2201 -0.0761
   63CHL1  H26A 7136   3.666   1.099   8.708  0.5009 -0.1565  0.2484
   63CHL1  H26B 7137   3.557   1.093   8.847 -1.7099  0.8758 -0.3605
   63CHL1  H26C 7138   3.535   1.222   8.742 -0.0269 -1.0451 -1.4304
   63CHL1   C27 7139   3.730   1.381   8.785 -0.8524 -0.3466  0.2289
   63CHL1  H27A 7140   3.634   1.437   8.783 -1.5782 -1.5600 -0.1500
   63CHL1  H27B 7141   3.816   1.440   8.823  0.0942  0.3194 -2.6909
   63CHL1  H27C 7142   3.767   1.373   8.681 -0.6689  2.9035 -0.0477
   64CHL1    C3 7143   3.599   6.644  10.105 -0.1491  0.2217 -0.0465
   64CHL1    H3 7144   3.531   6.556  10.102  0.2128 -0.1067  1.0965
   64CHL1    O3 7145   3.633   6.671  10.235 -0.0616  0.3306  0.2148
   64CHL1   H3' 7146   3.678   6.596  10.276  3.1823  2.5725  1.1546
   64CHL1    C4 7147   3.730   6.620  10.023 -0.3846  0.4335 -1.0304
   64CHL1   H4A 7148   3.799   6.708  10.032  1.4962 -0.8876 -1.8073
   64CHL1   H4B 7149   3.775   6.531  10.070  0.8141  0.6449 -1.7032
   64CHL1    C5 7150   3.692   6.587   9.879  0.0414  0.8258  0.2232
   64CHL1    C6 7151   3.719   6.470   9.821 -1.1616  0.0171  0.2206
   64CHL1    H6 7152   3.768   6.397   9.887  0.7618  1.2892  0.3224
   64CHL1    C7 7153   3.688   6.436   9.680 -0.0665 -0.4166 -0.1250
   64CHL1   H7A 7154   3.769   6.377   9.633  1.2036  0.5367  0.8029
   64CHL1   H7B 7155   3.600   6.368   9.677 -0.8837  0.6380 -1.4222
   64CHL1    C8 7156   3.655   6.568   9.604 -0.6817  0.3363  0.6514
   64CHL1    H8 7157   3.751   6.618   9.579 -0.9708  0.7438  0.3274
   64CHL1   C14 7158   3.584   6.531   9.474 -0.6808 -0.5141  0.2389
   64CHL1   H14 7159   3.484   6.494   9.504 -0.9022 -0.0207  0.1073
   64CHL1   C15 7160   3.649   6.409   9.393 -0.2361  0.0132 -0.0653
   64CHL1  H15A 7161   3.760   6.411   9.399 -0.1761 -0.2568 -0.9772
   64CHL1  H15B 7162   3.606   6.317   9.437 -1.5734  0.9331  0.5932
   64CHL1   C16 7163   3.598   6.425   9.253  0.8267 -0.4111 -0.1457
   64CHL1  H16A 7164   3.683   6.424   9.180  1.6512 -2.2688  0.7766
   64CHL1  H16B 7165   3.519   6.353   9.222 -1.4951  1.4032  1.2484
   64CHL1   C17 7166   3.514   6.556   9.247  0.0087 -0.0227  0.1365
   64CHL1   H17 7167   3.409   6.527   9.273 -0.3306  1.2062  0.2074
   64CHL1   C13 7168   3.565   6.641   9.370  0.0921  0.2144  0.0670
   64CHL1   C18 7169   3.696   6.711   9.327  0.5812 -0.5797  0.0396
   64CHL1  H18A 7170   3.680   6.809   9.276 -0.6797 -0.8542 -0.0980
   64CHL1  H18B 7171   3.750   6.739   9.420  1.5417  0.0585 -0.6813
   64CHL1  H18C 7172   3.760   6.653   9.258  0.3987  1.6948 -2.1995
   64CHL1   C12 7173   3.479   6.749   9.434  0.5576  0.2885 -0.2883
   64CHL1  H12A 7174   3.485   6.837   9.366  2.3467  1.1358  0.8811
   64CHL1  H12B 7175   3.375   6.710   9.432 -0.1337  1.7985  2.3239
   64CHL1   C11 7176   3.528   6.792   9.577 -0.4428 -1.0626  0.1123
   64CHL1  H11A 7177   3.616   6.858   9.563 -2.2270  1.5290  0.3878
   64CHL1  H11B 7178   3.442   6.849   9.620 -0.1412 -0.6122  0.1259
   64CHL1    C9 7179   3.569   6.671   9.670  0.2112  0.3958  0.5072
   64CHL1    H9 7180   3.474   6.622   9.698 -0.5858  2.3078  1.3184
   64CHL1   C10 7181   3.619   6.705   9.809  1.0279  0.5305 -0.3118
   64CHL1   C19 7182   3.713   6.827   9.801 -0.4738 -0.3396  0.3067
   64CHL1  H19A 7183   3.670   6.921   9.760  0.4851  0.0830  0.2561
   64CHL1  H19B 7184   3.746   6.849   9.905 -1.6216 -1.4588  0.9421
   64CHL1  H19C 7185   3.795   6.797   9.733 -0.7541  0.0489 -0.2098
   64CHL1    C1 7186   3.496   6.741   9.901 -0.7619  0.1138  0.1607
   64CHL1   H1A 7187   3.444   6.825   9.850 -0.5820 -0.7267 -1.4828
   64CHL1   H1B 7188   3.420   6.660   9.899 -2.1241  1.3082 -2.7287
   64CHL1    C2 7189   3.533   6.766  10.047 -0.0161 -0.9074 -0.5407
   64CHL1   H2A 7190   3.436   6.789  10.095  0.6726 -0.6611  0.8055
   64CHL1   H2B 7191   3.600   6.855  10.058 -0.2849 -0.5541 -1.6550
   64CHL1   C20 7192   3.498   6.629   9.111  0.9596 -0.6914 -0.3648
   64CHL1   H20 7193   3.592   6.687   9.103  1.9070 -2.1089  0.0395
   64CHL1   C21 7194   3.360   6.714   9.112  0.1601  0.6583  0.6262
   64CHL1  H21A 7195   3.347   6.752   9.009 -0.0509 -3.3535 -1.0009
   64CHL1  H21B 7196   3.371   6.791   9.192 -0.1374 -0.5417  1.8515
   64CHL1  H21C 7197   3.269   6.658   9.140 -0.2715  0.6727 -0.7052
   64CHL1   C22 7198   3.501   6.531   8.991  0.3458 -0.4934  0.4342
   64CHL1  H22A 7199   3.497   6.597   8.903 -1.0843  0.0287  0.8617
   64CHL1  H22B 7200   3.598   6.475   8.987 -0.2269 -1.4168 -1.2443
   64CHL1   C23 7201   3.377   6.437   8.968  0.0300 -0.0573 -0.6058
   64CHL1  H23A 7202   3.348   6.405   9.071  0.0666 -0.9819 -0.8738
   64CHL1  H23B 7203   3.287   6.484   8.922  0.0932  0.9176  0.2322
   64CHL1   C24 7204   3.419   6.313   8.888  1.3423  0.3827 -0.2587
   64CHL1  H24A 7205   3.449   6.341   8.785 -1.6431  0.0527 -1.3379
   64CHL1  H24B 7206   3.501   6.268   8.948  0.1865 -1.4061  0.0900
   64CHL1   C25 7207   3.295   6.214   8.861 -0.8952  0.4679  0.1542
   64CHL1   H25 7208   3.211   6.279   8.830 -0.8271  0.8653  0.8004
   64CHL1   C26 7209   3.334   6.115   8.750 -0.4315  0.8185  0.0099
   64CHL1  H26A 7210   3.426   6.062   8.781 -0.4299  0.3453 -0.7634
   64CHL1  H26B 7211   3.250   6.046   8.726 -0.3672  0.6959  0.1381
   64CHL1  H26C 7212   3.364   6.163   8.655  2.1526  1.3312  1.0163
   64CHL1   C27 7213   3.274   6.144   8.996 -0.2221  0.3988  0.0635
   64CHL1  H27A 7214   3.211   6.054   8.981  0.5784 -0.3697  1.1820
   64CHL1  H27B 7215   3.374   6.103   9.023 -0.7750 -0.7293  0.4396
   64CHL1  H27C 7216   3.250   6.222   9.071  1.9220  0.8024  0.3946
   65CHL1    C3 7217   5.501   2.871  10.393  0.0620 -0.0597 -0.0385
   65CHL1    H3 7218   5.405   2.821  10.416  1.6214 -2.4313  1.7519
   65CHL1    O3 7219   5.582   2.874  10.504 -0.2707  0.0110 -0.2245
   65CHL1   H3' 7220   5.666   2.834  10.480 -0.0396  1.0966 -1.3103
   65CHL1    C4 7221   5.576   2.791  10.283  0.3501  0.5894  0.6798
   65CHL1   H4A 7222   5.677   2.837  10.273  0.4733 -0.0608 -1.5450
   65CHL1   H4B 7223   5.588   2.688  10.323  0.6789  0.8064  1.1486
   65CHL1    C5 7224   5.498   2.797  10.152  0.3109 -0.3119 -0.0762
   65CHL1    C6 7225   5.453   2.688  10.090  0.0944 -0.2509  0.5113
   65CHL1    H6 7226   5.464   2.588  10.134 -0.5247 -0.7708 -0.5034
   65CHL1    C7 7227   5.398   2.687   9.959  0.1547 -0.4610 -0.4101
   65CHL1   H7A 7228   5.457   2.615   9.898  1.3496  0.4769 -0.4057
   65CHL1   H7B 7229   5.293   2.656   9.972  0.2859 -1.8728 -2.1934
   65CHL1    C8 7230   5.408   2.821   9.887 -0.9216 -0.5088 -1.3525
   65CHL1    H8 7231   5.514   2.831   9.853 -0.0740 -0.0426  1.2038
   65CHL1   C14 7232   5.308   2.813   9.765 -0.0531 -0.3357 -0.0884
   65CHL1   H14 7233   5.212   2.806   9.820 -0.9933  0.0081 -1.6385
   65CHL1   C15 7234   5.317   2.704   9.660  0.1795  0.1318 -1.4092
   65CHL1  H15A 7235   5.420   2.669   9.637  1.1373  1.3545  0.6724
   65CHL1  H15B 7236   5.268   2.607   9.683 -0.3398  0.9209  1.1208
   65CHL1   C16 7237   5.255   2.753   9.530  0.3911  0.3163  0.2935
   65CHL1  H16A 7238   5.329   2.760   9.447 -0.1816  1.6639 -0.1434
   65CHL1  H16B 7239   5.169   2.693   9.493  0.9410 -1.2347  1.4388
   65CHL1   C17 7240   5.216   2.901   9.564 -0.6397 -0.1573 -0.3878
   65CHL1   H17 7241   5.112   2.894   9.601  0.3265 -3.3209  2.1720
   65CHL1   C13 7242   5.307   2.937   9.684 -0.6379 -0.6395  0.0265
   65CHL1   C18 7243   5.454   2.977   9.633  0.4325  0.9265 -0.0072
   65CHL1  H18A 7244   5.532   2.986   9.712  0.4466 -2.3898  0.5081
   65CHL1  H18B 7245   5.499   2.911   9.556  0.4505  0.9967 -0.0577
   65CHL1  H18C 7246   5.454   3.079   9.588 -0.4349  0.8304 -0.2326
   65CHL1   C12 7247   5.261   3.046   9.779 -0.1843  0.1550 -0.3395
   65CHL1  H12A 7248   5.250   3.146   9.732  1.0354  0.1009 -0.7650
   65CHL1  H12B 7249   5.160   3.027   9.822  0.5904  2.0098  2.5620
   65CHL1   C11 7250   5.349   3.065   9.904 -0.3586  0.2085 -0.2306
   65CHL1  H11A 7251   5.441   3.117   9.868 -0.3843  0.2647 -0.2153
   65CHL1  H11B 7252   5.305   3.145   9.968  1.0377 -0.4142  1.6236
   65CHL1    C9 7253   5.371   2.930   9.976  0.1664  0.1093 -1.2558
   65CHL1    H9 7254   5.270   2.900  10.011 -0.3400 -1.9629 -4.1198
   65CHL1   C10 7255   5.463   2.940  10.100 -0.3590 -0.5853 -0.7284
   65CHL1   C19 7256   5.588   3.026  10.060 -0.2620 -0.1560 -0.9630
   65CHL1  H19A 7257   5.660   3.030  10.143 -1.3236 -1.9391  0.0990
   65CHL1  H19B 7258   5.636   2.983   9.969  1.1695 -0.9533  0.1343
   65CHL1  H19C 7259   5.560   3.133  10.046 -0.5289 -0.1670 -0.5263
   65CHL1    C1 7260   5.394   3.012  10.212 -0.3191  0.5155  0.0292
   65CHL1   H1A 7261   5.371   3.117  10.185 -0.6428  0.3344 -0.4167
   65CHL1   H1B 7262   5.294   2.965  10.221  0.0175  0.0275  1.4837
   65CHL1    C2 7263   5.467   3.015  10.344  0.6968  0.6715 -0.7751
   65CHL1   H2A 7264   5.397   3.065  10.414 -0.6298  0.8148 -2.1463
   65CHL1   H2B 7265   5.556   3.080  10.332  0.5853  0.9226 -0.2907
   65CHL1   C20 7266   5.214   2.998   9.448  0.2749 -0.5179  0.1766
   65CHL1   H20 7267   5.318   2.996   9.409  0.8880  0.1604  1.6774
   65CHL1   C21 7268   5.165   3.137   9.488  0.3139 -0.6498 -0.8163
   65CHL1  H21A 7269   5.125   3.200   9.405 -1.9457  1.2427  1.5040
   65CHL1  H21B 7270   5.246   3.202   9.527 -1.5371 -0.0376  2.4121
   65CHL1  H21C 7271   5.084   3.125   9.563 -1.2345 -2.2408 -2.6311
   65CHL1   C22 7272   5.118   2.955   9.336  0.0634  0.2053  0.5463
   65CHL1  H22A 7273   5.113   2.845   9.326  3.3970  0.0069 -0.1522
   65CHL1  H22B 7274   5.020   2.990   9.377 -0.4568  0.2275 -0.6697
   65CHL1   C23 7275   5.141   3.016   9.194  0.6425  0.0244  0.0100
   65CHL1  H23A 7276   5.175   3.120   9.213  0.8984  0.0422 -0.5096
   65CHL1  H23B 7277   5.227   2.965   9.147 -1.0805 -1.8306 -1.2952
   65CHL1   C24 7278   5.022   3.002   9.094  0.8645  0.0564 -0.1271
   65CHL1  H24A 7279   4.936   3.062   9.128 -1.8005 -2.4152 -2.0602
   65CHL1  H24B 7280   5.072   3.046   9.005 -0.0419 -0.1753 -0.7534
   65CHL1   C25 7281   4.985   2.863   9.065  0.1349  0.1365 -0.1541
   65CHL1   H25 7282   4.956   2.812   9.160  2.0694 -1.4743 -0.3526
   65CHL1   C26 7283   4.862   2.856   8.977 -0.2924  0.1467 -0.5310
   65CHL1  H26A 7284   4.820   2.756   8.954 -0.9051 -1.0380  4.5169
   65CHL1  H26B 7285   4.776   2.889   9.039 -1.5566 -1.5883 -1.2889
   65CHL1  H26C 7286   4.856   2.917   8.884 -0.1759 -0.6148 -1.0534
   65CHL1   C27 7287   5.102   2.780   9.005 -0.3992  0.3906  0.4936
   65CHL1  H27A 7288   5.072   2.674   8.993 -0.4253  0.5362 -0.7831
   65CHL1  H27B 7289   5.143   2.816   8.909 -1.5805 -2.2075 -1.1084
   65CHL1  H27C 7290   5.193   2.774   9.068  0.8059  0.5529 -1.1908
   66CHL1    C3 7291   3.046   1.852  10.442 -0.1619  0.2293 -0.5648
   66CHL1    H3 7292   3.146   1.901  10.444 -0.3895  0.6919 -0.4085
   66CHL1    O3 7293   3.009   1.819  10.579 -0.2254 -0.1649  0.1307
   66CHL1   H3' 7294   2.986   1.904  10.617  1.5211  0.0276  0.8424
   66CHL1    C4 7295   2.936   1.939  10.379 -0.4717  0.2599  0.3207
   66CHL1   H4A 7296   2.835   1.902  10.409 -0.8738  2.0202  1.2900
   66CHL1   H4B 7297   2.952   2.033  10.437 -1.9877  0.1166  1.0224
   66CHL1    C5 7298   2.951   1.948  10.226 -0.1295  0.0880 -0.5694
   66CHL1    C6 7299   2.945   2.069  10.167  0.2039  0.4482  0.3022
   66CHL1    H6 7300   2.926   2.162  10.222 -0.6036  0.2164  0.4319
   66CHL1    C7 7301   2.949   2.086  10.019 -0.3305 -0.1521  0.5230
   66CHL1   H7A 7302   2.869   2.147   9.973  0.2845 -0.0956 -0.5037
   66CHL1   H7B 7303   3.040   2.141   9.989 -0.0012 -0.4978  0.8709
   66CHL1    C8 7304   2.927   1.953   9.945  0.0875  0.5362  0.0238
   66CHL1    H8 7305   2.819   1.927   9.944  0.3169 -0.4948  0.1443
   66CHL1   C14 7306   2.982   1.974   9.804 -0.3587  0.1432  0.5924
   66CHL1   H14 7307   3.089   2.003   9.816 -0.3651 -0.7272  3.4057
   66CHL1   C15 7308   2.909   2.085   9.719 -0.7794 -0.1985 -0.1209
   66CHL1  H15A 7309   2.802   2.055   9.715 -0.6498 -0.5819 -0.9604
   66CHL1  H15B 7310   2.917   2.191   9.753  1.1663 -0.2052 -0.4091
   66CHL1   C16 7311   2.986   2.069   9.589  0.2694 -0.4409  0.7228
   66CHL1  H16A 7312   2.908   2.099   9.515  2.8229 -0.1518 -2.0428
   66CHL1  H16B 7313   3.076   2.132   9.576  0.2146 -0.6542 -1.0140
   66CHL1   C17 7314   3.029   1.921   9.578 -0.2020  0.5660 -0.5668
   66CHL1   H17 7315   3.138   1.906   9.593 -0.6974 -4.1472 -0.1411
   66CHL1   C13 7316   2.982   1.852   9.707 -0.0905 -0.0540 -0.2260
   66CHL1   C18 7317   2.840   1.795   9.689 -0.3587  0.1320  0.2816
   66CHL1  H18A 7318   2.837   1.707   9.622  1.8499 -0.1309  0.4324
   66CHL1  H18B 7319   2.797   1.781   9.790 -0.2319  1.9306  0.6301
   66CHL1  H18C 7320   2.780   1.871   9.634 -1.2311 -0.8360 -0.1138
   66CHL1   C12 7321   3.080   1.749   9.768  0.1280  0.1732 -0.0840
   66CHL1  H12A 7322   3.075   1.660   9.701 -0.6280  1.6684 -2.1322
   66CHL1  H12B 7323   3.185   1.782   9.753  0.3463 -0.8299 -0.9729
   66CHL1   C11 7324   3.040   1.719   9.912  0.4718 -0.1423 -0.3796
   66CHL1  H11A 7325   2.943   1.665   9.905  0.7162 -0.9230  1.5644
   66CHL1  H11B 7326   3.107   1.643   9.958 -1.7919 -1.4179  1.0212
   66CHL1    C9 7327   3.013   1.840  10.001 -0.6097  0.1235 -0.9465
   66CHL1    H9 7328   3.111   1.893  10.008 -1.0247  0.7573  0.7141
   66CHL1   C10 7329   2.970   1.812  10.152  0.4624 -1.3604 -0.4256
   66CHL1   C19 7330   2.846   1.721  10.150 -0.3476 -0.4013  0.1938
   66CHL1  H19A 7331   2.816   1.694  10.254 -0.3660 -1.9666 -0.1996
   66CHL1  H19B 7332   2.775   1.785  10.094  2.3766  1.4384 -1.4244
   66CHL1  H19C 7333   2.861   1.623  10.100 -0.5920 -0.5148  0.3407
   66CHL1    C1 7334   3.088   1.738  10.221  0.2690 -0.0652  0.3981
   66CHL1   H1A 7335   3.102   1.644  10.164 -1.5035 -0.1594  0.0588
   66CHL1   H1B 7336   3.182   1.795  10.207  0.6909  0.0054  3.0622
   66CHL1    C2 7337   3.071   1.719  10.372 -0.3582  0.2053 -0.5623
   66CHL1   H2A 7338   3.158   1.669  10.419  0.0337 -1.6432 -3.0770
   66CHL1   H2B 7339   2.980   1.656  10.388  0.7868 -0.7524  3.0676
   66CHL1   C20 7340   3.011   1.851   9.432  0.3783  0.2365  0.2964
   66CHL1   H20 7341   2.905   1.857   9.401 -0.1452 -3.1831  1.0243
   66CHL1   C21 7342   3.061   1.702   9.433 -0.1634  0.1397 -0.1354
   66CHL1  H21A 7343   2.988   1.634   9.481 -0.4348  0.5094 -0.0179
   66CHL1  H21B 7344   3.160   1.702   9.485 -0.2728  1.0016  0.0949
   66CHL1  H21C 7345   3.072   1.673   9.327  0.8921  1.3211 -0.3719
   66CHL1   C22 7346   3.092   1.936   9.330 -0.3689 -0.4306 -0.3131
   66CHL1  H22A 7347   3.052   2.040   9.327 -1.8769 -0.9979 -0.6213
   66CHL1  H22B 7348   3.201   1.937   9.354 -0.0590 -1.6566 -1.5226
   66CHL1   C23 7349   3.073   1.894   9.181 -0.4479  0.0661 -0.3845
   66CHL1  H23A 7350   3.131   1.968   9.122  0.2664  1.0452  1.4522
   66CHL1  H23B 7351   3.112   1.791   9.168 -1.3334 -0.1873 -1.1700
   66CHL1   C24 7352   2.929   1.898   9.132  0.1068 -0.0513 -0.2858
   66CHL1  H24A 7353   2.872   1.827   9.194 -0.7498  0.8769  0.0181
   66CHL1  H24B 7354   2.877   1.996   9.139  1.0419  0.4989 -0.7205
   66CHL1   C25 7355   2.917   1.844   8.985  0.6418  0.3538 -0.5973
   66CHL1   H25 7356   2.988   1.897   8.919  3.1249  0.2219  1.8057
   66CHL1   C26 7357   2.951   1.694   8.975  0.4688  0.1602  0.2667
   66CHL1  H26A 7358   2.931   1.651   8.874 -2.5628 -1.2902  1.3712
   66CHL1  H26B 7359   3.058   1.673   9.001  0.4481 -2.7942 -1.5424
   66CHL1  H26C 7360   2.883   1.634   9.038  0.5163 -0.5332 -0.3243
   66CHL1   C27 7361   2.771   1.861   8.933 -1.1533 -0.8746  0.2575
   66CHL1  H27A 7362   2.740   1.967   8.938  1.1587 -0.1893  3.1269
   66CHL1  H27B 7363   2.762   1.828   8.828 -2.8884 -1.9383  0.6988
   66CHL1  H27C 7364   2.698   1.807   8.998 -1.2231  0.2033  1.0922
   67CHL1    C3 7365   3.901   3.275  10.170 -0.2886  0.1442  0.5650
   67CHL1    H3 7366   3.886   3.167  10.188 -2.0938  0.3681  0.6132
   67CHL1    O3 7367   3.901   3.339  10.304  0.1422 -0.1192  0.0127
   67CHL1   H3' 7368   3.814   3.368  10.333 -0.2343  0.4168 -1.5512
   67CHL1    C4 7369   4.031   3.314  10.098  0.2250  0.7197  0.5771
   67CHL1   H4A 7370   4.036   3.425  10.090 -1.1566  0.9140  1.9953
   67CHL1   H4B 7371   4.116   3.271  10.156  0.7858 -1.1482 -1.5046
   67CHL1    C5 7372   4.030   3.265   9.953  0.5076  0.1809 -0.8211
   67CHL1    C6 7373   4.122   3.180   9.913 -0.2130 -0.3638 -0.1471
   67CHL1    H6 7374   4.194   3.141   9.987  0.7592  0.7908 -0.4583
   67CHL1    C7 7375   4.144   3.125   9.776 -0.3878  0.1652  0.0263
   67CHL1   H7A 7376   4.251   3.135   9.748 -0.5983 -0.8220 -1.2429
   67CHL1   H7B 7377   4.119   3.017   9.771  1.2885 -0.3193  1.3963
   67CHL1    C8 7378   4.051   3.198   9.677  0.5455  1.0101  0.1751
   67CHL1    H8 7379   4.109   3.292   9.663  5.0601 -1.4684  0.4064
   67CHL1   C14 7380   4.041   3.124   9.544 -0.1264 -0.3637 -0.3756
   67CHL1   H14 7381   3.979   3.034   9.565 -1.3036  0.9226  2.0572
   67CHL1   C15 7382   4.170   3.074   9.474 -0.2684  0.0881 -0.3377
   67CHL1  H15A 7383   4.236   3.163   9.477  0.3737 -0.4037  1.5327
   67CHL1  H15B 7384   4.212   2.981   9.518 -1.0699 -0.5093 -0.7920
   67CHL1   C16 7385   4.141   3.049   9.330  0.1946 -0.2706  0.1877
   67CHL1  H16A 7386   4.204   3.115   9.266 -1.0789  1.1768  0.3730
   67CHL1  H16B 7387   4.161   2.944   9.299 -0.4910 -0.3921  0.1350
   67CHL1   C17 7388   3.992   3.096   9.309  0.5059 -0.0421 -0.0288
   67CHL1   H17 7389   3.939   3.005   9.345  0.8744  1.3734  4.7478
   67CHL1   C13 7390   3.957   3.190   9.428  0.2946  1.3398  0.5005
   67CHL1   C18 7391   3.995   3.333   9.401  0.1660 -0.2697 -0.0490
   67CHL1  H18A 7392   3.922   3.374   9.328  1.7855 -1.4558 -2.4660
   67CHL1  H18B 7393   4.008   3.386   9.498 -1.1504 -0.2464  0.1311
   67CHL1  H18C 7394   4.091   3.357   9.351 -0.1358  2.2083  0.4286
   67CHL1   C12 7395   3.808   3.185   9.481 -0.3960  0.6161 -0.0956
   67CHL1  H12A 7396   3.730   3.238   9.422 -0.0774 -2.4291 -3.6276
   67CHL1  H12B 7397   3.778   3.079   9.498 -1.6621  0.7758 -1.2055
   67CHL1   C11 7398   3.802   3.264   9.619  0.0183  0.2320  0.3812
   67CHL1  H11A 7399   3.816   3.373   9.601 -1.3285  0.4988  0.8319
   67CHL1  H11B 7400   3.705   3.259   9.672  1.0658 -0.2671  2.3710
   67CHL1    C9 7401   3.903   3.217   9.735  0.0678 -0.3002 -0.6750
   67CHL1    H9 7402   3.875   3.113   9.761 -0.4532 -0.4000 -1.6127
   67CHL1   C10 7403   3.912   3.303   9.867  0.5085 -0.6154 -0.0498
   67CHL1   C19 7404   3.908   3.453   9.823 -0.5565 -0.8336  0.0416
   67CHL1  H19A 7405   3.989   3.471   9.750  1.4069 -0.2225  2.2570
   67CHL1  H19B 7406   3.810   3.470   9.772 -0.0832 -0.0816 -0.6407
   67CHL1  H19C 7407   3.910   3.519   9.913  0.2169  1.8626 -1.8424
   67CHL1    C1 7408   3.780   3.277   9.944  0.2574  0.3964  0.5099
   67CHL1   H1A 7409   3.691   3.306   9.885  0.1576 -2.2865 -0.7891
   67CHL1   H1B 7410   3.755   3.171   9.965 -5.4985  1.7861  2.6636
   67CHL1    C2 7411   3.776   3.329  10.093 -0.7036 -0.0274  0.0348
   67CHL1   H2A 7412   3.679   3.319  10.146 -1.0559  4.3383  0.5646
   67CHL1   H2B 7413   3.791   3.439  10.084  0.7070 -0.2165 -0.1856
   67CHL1   C20 7414   3.959   3.141   9.165 -0.0375 -0.3101  0.1055
   67CHL1   H20 7415   4.001   3.244   9.155 -0.6661  0.2071  2.3972
   67CHL1   C21 7416   3.805   3.144   9.136 -0.7088  0.1520  0.4768
   67CHL1  H21A 7417   3.770   3.039   9.140 -1.2960  0.2350 -1.5793
   67CHL1  H21B 7418   3.788   3.180   9.032 -2.4968  1.5288  1.1796
   67CHL1  H21C 7419   3.756   3.213   9.208  1.9585  0.7622  1.8444
   67CHL1   C22 7420   4.038   3.059   9.053  0.4234 -0.0391 -0.5942
   67CHL1  H22A 7421   4.147   3.052   9.075  0.2280 -0.1568  0.4016
   67CHL1  H22B 7422   3.992   2.958   9.056 -1.9785  0.9385 -1.5919
   67CHL1   C23 7423   4.015   3.114   8.909 -0.0569  0.4017 -0.2981
   67CHL1  H23A 7424   3.909   3.114   8.875 -0.3513  0.1696  0.5988
   67CHL1  H23B 7425   4.041   3.221   8.914  0.2366  0.3166  0.0420
   67CHL1   C24 7426   4.105   3.039   8.807 -0.6143 -0.1748 -0.5269
   67CHL1  H24A 7427   4.211   3.060   8.831  0.1272 -1.1773 -2.6327
   67CHL1  H24B 7428   4.090   2.931   8.828  0.4875 -0.3844 -0.7303
   67CHL1   C25 7429   4.072   3.065   8.663 -0.3205  0.0387 -0.5805
   67CHL1   H25 7430   3.966   3.036   8.646  0.0719 -2.8821  1.2939
   67CHL1   C26 7431   4.114   3.203   8.609  0.3017  0.0523 -0.2299
   67CHL1  H26A 7432   4.105   3.217   8.500 -0.7917 -2.4588 -0.5283
   67CHL1  H26B 7433   4.041   3.277   8.650  1.1463  0.0579  1.3244
   67CHL1  H26C 7434   4.219   3.224   8.639 -0.1488  1.4633  0.4726
   67CHL1   C27 7435   4.130   2.942   8.578 -0.4438  0.6636  0.8205
   67CHL1  H27A 7436   4.087   2.848   8.620 -1.9345  1.1205  0.3599
   67CHL1  H27B 7437   4.108   2.949   8.469  1.6976 -2.1787  0.0853
   67CHL1  H27C 7438   4.241   2.939   8.583 -0.0875  2.1448 -3.0542
   68CHL1    C3 7439   5.556   6.016  10.144  0.1246 -0.4756  0.8013
   68CHL1    H3 7440   5.662   6.019  10.111  0.0280  0.7498  0.5638
   68CHL1    O3 7441   5.536   6.011  10.282 -1.0551  0.3027 -0.1015
   68CHL1   H3' 7442   5.597   6.081  10.307  1.2065 -1.3090 -0.7663
   68CHL1    C4 7443   5.507   6.151  10.092  0.1504 -0.6160  0.1066
   68CHL1   H4A 7444   5.402   6.168  10.125  0.7223 -2.0769  2.9997
   68CHL1   H4B 7445   5.569   6.232  10.135  0.4766 -1.8603  2.1224
   68CHL1    C5 7446   5.518   6.149   9.942 -1.6477  0.5066  0.2788
   68CHL1    C6 7447   5.600   6.248   9.884  0.3583  0.9361  0.2790
   68CHL1    H6 7448   5.644   6.327   9.946  0.6376 -0.3100  1.7453
   68CHL1    C7 7449   5.614   6.264   9.736 -0.1287 -0.0353 -0.1839
   68CHL1   H7A 7450   5.605   6.370   9.705  1.0998  0.4421  0.9951
   68CHL1   H7B 7451   5.711   6.218   9.708 -0.5288 -2.1111  1.6056
   68CHL1    C8 7452   5.508   6.187   9.654  0.7204 -0.0947 -0.2840
   68CHL1    H8 7453   5.414   6.246   9.662 -0.4203 -1.6686 -1.5590
   68CHL1   C14 7454   5.547   6.166   9.512  0.3759  0.1424  0.0075
   68CHL1   H14 7455   5.637   6.100   9.512  1.0228  0.9730  1.1540
   68CHL1   C15 7456   5.572   6.297   9.440 -0.2779 -0.3458  0.2321
   68CHL1  H15A 7457   5.496   6.373   9.467  1.3164  1.0904  0.8232
   68CHL1  H15B 7458   5.669   6.336   9.478  0.1147 -2.9713  2.2402
   68CHL1   C16 7459   5.553   6.259   9.291  0.6247  0.2947  0.2826
   68CHL1  H16A 7460   5.502   6.338   9.231  0.1674 -1.0323 -1.1580
   68CHL1  H16B 7461   5.653   6.253   9.244 -0.6589  2.9734 -3.2559
   68CHL1   C17 7462   5.493   6.121   9.288  0.7773 -0.8671  0.4542
   68CHL1   H17 7463   5.579   6.051   9.280  1.1896 -0.2087 -1.4808
   68CHL1   C13 7464   5.438   6.093   9.424 -0.1395  0.1343 -0.5125
   68CHL1   C18 7465   5.303   6.166   9.434  0.2129 -0.3966 -0.4008
   68CHL1  H18A 7466   5.251   6.170   9.532 -2.7785 -2.9543 -1.7135
   68CHL1  H18B 7467   5.300   6.257   9.371  1.9230 -0.8684 -1.2161
   68CHL1  H18C 7468   5.227   6.102   9.383 -1.1668  0.8645 -0.0105
   68CHL1   C12 7469   5.430   5.949   9.477  0.7077  0.2816 -0.4315
   68CHL1  H12A 7470   5.361   5.886   9.416 -0.8809  2.9626 -1.5744
   68CHL1  H12B 7471   5.531   5.904   9.466  0.4900 -1.1182  2.3306
   68CHL1   C11 7472   5.391   5.950   9.627 -0.0146 -0.7013 -0.5880
   68CHL1  H11A 7473   5.291   5.998   9.631  0.6961  0.7292  1.1172
   68CHL1  H11B 7474   5.389   5.843   9.657  0.6807 -0.8887 -1.2027
   68CHL1    C9 7475   5.480   6.040   9.711 -0.1500 -0.5458  0.5220
   68CHL1    H9 7476   5.579   5.991   9.702 -0.4934 -1.3994  1.3239
   68CHL1   C10 7477   5.450   6.035   9.867  0.0781 -0.1146 -0.5576
   68CHL1   C19 7478   5.300   6.052   9.883 -0.1785  0.4786  0.1236
   68CHL1  H19A 7479   5.261   6.068   9.986  0.4604  0.2323  0.4096
   68CHL1  H19B 7480   5.265   6.140   9.825 -1.5523 -0.3682 -0.3803
   68CHL1  H19C 7481   5.247   5.962   9.846 -0.2124  0.2596  0.6960
   68CHL1    C1 7482   5.498   5.897   9.929 -0.1254 -0.0022 -0.0750
   68CHL1   H1A 7483   5.445   5.811   9.881 -0.1985 -0.4971  0.8775
   68CHL1   H1B 7484   5.605   5.892   9.902 -0.1849 -1.2204 -0.1326
   68CHL1    C2 7485   5.488   5.890  10.082  0.2713  0.6273  0.0982
   68CHL1   H2A 7486   5.524   5.794  10.124 -0.1650  0.9531  1.2652
   68CHL1   H2B 7487   5.378   5.889  10.101 -0.3333 -1.4990 -2.7483
   68CHL1   C20 7488   5.404   6.088   9.166 -0.3541 -0.5032  0.0176
   68CHL1   H20 7489   5.318   6.158   9.160  1.2605  2.1839  3.9143
   68CHL1   C21 7490   5.356   5.942   9.176  0.3814 -0.1493 -0.0447
   68CHL1  H21A 7491   5.436   5.878   9.220 -1.0700 -2.7829 -1.0055
   68CHL1  H21B 7492   5.326   5.905   9.076 -1.3702 -0.8671  0.6998
   68CHL1  H21C 7493   5.268   5.939   9.244  0.7714 -0.0226  0.4729
   68CHL1   C22 7494   5.496   6.098   9.035  0.1331 -0.3662 -0.2535
   68CHL1  H22A 7495   5.546   6.197   9.028 -1.1575  0.3408  0.3122
   68CHL1  H22B 7496   5.569   6.014   9.041  0.4876 -0.1983 -1.6938
   68CHL1   C23 7497   5.418   6.097   8.905  0.4001  0.4270 -0.6647
   68CHL1  H23A 7498   5.364   6.000   8.895 -0.3917  0.9375 -1.6297
   68CHL1  H23B 7499   5.330   6.165   8.902  0.1896  0.2091  0.3507
   68CHL1   C24 7500   5.500   6.103   8.773 -0.2068  0.3197  0.2663
   68CHL1  H24A 7501   5.575   6.185   8.772  0.3822 -0.0991 -3.1902
   68CHL1  H24B 7502   5.570   6.017   8.781 -0.7507 -0.0427  1.4049
   68CHL1   C25 7503   5.423   6.085   8.643 -0.2821  0.3013 -0.2287
   68CHL1   H25 7504   5.359   6.001   8.678  0.4674  0.7128  2.2997
   68CHL1   C26 7505   5.349   6.209   8.608  0.6695 -0.1534 -0.5981
   68CHL1  H26A 7506   5.294   6.252   8.694  1.2374  0.6092 -0.6065
   68CHL1  H26B 7507   5.421   6.292   8.593  1.1577 -0.5623 -0.5087
   68CHL1  H26C 7508   5.277   6.202   8.523  1.7938 -0.7655 -1.5134
   68CHL1   C27 7509   5.514   6.033   8.529  0.2542 -0.2617  0.1124
   68CHL1  H27A 7510   5.538   5.926   8.546  2.9286 -0.0101 -1.4618
   68CHL1  H27B 7511   5.466   6.039   8.429  0.8496  0.8294 -0.1274
   68CHL1  H27C 7512   5.607   6.088   8.505  1.3631 -1.9375  0.4205
   69CHL1    C3 7513   3.490   3.731   6.675  0.2826 -0.0086  0.9435
   69CHL1    H3 7514   3.469   3.623   6.682  1.4061 -0.4028 -0.8759
   69CHL1    O3 7515   3.513   3.740   6.531  0.3276 -0.0776 -0.0354
   69CHL1   H3' 7516   3.444   3.686   6.493  1.4816 -1.6204 -0.0244
   69CHL1    C4 7517   3.366   3.818   6.705  0.3587  0.5670 -0.6010
   69CHL1   H4A 7518   3.379   3.921   6.665  0.3277  1.4381  1.5082
   69CHL1   H4B 7519   3.283   3.775   6.645 -1.3825 -0.1611  2.1660
   69CHL1    C5 7520   3.334   3.839   6.853 -0.0485 -0.6189 -0.0574
   69CHL1    C6 7521   3.211   3.825   6.909 -0.6647  0.0261 -0.3662
   69CHL1    H6 7522   3.124   3.808   6.844  0.2659  1.1966 -2.0134
   69CHL1    C7 7523   3.188   3.850   7.058 -0.2525  0.1935 -0.4029
   69CHL1   H7A 7524   3.097   3.904   7.092 -0.3073 -0.4469  0.5064
   69CHL1   H7B 7525   3.184   3.752   7.110  1.2631  0.9508  1.2432
   69CHL1    C8 7526   3.298   3.922   7.134  0.1222 -0.5824 -0.8115
   69CHL1    H8 7527   3.290   4.031   7.118 -1.1925 -0.4516  0.5070
   69CHL1   C14 7528   3.276   3.913   7.289 -0.1408  0.1492  0.0581
   69CHL1   H14 7529   3.295   3.806   7.312 -0.2882  0.0440 -0.2997
   69CHL1   C15 7530   3.137   3.945   7.349 -0.2623 -0.5823  0.6101
   69CHL1  H15A 7531   3.100   4.032   7.290  0.5004 -0.9205 -0.4064
   69CHL1  H15B 7532   3.066   3.861   7.344 -0.8412 -0.0804  0.2380
   69CHL1   C16 7533   3.169   3.979   7.496  0.3738 -0.7171 -0.0405
   69CHL1  H16A 7534   3.150   4.088   7.512  0.5214 -0.5313 -1.0658
   69CHL1  H16B 7535   3.105   3.920   7.565 -0.8018  1.0178  0.4150
   69CHL1   C17 7536   3.319   3.963   7.514  0.1334  0.1566  1.1895
   69CHL1   H17 7537   3.342   3.857   7.535 -0.5694  0.1503  1.9766
   69CHL1   C13 7538   3.376   3.987   7.374  0.2452 -0.2490 -0.5598
   69CHL1   C18 7539   3.386   4.139   7.357 -0.0184  0.4103  0.5508
   69CHL1  H18A 7540   3.298   4.196   7.393  0.1343  0.5602  0.6894
   69CHL1  H18B 7541   3.481   4.175   7.403 -0.2519  0.0594  1.3258
   69CHL1  H18C 7542   3.396   4.154   7.248  0.9445 -1.0309  0.3991
   69CHL1   C12 7543   3.513   3.915   7.339  0.1312 -0.1231 -0.2331
   69CHL1  H12A 7544   3.601   3.943   7.400 -0.8265  0.1288  1.0910
   69CHL1  H12B 7545   3.502   3.807   7.362  3.2737 -0.3550  0.5682
   69CHL1   C11 7546   3.551   3.930   7.184  0.4392 -0.2760  0.0876
   69CHL1  H11A 7547   3.567   4.035   7.150 -1.9655 -0.0680 -0.5623
   69CHL1  H11B 7548   3.645   3.872   7.172 -0.3633 -1.6278  0.1036
   69CHL1    C9 7549   3.440   3.873   7.093 -0.0147  0.0386  0.1414
   69CHL1    H9 7550   3.445   3.764   7.116 -1.4844  0.0035  0.4093
   69CHL1   C10 7551   3.464   3.878   6.939 -0.1333 -0.5637  0.4200
   69CHL1   C19 7552   3.498   4.022   6.901 -0.0476 -0.4845 -0.8045
   69CHL1  H19A 7553   3.411   4.085   6.928  0.9733  1.7897 -2.4402
   69CHL1  H19B 7554   3.596   4.052   6.944 -0.1029 -0.5365 -0.6426
   69CHL1  H19C 7555   3.521   4.021   6.792  0.8242 -0.9467 -0.6272
   69CHL1    C1 7556   3.587   3.784   6.900 -0.3069 -0.6707 -0.4733
   69CHL1   H1A 7557   3.676   3.828   6.950  0.4703  0.5872 -2.8151
   69CHL1   H1B 7558   3.563   3.686   6.947  1.9010 -1.1425 -0.2207
   69CHL1    C2 7559   3.614   3.764   6.753 -0.5668 -0.5072  0.8849
   69CHL1   H2A 7560   3.692   3.687   6.735  0.0561  0.0017  1.3627
   69CHL1   H2B 7561   3.662   3.860   6.724 -2.2406  0.6645  1.7907
   69CHL1   C20 7562   3.376   4.029   7.639  0.1908 -0.1465  0.2185
   69CHL1   H20 7563   3.354   4.137   7.625  0.4645 -0.3414 -2.0664
   69CHL1   C21 7564   3.531   4.017   7.647  0.1366  0.6951 -0.3901
   69CHL1  H21A 7565   3.562   3.910   7.650  1.1151  0.9787  1.1816
   69CHL1  H21B 7566   3.576   4.067   7.736  0.2683 -1.3106  0.7284
   69CHL1  H21C 7567   3.566   4.061   7.551 -2.1592  2.3060 -0.5699
   69CHL1   C22 7568   3.305   3.988   7.776 -0.0487  0.3450 -0.5366
   69CHL1  H22A 7569   3.198   4.014   7.765 -1.0197 -2.0756  2.0635
   69CHL1  H22B 7570   3.312   3.878   7.789  1.7390  0.7056  2.6293
   69CHL1   C23 7571   3.344   4.054   7.909  0.0649  0.2040  0.4018
   69CHL1  H23A 7572   3.371   4.159   7.889  0.5911 -0.1936 -1.0902
   69CHL1  H23B 7573   3.249   4.066   7.966 -0.4974 -0.7487 -0.2982
   69CHL1   C24 7574   3.441   3.970   7.996  0.2375  0.5317 -0.6982
   69CHL1  H24A 7575   3.403   3.866   8.004  3.0330 -0.4940  0.7702
   69CHL1  H24B 7576   3.526   3.978   7.924 -0.7085  2.4961 -1.6655
   69CHL1   C25 7577   3.463   4.028   8.132  0.0368 -0.2322 -0.5501
   69CHL1   H25 7578   3.478   4.137   8.113 -0.1547  0.6280  3.4277
   69CHL1   C26 7579   3.349   4.018   8.230 -0.2999 -0.2754 -0.0937
   69CHL1  H26A 7580   3.255   4.033   8.171 -0.6941  1.5951  0.9231
   69CHL1  H26B 7581   3.340   3.921   8.284 -0.8880 -1.1239 -1.6367
   69CHL1  H26C 7582   3.362   4.096   8.307  1.7213 -1.0127  0.3655
   69CHL1   C27 7583   3.589   3.980   8.201 -0.5478  0.1883  0.0547
   69CHL1  H27A 7584   3.591   3.871   8.224  0.7779  0.3709  0.8970
   69CHL1  H27B 7585   3.675   4.004   8.135 -0.8578 -1.1023 -0.8575
   69CHL1  H27C 7586   3.597   4.036   8.297  2.9343  0.8351 -0.4840
   70CHL1    C3 7587   2.261   6.722   6.924 -0.1981  0.3371 -0.1429
   70CHL1    H3 7588   2.157   6.684   6.931 -0.1055  0.1161  0.0870
   70CHL1    O3 7589   2.288   6.719   6.782 -0.1153  0.0930  0.3039
   70CHL1   H3' 7590   2.383   6.717   6.766  0.1034 -1.3734  1.5519
   70CHL1    C4 7591   2.269   6.863   6.977 -0.1947 -0.0964  0.1657
   70CHL1   H4A 7592   2.373   6.900   6.961 -0.7430  0.7724 -1.5863
   70CHL1   H4B 7593   2.199   6.925   6.918  0.7878 -0.5483 -1.5258
   70CHL1    C5 7594   2.228   6.860   7.128  0.0660 -0.4787  0.9542
   70CHL1    C6 7595   2.113   6.920   7.165 -0.1315 -0.5680  0.4903
   70CHL1    H6 7596   2.066   6.981   7.086 -0.3124 -1.2042  0.1023
   70CHL1    C7 7597   2.077   6.928   7.310 -0.0025  1.0906  0.1477
   70CHL1   H7A 7598   2.032   7.026   7.341 -0.3308  0.6690  1.0523
   70CHL1   H7B 7599   1.981   6.876   7.329  0.5560  0.3941  1.1580
   70CHL1    C8 7600   2.183   6.883   7.410 -0.0612  0.3285 -0.2929
   70CHL1    H8 7601   2.249   6.971   7.423  1.1223 -0.5192 -0.4259
   70CHL1   C14 7602   2.126   6.859   7.550  0.0217 -0.4338  0.4252
   70CHL1   H14 7603   2.050   6.781   7.533  2.5223 -3.0860  0.6720
   70CHL1   C15 7604   2.051   6.973   7.614  0.4541  0.4765 -0.2204
   70CHL1  H15A 7605   2.115   7.064   7.613 -0.4994  1.1585 -0.2951
   70CHL1  H15B 7606   1.952   6.995   7.568  0.0405 -0.8607 -0.0030
   70CHL1   C16 7607   2.046   6.938   7.763  0.8168 -0.4437  0.3287
   70CHL1  H16A 7608   2.068   7.023   7.831 -0.2442  0.8962 -0.9231
   70CHL1  H16B 7609   1.943   6.902   7.786  0.0495  1.0200 -0.6547
   70CHL1   C17 7610   2.148   6.824   7.784 -0.7254  0.3248  0.5071
   70CHL1   H17 7611   2.090   6.730   7.800 -2.1291  1.2825  1.2350
   70CHL1   C13 7612   2.233   6.810   7.650  0.9249 -0.4221 -0.1242
   70CHL1   C18 7613   2.343   6.915   7.659  0.0541  0.3869  0.2730
   70CHL1  H18A 7614   2.302   7.017   7.673 -2.7447 -0.7348  1.2045
   70CHL1  H18B 7615   2.410   6.878   7.739 -0.6394 -0.1594  0.6167
   70CHL1  H18C 7616   2.414   6.907   7.575 -0.7782 -0.3581 -0.3821
   70CHL1   C12 7617   2.275   6.667   7.607 -0.9535  0.4296  0.2680
   70CHL1  H12A 7618   2.340   6.626   7.687  1.0962  0.8356 -1.1108
   70CHL1  H12B 7619   2.189   6.597   7.602 -1.3986  0.9383  0.6713
   70CHL1   C11 7620   2.343   6.676   7.468 -0.0225  0.4892  0.3703
   70CHL1  H11A 7621   2.433   6.740   7.477  1.4533 -1.7277  2.5372
   70CHL1  H11B 7622   2.373   6.578   7.426 -0.4718  1.6068 -2.8115
   70CHL1    C9 7623   2.255   6.751   7.360 -0.3803  0.0107 -0.9808
   70CHL1    H9 7624   2.166   6.683   7.360  2.2215 -3.7729  0.5655
   70CHL1   C10 7625   2.312   6.769   7.216  0.1820  0.1619 -0.3110
   70CHL1   C19 7626   2.441   6.853   7.225  0.3795  0.4874 -0.2238
   70CHL1  H19A 7627   2.414   6.946   7.280 -2.0333  0.0686 -0.5843
   70CHL1  H19B 7628   2.513   6.793   7.284 -0.0122 -0.5246 -0.7566
   70CHL1  H19C 7629   2.489   6.887   7.130  0.1367  0.2937 -0.4156
   70CHL1    C1 7630   2.332   6.631   7.143  0.1578  1.0880 -0.3964
   70CHL1   H1A 7631   2.412   6.574   7.195 -1.1934 -1.7390 -1.2509
   70CHL1   H1B 7632   2.233   6.580   7.146  0.0627  1.1410 -2.0805
   70CHL1    C2 7633   2.368   6.641   6.998 -0.2491  0.1867  0.4515
   70CHL1   H2A 7634   2.374   6.537   6.958  2.7831 -0.1856  1.6339
   70CHL1   H2B 7635   2.468   6.689   6.991  0.6547 -1.5352  0.9411
   70CHL1   C20 7636   2.221   6.847   7.913  0.1153 -0.4473 -0.1379
   70CHL1   H20 7637   2.278   6.943   7.912 -0.3646 -0.1121  1.5076
   70CHL1   C21 7638   2.318   6.731   7.932  0.7539  0.0957 -0.6511
   70CHL1  H21A 7639   2.268   6.633   7.912  0.7483  0.0045 -0.2042
   70CHL1  H21B 7640   2.354   6.738   8.037 -0.1924 -2.8515 -0.0171
   70CHL1  H21C 7641   2.407   6.728   7.866  0.8585 -0.1981 -0.5004
   70CHL1   C22 7642   2.127   6.851   8.039 -0.3825  0.1198 -0.1728
   70CHL1  H22A 7643   2.023   6.882   8.016 -0.7499 -0.7740  0.2151
   70CHL1  H22B 7644   2.120   6.741   8.058  4.1468  0.0200  2.4667
   70CHL1   C23 7645   2.188   6.922   8.155 -0.2451 -0.0926 -0.4916
   70CHL1  H23A 7646   2.126   6.900   8.244  0.3824  1.1950  0.2835
   70CHL1  H23B 7647   2.294   6.895   8.172 -0.9388 -2.1374  1.1000
   70CHL1   C24 7648   2.171   7.069   8.140 -0.1600  0.0235 -0.1698
   70CHL1  H24A 7649   2.189   7.096   8.034  0.1421  1.7304  0.2736
   70CHL1  H24B 7650   2.068   7.103   8.168  0.1693  0.0555  1.0849
   70CHL1   C25 7651   2.254   7.168   8.229 -0.7056  0.8234  0.1607
   70CHL1   H25 7652   2.359   7.142   8.202 -1.0004 -2.0923  1.5163
   70CHL1   C26 7653   2.241   7.315   8.184 -0.5025 -0.1290 -0.4670
   70CHL1  H26A 7654   2.268   7.390   8.262  0.1722  0.4716 -1.2482
   70CHL1  H26B 7655   2.309   7.340   8.099  0.2129 -1.6422 -0.3716
   70CHL1  H26C 7656   2.136   7.341   8.162 -0.9960  0.3413  2.1551
   70CHL1   C27 7657   2.235   7.154   8.378 -1.0258  0.3576 -0.3981
   70CHL1  H27A 7658   2.304   7.225   8.429  1.3460  0.3219 -3.2729
   70CHL1  H27B 7659   2.139   7.193   8.420  0.6902  1.1793  3.1839
   70CHL1  H27C 7660   2.247   7.050   8.412  0.4382  0.6374 -0.0080
   71CHL1    C3 7661   1.733   5.057   6.984 -0.0831  0.1673 -0.5865
   71CHL1    H3 7662   1.659   4.974   6.972  2.1700 -2.0933  0.2396
   71CHL1    O3 7663   1.757   5.109   6.862 -0.3831  0.4655 -0.3903
   71CHL1   H3' 7664   1.827   5.174   6.871  0.4525 -0.3387 -0.9482
   71CHL1    C4 7665   1.678   5.170   7.072  0.2872 -0.7922 -0.1593
   71CHL1   H4A 7666   1.756   5.249   7.082 -0.8962  0.3291  0.3642
   71CHL1   H4B 7667   1.585   5.221   7.040 -1.6903 -4.3678 -0.6341
   71CHL1    C5 7668   1.647   5.122   7.215 -0.0259  0.3061  0.4175
   71CHL1    C6 7669   1.527   5.145   7.286  0.1454  0.1102  0.1754
   71CHL1    H6 7670   1.435   5.197   7.255 -0.6678 -0.2040  1.9283
   71CHL1    C7 7671   1.513   5.101   7.427  0.3823  0.6066 -0.1696
   71CHL1   H7A 7672   1.450   5.172   7.483 -1.6242 -0.3571 -1.1127
   71CHL1   H7B 7673   1.454   5.008   7.424  0.9677  0.2374 -0.6727
   71CHL1    C8 7674   1.650   5.067   7.500  0.9802 -0.0426 -0.0663
   71CHL1    H8 7675   1.698   5.165   7.521  0.6195  0.0856  0.1754
   71CHL1   C14 7676   1.628   5.000   7.642 -0.4317 -0.2184  0.2895
   71CHL1   H14 7677   1.579   4.902   7.624  0.8422 -0.8300  0.0866
   71CHL1   C15 7678   1.539   5.080   7.742 -0.0539  0.4065 -0.0888
   71CHL1  H15A 7679   1.565   5.188   7.737 -1.7842  1.0335  2.3858
   71CHL1  H15B 7680   1.433   5.061   7.718 -0.2389 -0.1523  1.0781
   71CHL1   C16 7681   1.574   5.012   7.878  0.2096 -0.1156 -1.1737
   71CHL1  H16A 7682   1.595   5.092   7.952 -2.1117 -1.3997  1.0324
   71CHL1  H16B 7683   1.490   4.949   7.914  0.1988 -0.1249 -1.2159
   71CHL1   C17 7684   1.696   4.919   7.855 -0.1110 -0.5346  0.8567
   71CHL1   H17 7685   1.655   4.817   7.843  1.9356 -1.2438 -1.0359
   71CHL1   C13 7686   1.761   4.964   7.713  0.6268  0.1988 -0.7129
   71CHL1   C18 7687   1.845   5.095   7.746 -0.0140  0.0539 -0.7986
   71CHL1  H18A 7688   1.925   5.073   7.820 -1.0341  0.9704  0.6163
   71CHL1  H18B 7689   1.884   5.132   7.649  0.5866 -1.0651 -1.0076
   71CHL1  H18C 7690   1.779   5.175   7.784 -3.3554 -2.8851  0.1584
   71CHL1   C12 7691   1.835   4.862   7.628  0.0703  0.5064  0.6823
   71CHL1  H12A 7692   1.935   4.849   7.673  0.0617 -1.9620  0.1483
   71CHL1  H12B 7693   1.783   4.763   7.623  1.2374 -0.0687 -1.8000
   71CHL1   C11 7694   1.862   4.910   7.484 -0.0299  0.1372 -0.2581
   71CHL1  H11A 7695   1.948   4.976   7.508 -0.1366  0.1566  0.0736
   71CHL1  H11B 7696   1.896   4.829   7.416  0.8565  0.5867 -0.3656
   71CHL1    C9 7697   1.740   4.980   7.410  0.3481 -0.0579  0.2788
   71CHL1    H9 7698   1.668   4.896   7.394 -0.5121  0.6327  0.4197
   71CHL1   C10 7699   1.774   5.045   7.273 -0.1430 -0.0898 -0.0808
   71CHL1   C19 7700   1.891   5.144   7.306  0.6600  0.4176 -0.4783
   71CHL1  H19A 7701   1.876   5.189   7.406  3.4069 -0.7609  0.5604
   71CHL1  H19B 7702   1.975   5.071   7.303 -1.1931 -1.7828 -1.1848
   71CHL1  H19C 7703   1.909   5.220   7.227  0.7604  0.1627 -0.7018
   71CHL1    C1 7704   1.817   4.935   7.171  0.0593  0.0650 -0.3699
   71CHL1   H1A 7705   1.910   4.886   7.207 -0.1402 -0.6183 -0.7801
   71CHL1   H1B 7706   1.738   4.858   7.163 -0.0192 -0.4964  3.6093
   71CHL1    C2 7707   1.855   4.985   7.041  0.8059 -0.1000  0.3347
   71CHL1   H2A 7708   1.884   4.900   6.976 -1.4105  0.0960 -1.0338
   71CHL1   H2B 7709   1.945   5.047   7.057  1.1982 -0.3795 -0.7143
   71CHL1   C20 7710   1.784   4.909   7.975 -0.7320 -0.2910  0.0805
   71CHL1   H20 7711   1.831   5.010   7.985  0.7924 -1.0152  0.4572
   71CHL1   C21 7712   1.905   4.811   7.942 -0.4153 -0.5051 -0.3707
   71CHL1  H21A 7713   1.955   4.765   8.029  1.8768  2.9625  0.3404
   71CHL1  H21B 7714   1.979   4.870   7.884  0.7311 -0.5404  1.0034
   71CHL1  H21C 7715   1.869   4.723   7.885  0.8422 -1.0050 -0.4151
   71CHL1   C22 7716   1.711   4.878   8.112 -0.0973 -0.5892  0.1215
   71CHL1  H22A 7717   1.618   4.938   8.121  0.5305  0.3376  0.4992
   71CHL1  H22B 7718   1.684   4.770   8.103  1.1424 -0.8645 -0.5881
   71CHL1   C23 7719   1.799   4.905   8.237 -0.5180 -0.8478  0.7249
   71CHL1  H23A 7720   1.895   4.850   8.228 -0.2324 -0.2304 -0.1434
   71CHL1  H23B 7721   1.814   5.014   8.234  0.1256 -0.8745  2.1758
   71CHL1   C24 7722   1.738   4.863   8.366 -0.3200 -0.1324 -0.6609
   71CHL1  H24A 7723   1.655   4.934   8.388  0.3658  0.8364 -1.1492
   71CHL1  H24B 7724   1.687   4.767   8.345  0.3771 -0.0689 -2.8209
   71CHL1   C25 7725   1.839   4.840   8.486  0.1087 -0.5812  0.3728
   71CHL1   H25 7726   1.915   4.776   8.436  0.4488  0.7214 -0.8322
   71CHL1   C26 7727   1.902   4.970   8.538 -0.1151  0.8888 -0.5056
   71CHL1  H26A 7728   1.981   4.945   8.612 -1.5447  0.8363  1.0691
   71CHL1  H26B 7729   1.947   5.010   8.444 -0.3032  0.7505 -0.6542
   71CHL1  H26C 7730   1.841   5.043   8.595 -0.2695 -0.4024  1.0347
   71CHL1   C27 7731   1.778   4.755   8.599 -0.3120  0.0685  0.3357
   71CHL1  H27A 7732   1.855   4.699   8.656 -1.0519 -2.6763 -1.1352
   71CHL1  H27B 7733   1.705   4.805   8.665  0.8288  1.8842  0.3000
   71CHL1  H27C 7734   1.717   4.671   8.559  1.9113 -0.8484 -1.3665
   72CHL1    C3 7735   2.651   2.018   6.993  0.0046 -0.0499  0.7509
   72CHL1    H3 7736   2.544   2.045   7.006 -0.6079 -0.8356 -1.9900
   72CHL1    O3 7737   2.660   2.011   6.852 -0.1214  0.1617  0.6550
   72CHL1   H3' 7738   2.751   2.003   6.822 -0.4755 -0.3322 -0.3368
   72CHL1    C4 7739   2.752   2.117   7.038 -0.2031 -0.2325  0.3094
   72CHL1   H4A 7740   2.850   2.090   6.993  0.9357  1.1687  1.8323
   72CHL1   H4B 7741   2.723   2.217   7.000 -0.7110 -0.6128 -0.3246
   72CHL1    C5 7742   2.765   2.123   7.190 -0.2121  0.2484  0.0059
   72CHL1    C6 7743   2.777   2.242   7.246 -0.0682  0.7635 -0.1641
   72CHL1    H6 7744   2.779   2.334   7.186 -0.0712  0.9825  0.1669
   72CHL1    C7 7745   2.803   2.258   7.390 -0.1807 -0.2661  0.0275
   72CHL1   H7A 7746   2.874   2.339   7.414  0.6122 -0.7375 -0.6738
   72CHL1   H7B 7747   2.706   2.293   7.431 -0.8739 -2.3864  0.3070
   72CHL1    C8 7748   2.847   2.135   7.466 -0.0283 -0.3332 -0.1779
   72CHL1    H8 7749   2.956   2.127   7.445  0.2148  1.9401 -0.0342
   72CHL1   C14 7750   2.820   2.150   7.617  1.3249  0.3082  0.2752
   72CHL1   H14 7751   2.711   2.167   7.632  1.7019  1.0126  2.6209
   72CHL1   C15 7752   2.878   2.270   7.693 -0.7074  0.0564 -1.2317
   72CHL1  H15A 7753   2.985   2.285   7.665 -0.4631 -0.8664 -0.8148
   72CHL1  H15B 7754   2.822   2.366   7.692  1.2012  1.2687  0.5482
   72CHL1   C16 7755   2.878   2.216   7.838 -0.3320 -1.0605 -0.2744
   72CHL1  H16A 7756   2.986   2.204   7.862 -0.2831  0.7796  0.6421
   72CHL1  H16B 7757   2.831   2.285   7.912  0.6069 -1.0238  0.3126
   72CHL1   C17 7758   2.824   2.074   7.832  0.0945  0.5449  0.0183
   72CHL1   H17 7759   2.713   2.079   7.824 -0.0282 -1.7044 -0.3555
   72CHL1   C13 7760   2.857   2.027   7.694 -0.1965  0.4627  0.0366
   72CHL1   C18 7761   3.008   1.996   7.688  0.6797  0.4375  0.3338
   72CHL1  H18A 7762   3.037   1.914   7.758 -4.9193  0.4070  3.2022
   72CHL1  H18B 7763   3.030   1.961   7.585 -0.2710  0.5495  0.0841
   72CHL1  H18C 7764   3.073   2.085   7.703  2.1945 -0.6714  0.6394
   72CHL1   C12 7765   2.770   1.907   7.648 -0.0060 -1.6456 -0.5901
   72CHL1  H12A 7766   2.809   1.814   7.695 -0.1303 -1.5228 -0.2456
   72CHL1  H12B 7767   2.666   1.926   7.680  0.5826  2.4521 -0.6273
   72CHL1   C11 7768   2.786   1.891   7.494 -0.1626  0.3643 -0.1148
   72CHL1  H11A 7769   2.885   1.851   7.462  0.5164  2.7626 -1.2893
   72CHL1  H11B 7770   2.705   1.823   7.462  0.8395 -1.3477  0.8261
   72CHL1    C9 7771   2.766   2.015   7.413 -0.6122 -1.0081  0.4510
   72CHL1    H9 7772   2.661   2.046   7.434  0.5613  1.2209  3.9720
   72CHL1   C10 7773   2.779   1.993   7.258 -0.4880  0.2049  0.4769
   72CHL1   C19 7774   2.924   1.943   7.216  0.0407  0.6558 -0.0581
   72CHL1  H19A 7775   3.001   2.018   7.244 -1.4474  2.5654 -0.8478
   72CHL1  H19B 7776   2.938   1.847   7.270 -0.9992 -0.0001 -0.9176
   72CHL1  H19C 7777   2.930   1.928   7.106  0.2051 -1.7659  0.2292
   72CHL1    C1 7778   2.681   1.894   7.202  0.3862 -0.6061  0.2462
   72CHL1   H1A 7779   2.697   1.797   7.253 -0.5324 -0.1559  1.4237
   72CHL1   H1B 7780   2.576   1.923   7.224 -0.3847 -0.7768 -2.7105
   72CHL1    C2 7781   2.676   1.876   7.051  0.3037  0.7245 -0.2169
   72CHL1   H2A 7782   2.599   1.805   7.011  1.6343 -0.0740 -1.4621
   72CHL1   H2B 7783   2.771   1.844   7.003 -0.6243  2.3416 -3.4035
   72CHL1   C20 7784   2.860   2.002   7.957  0.4005  0.4398 -0.2745
   72CHL1   H20 7785   2.971   1.994   7.959  0.3154 -1.0604  1.2383
   72CHL1   C21 7786   2.808   1.853   7.954  0.6501  0.2315  0.4222
   72CHL1  H21A 7787   2.861   1.786   7.882 -0.7488  1.5048 -1.8970
   72CHL1  H21B 7788   2.703   1.863   7.921  0.1384  0.6523  2.1350
   72CHL1  H21C 7789   2.806   1.808   8.055  0.0654  0.6893  0.6155
   72CHL1   C22 7790   2.820   2.071   8.091 -0.3873  0.3994  0.0256
   72CHL1  H22A 7791   2.819   2.182   8.086  2.0896  0.6849  3.0274
   72CHL1  H22B 7792   2.722   2.022   8.109 -0.4164 -0.2755 -1.7500
   72CHL1   C23 7793   2.916   2.037   8.210 -0.3749 -0.3128  0.5080
   72CHL1  H23A 7794   2.890   1.933   8.240 -2.1879 -0.2935 -0.8547
   72CHL1  H23B 7795   3.023   2.041   8.180 -0.6838 -1.4558 -0.8318
   72CHL1   C24 7796   2.900   2.116   8.336 -0.3588 -0.3738  0.2881
   72CHL1  H24A 7797   2.914   2.224   8.315  0.9669 -1.2660 -4.5768
   72CHL1  H24B 7798   2.792   2.110   8.362 -0.3445 -0.3603  0.3517
   72CHL1   C25 7799   2.978   2.059   8.452  0.8857 -0.4204  0.6179
   72CHL1   H25 7800   2.949   1.951   8.457 -1.1371  0.1379  2.3332
   72CHL1   C26 7801   3.131   2.063   8.430 -0.1716  0.0218  0.0158
   72CHL1  H26A 7802   3.185   2.032   8.523 -1.9149  1.5429  1.6322
   72CHL1  H26B 7803   3.160   2.001   8.343  1.3843  0.0359  0.4854
   72CHL1  H26C 7804   3.175   2.164   8.409  2.1062 -1.1401 -1.1997
   72CHL1   C27 7805   2.936   2.123   8.583  0.2020  0.0273  0.0831
   72CHL1  H27A 7806   2.955   2.232   8.580  2.3332 -0.2141  1.9815
   72CHL1  H27B 7807   2.832   2.086   8.599  0.0308 -0.4771 -1.9064
   72CHL1  H27C 7808   2.995   2.087   8.670  1.1244 -1.6473 -1.1709
   73CHL1    C3 7809   3.380   4.686   6.816  0.3121  0.3388  0.4442
   73CHL1    H3 7810   3.270   4.673   6.827  0.2245 -0.6981 -1.3667
   73CHL1    O3 7811   3.399   4.691   6.675  0.0693 -0.4814 -0.1279
   73CHL1   H3' 7812   3.333   4.632   6.639 -0.1662 -2.4154  3.1133
   73CHL1    C4 7813   3.438   4.807   6.887 -0.4383  0.8173  0.3613
   73CHL1   H4A 7814   3.543   4.826   6.856 -0.9851  0.8297 -1.5841
   73CHL1   H4B 7815   3.379   4.892   6.849 -0.4960  0.9478  0.7375
   73CHL1    C5 7816   3.423   4.776   7.035 -0.0120 -0.4265 -0.1270
   73CHL1    C6 7817   3.360   4.866   7.116  0.0652 -0.3045 -0.4456
   73CHL1    H6 7818   3.311   4.957   7.078  1.1328  0.3601 -0.2659
   73CHL1    C7 7819   3.352   4.850   7.274 -0.2815 -0.3310 -0.2916
   73CHL1   H7A 7820   3.363   4.946   7.329  0.6511 -0.8880  0.5329
   73CHL1   H7B 7821   3.249   4.818   7.302 -0.8352  0.1540 -1.6671
   73CHL1    C8 7822   3.468   4.759   7.331  0.5976 -0.3033 -0.6285
   73CHL1    H8 7823   3.561   4.819   7.323 -0.2567  0.9660 -1.4106
   73CHL1   C14 7824   3.447   4.718   7.480  0.2453 -0.5580 -0.1151
   73CHL1   H14 7825   3.354   4.659   7.477  0.0733 -0.2612 -0.9544
   73CHL1   C15 7826   3.422   4.826   7.576  0.0980  0.4048 -0.6082
   73CHL1  H15A 7827   3.496   4.908   7.573 -1.0327  1.6028  1.5644
   73CHL1  H15B 7828   3.318   4.861   7.557  0.3716  1.3498 -0.4213
   73CHL1   C16 7829   3.448   4.743   7.707  0.2733 -0.6008 -0.0249
   73CHL1  H16A 7830   3.531   4.795   7.760 -0.5176  1.8672 -1.0966
   73CHL1  H16B 7831   3.366   4.744   7.782  1.7185 -1.1741  1.6389
   73CHL1   C17 7832   3.495   4.603   7.675 -0.2410 -0.0656  0.9491
   73CHL1   H17 7833   3.406   4.542   7.650  2.0389 -2.5037 -1.9664
   73CHL1   C13 7834   3.552   4.616   7.532  0.3390  0.0820  0.1019
   73CHL1   C18 7835   3.690   4.675   7.533 -0.3948 -0.2723 -0.5911
   73CHL1  H18A 7836   3.764   4.596   7.558  0.0018 -0.9818 -3.6280
   73CHL1  H18B 7837   3.722   4.714   7.434  1.7075  2.7707  1.1342
   73CHL1  H18C 7838   3.699   4.761   7.603 -0.1788  0.8592 -1.9694
   73CHL1   C12 7839   3.540   4.490   7.441  0.1922  0.0527  0.1131
   73CHL1  H12A 7840   3.622   4.422   7.472  1.1656  0.8727 -0.5963
   73CHL1  H12B 7841   3.442   4.438   7.442 -0.4671  1.2487 -0.1306
   73CHL1   C11 7842   3.572   4.529   7.299 -0.2863  0.0212  0.1851
   73CHL1  H11A 7843   3.675   4.570   7.302 -0.0630 -0.4705 -0.4298
   73CHL1  H11B 7844   3.570   4.438   7.234  1.1046 -0.4593  0.7794
   73CHL1    C9 7845   3.473   4.633   7.241 -0.4198  0.1826  0.5178
   73CHL1    H9 7846   3.374   4.584   7.250 -1.4942  2.0403 -0.4532
   73CHL1   C10 7847   3.496   4.654   7.084 -0.4333 -0.2835 -0.9367
   73CHL1   C19 7848   3.648   4.677   7.054 -0.1029 -0.7182  0.6898
   73CHL1  H19A 7849   3.672   4.697   6.948 -0.1770 -1.3012  0.5585
   73CHL1  H19B 7850   3.689   4.759   7.116  0.6281 -0.0067 -0.7088
   73CHL1  H19C 7851   3.712   4.588   7.073  1.3212 -0.1080 -1.0793
   73CHL1    C1 7852   3.443   4.536   7.005 -0.3561  0.5851  0.6420
   73CHL1   H1A 7853   3.492   4.440   7.035 -2.6171 -0.4056  1.4379
   73CHL1   H1B 7854   3.335   4.534   7.031 -0.7602  0.7635 -0.9086
   73CHL1    C2 7855   3.443   4.554   6.856 -0.6262 -0.2914  0.5581
   73CHL1   H2A 7856   3.380   4.481   6.802  0.5429  0.5815 -2.1317
   73CHL1   H2B 7857   3.545   4.549   6.814  0.0156 -1.6783  2.1624
   73CHL1   C20 7858   3.578   4.537   7.788 -0.8212  1.1688 -0.0969
   73CHL1   H20 7859   3.676   4.586   7.808 -1.1055  0.9965  1.9346
   73CHL1   C21 7860   3.602   4.388   7.752 -0.3684  0.0278  0.0605
   73CHL1  H21A 7861   3.664   4.379   7.660  0.1917 -1.9014  0.5608
   73CHL1  H21B 7862   3.509   4.327   7.742 -0.3533  0.1349 -0.7802
   73CHL1  H21C 7863   3.664   4.333   7.826  0.2001  1.8611  0.9893
   73CHL1   C22 7864   3.500   4.545   7.927  0.9016  0.1844  0.8556
   73CHL1  H22A 7865   3.481   4.652   7.951 -0.0167 -0.3482  2.7301
   73CHL1  H22B 7866   3.397   4.515   7.898  0.5825  1.8756  0.1675
   73CHL1   C23 7867   3.552   4.466   8.042 -0.0373 -0.1193  0.3619
   73CHL1  H23A 7868   3.471   4.470   8.118 -1.4919 -2.9272 -0.8554
   73CHL1  H23B 7869   3.569   4.360   8.013 -0.6458  0.3881 -2.0839
   73CHL1   C24 7870   3.688   4.528   8.097  0.3040 -1.0119 -0.0126
   73CHL1  H24A 7871   3.765   4.525   8.017  0.6555  2.9070  0.0090
   73CHL1  H24B 7872   3.660   4.634   8.113  2.0456 -0.1070 -2.3294
   73CHL1   C25 7873   3.745   4.465   8.221 -0.2435  0.3645 -0.7922
   73CHL1   H25 7874   3.840   4.517   8.246  2.1802 -2.8781 -2.5701
   73CHL1   C26 7875   3.652   4.477   8.345  0.1752  0.0191 -0.6293
   73CHL1  H26A 7876   3.711   4.454   8.436 -0.8554 -0.1076  0.0117
   73CHL1  H26B 7877   3.612   4.580   8.353  3.0857  1.2708 -0.6709
   73CHL1  H26C 7878   3.581   4.393   8.338 -0.5884  0.6617 -0.6939
   73CHL1   C27 7879   3.770   4.319   8.196 -0.2850  0.2996  0.3557
   73CHL1  H27A 7880   3.795   4.271   8.294 -0.3803 -0.6908 -0.0894
   73CHL1  H27B 7881   3.686   4.260   8.153  0.4312  0.3436 -1.1566
   73CHL1  H27C 7882   3.861   4.297   8.136 -0.9134 -0.2373 -0.4253
   74CHL1    C3 7883   5.451   4.232   6.907  0.1405 -1.1413  0.3009
   74CHL1    H3 7884   5.443   4.341   6.924 -0.6900 -0.9071 -1.3637
   74CHL1    O3 7885   5.446   4.221   6.765  0.1594  0.0840  0.0688
   74CHL1   H3' 7886   5.536   4.246   6.740 -0.6379  2.2279 -0.9368
   74CHL1    C4 7887   5.581   4.173   6.959  0.2030  0.6680 -0.7389
   74CHL1   H4A 7888   5.600   4.070   6.921  2.6574  0.5980  0.4470
   74CHL1   H4B 7889   5.663   4.225   6.905  1.8955 -0.0525  0.9945
   74CHL1    C5 7890   5.590   4.166   7.109 -0.5129  0.2378 -0.3823
   74CHL1    C6 7891   5.694   4.214   7.174 -0.4886  0.1136 -0.4021
   74CHL1    H6 7892   5.784   4.250   7.121  1.2729 -1.1531  1.5729
   74CHL1    C7 7893   5.717   4.203   7.318 -0.0621 -0.3350 -0.0553
   74CHL1   H7A 7894   5.820   4.167   7.337 -0.0344  0.3414  1.2112
   74CHL1   H7B 7895   5.695   4.302   7.364  0.4664 -0.2950  0.1182
   74CHL1    C8 7896   5.619   4.098   7.380  0.3223 -0.3443 -0.0926
   74CHL1    H8 7897   5.667   3.999   7.370  1.0433 -0.1227  0.9681
   74CHL1   C14 7898   5.609   4.127   7.531 -0.2886  0.0757  0.1234
   74CHL1   H14 7899   5.564   4.228   7.538 -0.0664  0.1668  0.2662
   74CHL1   C15 7900   5.748   4.131   7.611  0.3901  0.1544 -0.0986
   74CHL1  H15A 7901   5.811   4.048   7.572  0.2465  0.4536 -1.0075
   74CHL1  H15B 7902   5.812   4.220   7.592  0.4838 -0.1530 -1.2997
   74CHL1   C16 7903   5.702   4.116   7.753 -0.1749  0.1026  0.0837
   74CHL1  H16A 7904   5.757   4.032   7.800  0.4056  0.4365  0.0065
   74CHL1  H16B 7905   5.722   4.208   7.812  0.3801 -0.5212  0.8922
   74CHL1   C17 7906   5.548   4.068   7.756 -0.4062 -0.7525  0.0257
   74CHL1   H17 7907   5.487   4.159   7.776  0.4228 -0.1182 -0.2588
   74CHL1   C13 7908   5.523   4.031   7.607 -0.2223 -0.4225 -0.2754
   74CHL1   C18 7909   5.569   3.885   7.593  0.8466 -0.8027  0.3100
   74CHL1  H18A 7910   5.602   3.858   7.491  1.4431  0.7368  0.0721
   74CHL1  H18B 7911   5.654   3.864   7.662  0.5731 -0.0987  0.8752
   74CHL1  H18C 7912   5.478   3.828   7.622  0.9813 -0.9625  0.4222
   74CHL1   C12 7913   5.373   4.049   7.558  0.2456 -0.3642  0.4640
   74CHL1  H12A 7914   5.288   3.994   7.603 -1.3627  0.2044 -1.7686
   74CHL1  H12B 7915   5.352   4.158   7.567 -0.6332 -0.4701 -0.3132
   74CHL1   C11 7916   5.358   4.025   7.405 -0.3016  0.4570 -0.7562
   74CHL1  H11A 7917   5.359   3.914   7.412 -2.7189  0.4951  1.0573
   74CHL1  H11B 7918   5.258   4.056   7.367 -0.2221 -1.1098 -2.4141
   74CHL1    C9 7919   5.468   4.103   7.330  0.0365  0.2339 -0.6951
   74CHL1    H9 7920   5.447   4.210   7.349  1.3881  0.4398 -0.2117
   74CHL1   C10 7921   5.469   4.102   7.176 -0.0227 -1.1201  0.2504
   74CHL1   C19 7922   5.476   3.946   7.133 -0.1055  0.0137 -0.4463
   74CHL1  H19A 7923   5.400   3.898   7.198  1.2886 -0.8219  0.6117
   74CHL1  H19B 7924   5.458   3.929   7.024 -1.3548 -0.8688 -0.1214
   74CHL1  H19C 7925   5.581   3.916   7.153 -0.2261  1.4869  3.0079
   74CHL1    C1 7926   5.335   4.157   7.123  0.3509  0.4753  0.2590
   74CHL1   H1A 7927   5.252   4.086   7.145  0.1658 -0.2856 -2.5679
   74CHL1   H1B 7928   5.317   4.259   7.165  0.1242  0.5621 -0.0492
   74CHL1    C2 7929   5.329   4.164   6.967  0.4999  0.1761  0.3622
   74CHL1   H2A 7930   5.231   4.209   6.943 -0.1819 -1.2501  0.3449
   74CHL1   H2B 7931   5.331   4.060   6.926  1.1784 -0.3187  1.6075
   74CHL1   C20 7932   5.514   3.972   7.867  0.0638 -0.3721  0.3253
   74CHL1   H20 7933   5.584   3.887   7.856  0.1714 -0.6241  2.4075
   74CHL1   C21 7934   5.370   3.912   7.861  0.1671  0.1659 -0.1764
   74CHL1  H21A 7935   5.349   3.838   7.782  0.0760 -0.2325  0.2165
   74CHL1  H21B 7936   5.299   3.996   7.851  0.3776  0.6722  2.0775
   74CHL1  H21C 7937   5.340   3.855   7.952  0.0573  0.4639 -0.0244
   74CHL1   C22 7938   5.542   4.028   8.014  0.2737 -1.0776  0.3860
   74CHL1  H22A 7939   5.643   4.074   8.023 -0.1667 -0.4458  2.7473
   74CHL1  H22B 7940   5.471   4.114   8.020  2.0890  0.4514  1.0563
   74CHL1   C23 7941   5.529   3.920   8.124 -0.5718 -0.8403 -0.7119
   74CHL1  H23A 7942   5.422   3.911   8.154 -0.1669 -0.3205  1.0040
   74CHL1  H23B 7943   5.568   3.820   8.094 -1.4641 -1.0222 -1.3163
   74CHL1   C24 7944   5.590   3.959   8.261  0.4587  0.7980  0.0010
   74CHL1  H24A 7945   5.699   3.947   8.238 -0.1168 -0.1289 -2.5836
   74CHL1  H24B 7946   5.572   4.067   8.282 -1.4819  0.5759 -0.3957
   74CHL1   C25 7947   5.549   3.885   8.384 -0.0781 -0.2367  0.1646
   74CHL1   H25 7948   5.567   3.776   8.368  1.7315  0.0896 -0.3575
   74CHL1   C26 7949   5.650   3.914   8.498  0.3167  0.2046 -0.3657
   74CHL1  H26A 7950   5.605   3.859   8.583 -0.1439 -0.3190 -0.9423
   74CHL1  H26B 7951   5.751   3.880   8.468  0.5797 -0.3990  1.1406
   74CHL1  H26C 7952   5.641   4.020   8.530 -1.9732 -0.3422  1.0451
   74CHL1   C27 7953   5.407   3.903   8.431  0.0367  0.4596 -0.1627
   74CHL1  H27A 7954   5.396   4.009   8.465  0.2296  0.6798 -0.7673
   74CHL1  H27B 7955   5.351   3.887   8.336  4.5852 -1.2241 -2.9065
   74CHL1  H27C 7956   5.360   3.845   8.513 -0.6284  1.4784  0.1954
   75CHL1    C3 7957   3.840   4.277   6.767  0.5033  0.0265 -0.1883
   75CHL1    H3 7958   3.823   4.167   6.776  0.7011  0.0325  0.2784
   75CHL1    O3 7959   3.793   4.323   6.645  0.3885 -0.4521  0.9965
   75CHL1   H3' 7960   3.698   4.323   6.659  0.5466  2.2611  2.9212
   75CHL1    C4 7961   3.759   4.347   6.883 -1.2066 -0.0871 -0.2839
   75CHL1   H4A 7962   3.762   4.457   6.868 -0.3160 -0.0059  0.4389
   75CHL1   H4B 7963   3.651   4.326   6.872 -1.3731 -0.4213  1.6862
   75CHL1    C5 7964   3.817   4.312   7.023 -0.2587  0.5021 -0.3271
   75CHL1    C6 7965   3.741   4.240   7.107  0.1092  0.7878 -0.3866
   75CHL1    H6 7966   3.641   4.215   7.070 -0.1802  0.7303  0.4066
   75CHL1    C7 7967   3.788   4.203   7.247 -0.2092 -0.4081  0.4629
   75CHL1   H7A 7968   3.706   4.226   7.318 -1.1314  2.2715 -1.2994
   75CHL1   H7B 7969   3.815   4.096   7.252  0.5290 -0.2159  0.6120
   75CHL1    C8 7970   3.922   4.278   7.278  0.7807  0.1992 -0.0445
   75CHL1    H8 7971   3.886   4.379   7.303  0.7070 -0.0584  0.9164
   75CHL1   C14 7972   3.971   4.218   7.410 -1.0101 -0.2901  0.8019
   75CHL1   H14 7973   4.000   4.115   7.382 -1.2546 -0.8635  2.5286
   75CHL1   C15 7974   3.888   4.190   7.531  0.2462 -0.0179  0.9739
   75CHL1  H15A 7975   3.812   4.268   7.553 -1.7558 -0.9833 -1.8320
   75CHL1  H15B 7976   3.824   4.101   7.516  0.4781 -0.3157  1.7329
   75CHL1   C16 7977   3.983   4.181   7.650  0.1102  0.3416 -0.0581
   75CHL1  H16A 7978   3.964   4.261   7.724  2.0670 -1.4966  2.6262
   75CHL1  H16B 7979   3.981   4.083   7.703 -0.4167 -1.3071 -2.9138
   75CHL1   C17 7980   4.127   4.199   7.592 -0.4208 -0.3026  0.8032
   75CHL1   H17 7981   4.157   4.103   7.546 -1.6067 -0.5260  0.4389
   75CHL1   C13 7982   4.104   4.285   7.463 -0.2121 -0.4667 -0.0341
   75CHL1   C18 7983   4.070   4.434   7.504 -0.4764 -0.3943  0.8047
   75CHL1  H18A 7984   4.142   4.507   7.461 -1.4203  0.2386  0.2764
   75CHL1  H18B 7985   3.978   4.462   7.449  2.1388  1.1351 -3.2686
   75CHL1  H18C 7986   4.068   4.456   7.612 -1.1637  1.5933  0.4136
   75CHL1   C12 7987   4.211   4.273   7.353 -0.6259 -0.0980 -0.1194
   75CHL1  H12A 7988   4.305   4.324   7.384 -1.7108  2.9910 -1.4586
   75CHL1  H12B 7989   4.234   4.165   7.341  0.5614  0.1016  0.2247
   75CHL1   C11 7990   4.169   4.336   7.219  1.2785  0.5547  0.0955
   75CHL1  H11A 7991   4.153   4.446   7.229  3.0326  0.7425  1.2413
   75CHL1  H11B 7992   4.241   4.319   7.136 -0.7582 -2.1627 -1.2748
   75CHL1    C9 7993   4.029   4.281   7.165 -0.3386  0.1839  0.0273
   75CHL1    H9 7994   4.058   4.174   7.151 -0.8913 -0.4999  3.2532
   75CHL1   C10 7995   3.966   4.342   7.039 -0.4438 -0.6430  1.0437
   75CHL1   C19 7996   3.996   4.498   7.037 -0.5058  0.1394  0.0240
   75CHL1  H19A 7997   4.104   4.523   7.038 -0.7041  1.0674 -0.2724
   75CHL1  H19B 7998   3.947   4.551   6.952  0.7248  1.6157  0.2020
   75CHL1  H19C 7999   3.951   4.545   7.127 -2.4341 -2.2742  0.4251
   75CHL1    C1 8000   4.037   4.273   6.919 -0.1136  0.6681 -0.2091
   75CHL1   H1A 8001   4.144   4.300   6.927  0.1277 -0.3733  0.2996
   75CHL1   H1B 8002   4.023   4.163   6.931 -0.7987  0.8892  1.2682
   75CHL1    C2 8003   3.982   4.313   6.786 -0.0541 -0.1781  0.8407
   75CHL1   H2A 8004   4.040   4.255   6.711  0.7585 -0.3758  1.6041
   75CHL1   H2B 8005   3.996   4.420   6.761  0.5823 -0.5389 -0.4249
   75CHL1   C20 8006   4.226   4.234   7.701  0.2418 -0.6497 -0.4275
   75CHL1   H20 8007   4.191   4.323   7.757  0.1706 -0.6714 -0.4375
   75CHL1   C21 8008   4.359   4.265   7.637  0.6502  0.3013  0.7065
   75CHL1  H21A 8009   4.354   4.361   7.581 -0.4986  0.9882  1.9296
   75CHL1  H21B 8010   4.394   4.178   7.578  1.1552  0.0819  1.3150
   75CHL1  H21C 8011   4.439   4.282   7.713  1.5841 -0.3444 -0.1025
   75CHL1   C22 8012   4.234   4.117   7.805 -0.8939  0.0072  0.0385
   75CHL1  H22A 8013   4.137   4.090   7.851 -0.4693 -0.5830  0.6032
   75CHL1  H22B 8014   4.271   4.024   7.757  0.5260  0.5695 -0.0019
   75CHL1   C23 8015   4.334   4.151   7.916 -0.1374 -0.0104  0.4312
   75CHL1  H23A 8016   4.440   4.144   7.885 -0.7665  0.6871 -2.0774
   75CHL1  H23B 8017   4.310   4.251   7.958  0.9964  0.4366  0.0575
   75CHL1   C24 8018   4.333   4.051   8.033 -0.3519 -0.2937 -0.5248
   75CHL1  H24A 8019   4.356   3.948   7.999  1.3413  0.0249 -0.4397
   75CHL1  H24B 8020   4.426   4.071   8.091  0.0697  0.3791 -1.4081
   75CHL1   C25 8021   4.201   4.056   8.121 -0.1773 -0.0189 -0.0924
   75CHL1   H25 8022   4.111   4.021   8.066 -0.9147  0.8128  0.5484
   75CHL1   C26 8023   4.219   3.964   8.233 -0.3266  0.0707 -0.4744
   75CHL1  H26A 8024   4.300   3.999   8.300 -0.8119 -0.7685  0.5920
   75CHL1  H26B 8025   4.127   3.947   8.294  2.2122 -1.7371  3.2324
   75CHL1  H26C 8026   4.260   3.863   8.209  0.6086  0.2687  0.2290
   75CHL1   C27 8027   4.165   4.201   8.170 -0.3824 -0.1522 -0.1587
   75CHL1  H27A 8028   4.082   4.186   8.243 -0.5012  1.7139  0.1334
   75CHL1  H27B 8029   4.247   4.247   8.228 -0.9884  0.2228  0.4158
   75CHL1  H27C 8030   4.121   4.272   8.097 -1.3001  0.2080  0.7121
   76CHL1    C3 8031   1.121   5.134   7.220  0.2779 -0.2155  0.0325
   76CHL1    H3 8032   1.230   5.114   7.222  0.2619 -0.4836 -0.8888
   76CHL1    O3 8033   1.078   5.160   7.085  0.3823 -0.3637  0.0701
   76CHL1   H3' 8034   1.102   5.253   7.080  1.6135 -0.6818 -0.2052
   76CHL1    C4 8035   1.041   5.009   7.267  0.2879  0.4292  0.2805
   76CHL1   H4A 8036   0.934   5.041   7.264 -0.2716 -1.2947  0.3185
   76CHL1   H4B 8037   1.052   4.930   7.189 -1.9025 -0.6398  0.9659
   76CHL1    C5 8038   1.071   4.976   7.410  0.1636 -0.4124  0.0349
   76CHL1    C6 8039   1.119   4.858   7.438 -0.1084 -0.1356  0.5298
   76CHL1    H6 8040   1.145   4.793   7.353  0.6053  1.4308 -0.4929
   76CHL1    C7 8041   1.158   4.808   7.575  0.1141 -0.0628  0.3191
   76CHL1   H7A 8042   1.121   4.704   7.584 -0.4852  0.1206 -0.0089
   76CHL1   H7B 8043   1.268   4.794   7.577  0.0555 -0.5068  0.4612
   76CHL1    C8 8044   1.091   4.900   7.681 -0.2663 -0.1942 -1.1451
   76CHL1    H8 8045   0.981   4.889   7.687 -0.8177  3.9592 -0.0222
   76CHL1   C14 8046   1.147   4.867   7.815 -0.4094 -0.1710 -0.4733
   76CHL1   H14 8047   1.258   4.873   7.808 -0.2982  1.9300  1.8175
   76CHL1   C15 8048   1.115   4.723   7.871 -0.6372 -0.4615 -0.5774
   76CHL1  H15A 8049   1.005   4.708   7.863 -0.9649  1.1049  0.5559
   76CHL1  H15B 8050   1.151   4.635   7.813 -0.3885  0.2078 -1.4786
   76CHL1   C16 8051   1.160   4.736   8.016  0.7426 -0.5527  0.5067
   76CHL1  H16A 8052   1.085   4.691   8.084  0.7173  0.8153  1.4269
   76CHL1  H16B 8053   1.262   4.692   8.026  1.8276  1.2286 -1.8110
   76CHL1   C17 8054   1.186   4.884   8.043 -0.0562 -0.3304  0.1265
   76CHL1   H17 8055   1.291   4.902   8.012 -0.6522  0.1321 -1.7323
   76CHL1   C13 8056   1.115   4.966   7.937 -0.3303  0.3696  0.1938
   76CHL1   C18 8057   0.958   4.973   7.971 -0.4067  0.6084  0.9205
   76CHL1  H18A 8058   0.916   4.875   8.001  0.0463  0.4620  1.0899
   76CHL1  H18B 8059   0.947   5.043   8.057 -0.7400  0.3809  1.0637
   76CHL1  H18C 8060   0.899   5.016   7.887  0.3415 -1.9040 -1.0031
   76CHL1   C12 8061   1.166   5.109   7.909 -0.5067  0.1370 -0.3359
   76CHL1  H12A 8062   1.139   5.185   7.985  1.3143  0.8066 -0.3268
   76CHL1  H12B 8063   1.277   5.108   7.905 -0.5146 -0.6355 -0.6913
   76CHL1   C11 8064   1.113   5.157   7.770 -0.8122 -0.3057 -0.4406
   76CHL1  H11A 8065   1.004   5.171   7.788 -0.9509 -1.3823 -0.3919
   76CHL1  H11B 8066   1.156   5.253   7.733 -1.6003 -0.5408 -2.0122
   76CHL1    C9 8067   1.121   5.052   7.655  0.2520  0.2719  0.1658
   76CHL1    H9 8068   1.230   5.056   7.638  0.0055 -0.6287 -1.9184
   76CHL1   C10 8069   1.054   5.089   7.523 -0.0499 -0.6269  0.1374
   76CHL1   C19 8070   0.907   5.117   7.550 -0.4306 -0.1663  0.0459
   76CHL1  H19A 8071   0.893   5.219   7.592 -1.2153 -0.8830  1.5947
   76CHL1  H19B 8072   0.845   5.129   7.459  1.0153  0.8840 -0.8440
   76CHL1  H19C 8073   0.864   5.037   7.614 -0.6227  0.0334  0.1686
   76CHL1    C1 8074   1.108   5.224   7.459  0.2455  0.8062  0.1763
   76CHL1   H1A 8075   1.054   5.308   7.508 -1.9376 -0.3208 -0.1352
   76CHL1   H1B 8076   1.216   5.234   7.482  0.4013  0.8227 -0.5345
   76CHL1    C2 8077   1.087   5.251   7.310 -1.0814 -0.8092 -0.7116
   76CHL1   H2A 8078   1.143   5.345   7.291  0.2746 -1.3381  0.5127
   76CHL1   H2B 8079   0.981   5.278   7.287 -0.4186  2.3878 -0.5254
   76CHL1   C20 8080   1.161   4.925   8.193  0.5282 -0.8476 -0.0998
   76CHL1   H20 8081   1.052   4.943   8.206  0.7006  0.0167  0.2057
   76CHL1   C21 8082   1.198   5.070   8.232  0.7004  0.0476 -0.2347
   76CHL1  H21A 8083   1.120   5.147   8.214 -1.5209 -0.6128  4.8267
   76CHL1  H21B 8084   1.297   5.100   8.191  1.0555  1.0095  1.2203
   76CHL1  H21C 8085   1.207   5.081   8.343 -0.8536  1.6247 -0.2286
   76CHL1   C22 8086   1.216   4.826   8.296  0.5673  0.0633  0.0039
   76CHL1  H22A 8087   1.187   4.867   8.395  0.6271  0.7332 -0.2505
   76CHL1  H22B 8088   1.142   4.745   8.277 -1.2410  1.2725  1.4278
   76CHL1   C23 8089   1.360   4.778   8.298 -0.4271 -0.2055  0.3415
   76CHL1  H23A 8090   1.389   4.767   8.191  1.2486  1.0131  0.6385
   76CHL1  H23B 8091   1.426   4.857   8.338  1.0237 -0.6743 -1.0330
   76CHL1   C24 8092   1.396   4.644   8.380  0.4860  0.4623  0.6402
   76CHL1  H24A 8093   1.328   4.563   8.345  0.2833  0.5638  0.7955
   76CHL1  H24B 8094   1.501   4.616   8.357  0.2608 -0.1119  0.2815
   76CHL1   C25 8095   1.361   4.647   8.526  0.8672  0.7480  0.2363
   76CHL1   H25 8096   1.251   4.654   8.533  0.6385 -1.4091 -0.3567
   76CHL1   C26 8097   1.407   4.522   8.598  0.1476 -0.0562  0.2747
   76CHL1  H26A 8098   1.351   4.506   8.692 -0.3576 -0.5008 -0.0983
   76CHL1  H26B 8099   1.384   4.433   8.535  1.5864  0.9539 -1.7908
   76CHL1  H26C 8100   1.517   4.534   8.612  0.0143  2.0366 -0.2158
   76CHL1   C27 8101   1.406   4.781   8.597  0.0748  0.2061 -0.8988
   76CHL1  H27A 8102   1.333   4.864   8.586 -0.7817 -0.2882  0.7309
   76CHL1  H27B 8103   1.410   4.761   8.706 -0.5685  0.0410 -0.8999
   76CHL1  H27C 8104   1.506   4.814   8.562  0.9465  2.0706  2.8850
   77CHL1    C3 8105   1.893   4.568   6.695 -0.0378 -0.4843  0.7815
   77CHL1    H3 8106   1.996   4.610   6.703 -0.2166 -0.1511  1.4778
   77CHL1    O3 8107   1.851   4.586   6.564 -0.5180 -0.4599 -0.1129
   77CHL1   H3' 8108   1.767   4.539   6.559 -1.3827  0.9466  0.6412
   77CHL1    C4 8109   1.896   4.411   6.723  0.1164 -0.6931 -0.6930
   77CHL1   H4A 8110   1.788   4.389   6.710 -0.0242 -0.8750  0.6732
   77CHL1   H4B 8111   1.955   4.364   6.642  0.9391 -0.7396 -0.0764
   77CHL1    C5 8112   1.956   4.390   6.866  0.6205  0.2285  0.1929
   77CHL1    C6 8113   2.065   4.317   6.880 -0.0528  0.2847 -0.0869
   77CHL1    H6 8114   2.125   4.293   6.791  0.7943  2.4047 -0.1498
   77CHL1    C7 8115   2.132   4.282   7.009  0.7560 -0.2019  0.1963
   77CHL1   H7A 8116   2.166   4.177   7.015 -0.2555 -0.5186  0.6151
   77CHL1   H7B 8117   2.224   4.344   7.017  1.1829 -0.7871 -0.1534
   77CHL1    C8 8118   2.027   4.314   7.128 -0.0874 -0.2943 -0.3446
   77CHL1    H8 8119   1.947   4.238   7.130 -0.3541  0.0026  0.5750
   77CHL1   C14 8120   2.112   4.314   7.255 -0.0566 -0.7836 -0.5745
   77CHL1   H14 8121   2.188   4.393   7.239  0.5067 -1.0515  0.7075
   77CHL1   C15 8122   2.204   4.189   7.293 -0.1865 -0.0271  0.1823
   77CHL1  H15A 8123   2.160   4.091   7.263  1.4777 -1.0997  1.0828
   77CHL1  H15B 8124   2.312   4.199   7.266 -0.3873  2.8559  0.0978
   77CHL1   C16 8125   2.202   4.201   7.449  0.3681  0.2575 -0.3604
   77CHL1  H16A 8126   2.141   4.116   7.487  0.9975  0.5637  1.4383
   77CHL1  H16B 8127   2.307   4.190   7.482  1.2526  0.7984 -2.8116
   77CHL1   C17 8128   2.145   4.331   7.497  0.7001 -0.5735 -0.3946
   77CHL1   H17 8129   2.221   4.409   7.476 -0.0126  0.0052 -0.9284
   77CHL1   C13 8130   2.035   4.355   7.377  0.5860 -0.5166 -0.4944
   77CHL1   C18 8131   1.912   4.258   7.400  0.6370 -0.8400  0.2647
   77CHL1  H18A 8132   1.849   4.262   7.309 -1.9853  1.2398  2.0396
   77CHL1  H18B 8133   1.937   4.152   7.422 -0.6461 -1.0463  0.7947
   77CHL1  H18C 8134   1.845   4.300   7.477 -1.2594 -0.8244 -1.3207
   77CHL1   C12 8135   1.988   4.498   7.360 -0.0053 -0.3694 -0.4838
   77CHL1  H12A 8136   1.921   4.532   7.441 -1.0426 -1.7639 -0.7085
   77CHL1  H12B 8137   2.075   4.566   7.353  0.2024 -0.5605  0.2175
   77CHL1   C11 8138   1.898   4.516   7.236 -0.4588 -0.7923 -0.6371
   77CHL1  H11A 8139   1.801   4.465   7.255  0.5614 -2.2395  0.9520
   77CHL1  H11B 8140   1.870   4.623   7.222 -0.3574 -0.9121 -1.8882
   77CHL1    C9 8141   1.964   4.452   7.109  0.2162 -0.1994 -0.0113
   77CHL1    H9 8142   2.052   4.514   7.083 -0.6510  0.2502 -2.0944
   77CHL1   C10 8143   1.878   4.456   6.979  0.1734 -0.7340  0.1707
   77CHL1   C19 8144   1.743   4.378   7.002 -0.7254  0.4176 -0.0529
   77CHL1  H19A 8145   1.776   4.274   7.018  1.3204  0.8504 -1.0990
   77CHL1  H19B 8146   1.686   4.420   7.087 -1.2195 -3.4819  1.7638
   77CHL1  H19C 8147   1.673   4.385   6.916 -2.0620  2.1073  1.0981
   77CHL1    C1 8148   1.850   4.609   6.942 -0.0400  0.4812  0.7539
   77CHL1   H1A 8149   1.774   4.647   7.014  0.1794  2.1968  0.1193
   77CHL1   H1B 8150   1.945   4.666   6.944 -0.5597  1.4173 -0.2384
   77CHL1    C2 8151   1.796   4.634   6.796  0.2141 -0.6176 -0.5744
   77CHL1   H2A 8152   1.781   4.741   6.772 -0.5261 -0.8211 -1.0664
   77CHL1   H2B 8153   1.696   4.587   6.783 -0.4359  0.5963 -0.1077
   77CHL1   C20 8154   2.097   4.362   7.644 -0.3934 -0.5041 -0.2741
   77CHL1   H20 8155   1.988   4.346   7.659 -0.5435 -0.4206 -1.2134
   77CHL1   C21 8156   2.127   4.514   7.677 -0.0162  0.4589 -0.3377
   77CHL1  H21A 8157   2.234   4.541   7.687  0.0526  0.1728 -0.2973
   77CHL1  H21B 8158   2.085   4.536   7.777  1.3122  1.6264 -0.0094
   77CHL1  H21C 8159   2.076   4.574   7.598  0.1019  2.8969  1.3367
   77CHL1   C22 8160   2.169   4.264   7.742 -0.0111 -0.3126  0.0004
   77CHL1  H22A 8161   2.154   4.159   7.709 -0.3818 -0.2483 -0.0396
   77CHL1  H22B 8162   2.279   4.276   7.734 -0.2029  0.7771 -1.3384
   77CHL1   C23 8163   2.118   4.273   7.889  0.2478  0.3437 -0.4699
   77CHL1  H23A 8164   2.129   4.377   7.926  0.0127 -0.3645  1.7395
   77CHL1  H23B 8165   2.011   4.248   7.899  0.9878 -2.3553  1.8543
   77CHL1   C24 8166   2.198   4.176   7.975 -0.5740  0.4832  0.4309
   77CHL1  H24A 8167   2.157   4.076   7.947  2.3654 -0.8741  0.6458
   77CHL1  H24B 8168   2.307   4.179   7.956 -0.0195 -0.2871  3.0721
   77CHL1   C25 8169   2.193   4.190   8.128  0.2406 -0.0679  0.0315
   77CHL1   H25 8170   2.091   4.221   8.160 -0.3124  0.2593 -1.8739
   77CHL1   C26 8171   2.231   4.056   8.194 -0.4872  0.6617  0.2725
   77CHL1  H26A 8172   2.226   4.068   8.304 -2.4340 -1.2115  0.4330
   77CHL1  H26B 8173   2.159   3.979   8.161 -0.6171  1.6625 -1.9397
   77CHL1  H26C 8174   2.335   4.022   8.172 -1.7976 -1.7481 -2.7739
   77CHL1   C27 8175   2.289   4.299   8.179  0.4210 -0.7830 -0.4616
   77CHL1  H27A 8176   2.387   4.298   8.126  0.1585 -0.5140 -0.9523
   77CHL1  H27B 8177   2.242   4.396   8.153 -0.5570 -1.0553  0.2571
   77CHL1  H27C 8178   2.293   4.292   8.290 -1.5703 -3.0325 -0.4622
   78CHL1    C3 8179   4.013   0.553   6.945 -0.5028 -0.0578 -0.0506
   78CHL1    H3 8180   3.903   0.543   6.931 -0.3755 -0.1399 -1.0177
   78CHL1    O3 8181   4.078   0.535   6.815  0.0302 -0.1687  0.1898
   78CHL1   H3' 8182   4.142   0.605   6.809  0.0596 -0.1063  1.0675
   78CHL1    C4 8183   4.055   0.693   6.996 -0.4666 -0.4185  0.0948
   78CHL1   H4A 8184   4.164   0.713   6.982 -0.3843  0.5012  1.7862
   78CHL1   H4B 8185   4.002   0.773   6.940  2.2722  0.9453 -0.7584
   78CHL1    C5 8186   4.011   0.705   7.139  0.1456 -0.3638  0.3028
   78CHL1    C6 8187   3.946   0.818   7.179 -0.3948  0.4548 -0.0968
   78CHL1    H6 8188   3.947   0.902   7.107  4.2027  2.8210  2.2754
   78CHL1    C7 8189   3.877   0.848   7.312 -0.3907  0.3734 -1.0204
   78CHL1   H7A 8190   3.893   0.954   7.342 -1.4648  0.7597 -1.7575
   78CHL1   H7B 8191   3.767   0.843   7.305 -0.2816 -0.2104 -2.8661
   78CHL1    C8 8192   3.930   0.756   7.428 -0.0410  0.3950  0.5143
   78CHL1    H8 8193   4.029   0.791   7.464  1.1694  1.2535 -3.2205
   78CHL1   C14 8194   3.835   0.754   7.545 -1.0448 -0.4922 -0.4016
   78CHL1   H14 8195   3.736   0.717   7.511 -0.8277 -2.3407  0.8264
   78CHL1   C15 8196   3.791   0.883   7.605 -0.1534 -0.2636  0.4716
   78CHL1  H15A 8197   3.880   0.950   7.602  0.8195 -1.4787  1.0772
   78CHL1  H15B 8198   3.710   0.932   7.547 -0.0498  0.0086  0.5528
   78CHL1   C16 8199   3.755   0.849   7.757  0.8704  0.1029  0.8113
   78CHL1  H16A 8200   3.817   0.915   7.821 -0.0106 -0.7308  2.5814
   78CHL1  H16B 8201   3.650   0.883   7.768  1.3351  1.6071  0.7444
   78CHL1   C17 8202   3.782   0.697   7.778  0.4901  0.4181  0.0969
   78CHL1   H17 8203   3.685   0.648   7.756  0.4410  0.9632 -0.9660
   78CHL1   C13 8204   3.872   0.662   7.662 -0.3151 -0.3610  0.2051
   78CHL1   C18 8205   4.017   0.696   7.715  0.0149 -0.0251 -0.4434
   78CHL1  H18A 8206   4.092   0.669   7.638  0.6896  0.4916  0.0166
   78CHL1  H18B 8207   4.035   0.805   7.731 -2.7724  0.1129  3.1583
   78CHL1  H18C 8208   4.048   0.638   7.805 -1.0710  0.3983  0.2315
   78CHL1   C12 8209   3.866   0.518   7.596  0.0239 -0.2436 -0.3627
   78CHL1  H12A 8210   3.881   0.440   7.674  0.9237  1.4588  1.2447
   78CHL1  H12B 8211   3.765   0.497   7.556 -0.0375 -0.5652 -0.0498
   78CHL1   C11 8212   3.965   0.496   7.482 -0.4182 -0.2479  0.1834
   78CHL1  H11A 8213   4.070   0.500   7.518 -0.5223  1.4003  0.3761
   78CHL1  H11B 8214   3.950   0.394   7.442 -1.6879  0.8956 -2.5055
   78CHL1    C9 8215   3.941   0.606   7.373  0.0388 -0.2909  0.2545
   78CHL1    H9 8216   3.845   0.577   7.323 -0.0823 -0.5084  0.6068
   78CHL1   C10 8217   4.027   0.588   7.244 -0.6315 -0.8945 -0.0292
   78CHL1   C19 8218   4.175   0.589   7.289  0.0006 -0.4746 -0.1578
   78CHL1  H19A 8219   4.193   0.499   7.351  0.7626  0.7073  1.4244
   78CHL1  H19B 8220   4.245   0.587   7.203 -1.1993 -0.3029 -1.1632
   78CHL1  H19C 8221   4.204   0.672   7.358 -2.0059 -0.4477  0.7026
   78CHL1    C1 8222   3.990   0.456   7.175  0.7097 -0.2957 -0.0735
   78CHL1   H1A 8223   4.034   0.370   7.231  3.0084  0.4835 -0.5643
   78CHL1   H1B 8224   3.880   0.456   7.168  0.5145 -0.6634  2.2858
   78CHL1    C2 8225   4.051   0.442   7.036  0.3515  0.0898  0.5022
   78CHL1   H2A 8226   4.025   0.340   7.003 -1.4857  1.0035 -1.0491
   78CHL1   H2B 8227   4.161   0.452   7.047  0.7625  0.6071 -3.0515
   78CHL1   C20 8228   3.816   0.654   7.918  0.5380 -0.0278  0.6553
   78CHL1   H20 8229   3.911   0.707   7.940  0.6130  1.4761 -2.6436
   78CHL1   C21 8230   3.850   0.506   7.933  0.1001 -0.2644 -0.4657
   78CHL1  H21A 8231   3.887   0.496   8.037 -0.6953  1.3859  0.0176
   78CHL1  H21B 8232   3.931   0.475   7.864 -0.3335  0.2570 -1.2256
   78CHL1  H21C 8233   3.765   0.439   7.908  0.6463 -0.2502 -2.5463
   78CHL1   C22 8234   3.707   0.709   8.015  0.0384  0.0916 -0.5044
   78CHL1  H22A 8235   3.701   0.818   7.994  2.4913  0.3143 -0.3546
   78CHL1  H22B 8236   3.612   0.652   8.001  0.2095 -0.3446  0.1109
   78CHL1   C23 8237   3.752   0.710   8.169  0.6243  0.0982 -0.6073
   78CHL1  H23A 8238   3.746   0.605   8.205  0.1250  0.5113  0.5737
   78CHL1  H23B 8239   3.853   0.755   8.181  0.5063  1.2497 -3.2565
   78CHL1   C24 8240   3.659   0.788   8.268  0.0170  0.2375  0.2989
   78CHL1  H24A 8241   3.687   0.896   8.268  1.5815 -0.1322  1.3616
   78CHL1  H24B 8242   3.559   0.768   8.223 -0.0114 -0.0515  0.4858
   78CHL1   C25 8243   3.672   0.746   8.418 -0.3451 -0.7327 -0.1683
   78CHL1   H25 8244   3.619   0.648   8.422 -0.9521 -0.3742  0.8327
   78CHL1   C26 8245   3.810   0.711   8.471  0.1904  0.3427  0.0422
   78CHL1  H26A 8246   3.864   0.626   8.424 -2.8427 -0.3141 -2.5891
   78CHL1  H26B 8247   3.885   0.793   8.473  1.2293 -0.5329  3.6902
   78CHL1  H26C 8248   3.800   0.679   8.577  0.7937  1.2724  0.3878
   78CHL1   C27 8249   3.607   0.858   8.505 -0.1197  0.0228 -0.9940
   78CHL1  H27A 8250   3.648   0.956   8.474 -0.5026  0.7312  0.6349
   78CHL1  H27B 8251   3.498   0.869   8.484 -0.2155  0.5081 -0.2660
   78CHL1  H27C 8252   3.639   0.854   8.611 -1.3914  3.0934 -0.3862
   79CHL1    C3 8253   3.650   6.355   7.135 -0.0005 -0.2904 -0.3615
   79CHL1    H3 8254   3.673   6.255   7.093 -1.6014 -1.6913  1.9106
   79CHL1    O3 8255   3.596   6.437   7.034 -0.4158 -0.5107 -0.3910
   79CHL1   H3' 8256   3.535   6.487   7.089 -0.6505 -0.7108 -0.4747
   79CHL1    C4 8257   3.541   6.352   7.243  0.5893  0.8467  0.5148
   79CHL1   H4A 8258   3.513   6.459   7.258  1.1878  0.7875  2.2601
   79CHL1   H4B 8259   3.458   6.294   7.197  0.0603  0.5731  1.7698
   79CHL1    C5 8260   3.601   6.274   7.355  0.1533 -0.2616  0.7866
   79CHL1    C6 8261   3.541   6.167   7.398  0.5859  0.5511  0.0048
   79CHL1    H6 8262   3.456   6.122   7.344 -0.3033  0.0565  1.7748
   79CHL1    C7 8263   3.582   6.090   7.520 -0.2487  0.0084  0.1720
   79CHL1   H7A 8264   3.491   6.075   7.582 -0.3705  0.0180 -0.0038
   79CHL1   H7B 8265   3.627   5.996   7.481  1.1550  1.3158 -1.4569
   79CHL1    C8 8266   3.685   6.168   7.604  0.5669  0.3257  0.8441
   79CHL1    H8 8267   3.618   6.246   7.647 -2.6213 -1.8683  0.1843
   79CHL1   C14 8268   3.740   6.079   7.712 -0.0905 -0.6305 -1.1137
   79CHL1   H14 8269   3.801   6.006   7.655 -1.0113 -3.1574  0.8741
   79CHL1   C15 8270   3.653   5.988   7.789  0.3918  0.2984 -0.1804
   79CHL1  H15A 8271   3.562   6.042   7.825  0.0959  1.8579 -2.9974
   79CHL1  H15B 8272   3.617   5.905   7.724 -0.0322  2.1446 -2.4230
   79CHL1   C16 8273   3.744   5.930   7.903  0.0664 -0.1921  0.5317
   79CHL1  H16A 8274   3.691   5.966   7.994  0.8065 -0.5202  1.1098
   79CHL1  H16B 8275   3.768   5.822   7.905 -1.9675 -0.6972 -0.4292
   79CHL1   C17 8276   3.880   6.006   7.891  0.2647  0.3054 -0.0267
   79CHL1   H17 8277   3.931   5.946   7.813 -2.9380  0.9582 -2.8538
   79CHL1   C13 8278   3.844   6.137   7.808  0.4705  0.1658  0.0920
   79CHL1   C18 8279   3.781   6.240   7.901  0.6514 -0.2687  0.3209
   79CHL1  H18A 8280   3.851   6.285   7.975 -0.2583  0.2470  0.8962
   79CHL1  H18B 8281   3.741   6.321   7.836 -0.3910  1.1588  2.5944
   79CHL1  H18C 8282   3.689   6.204   7.952 -0.2668 -0.2183 -1.2410
   79CHL1   C12 8283   3.953   6.200   7.724 -0.4295 -0.2807 -0.1318
   79CHL1  H12A 8284   4.020   6.260   7.790 -0.3167  0.0367 -0.5298
   79CHL1  H12B 8285   4.011   6.117   7.677  0.2593 -0.0564  0.3000
   79CHL1   C11 8286   3.908   6.292   7.612  0.4295 -0.6371  0.3267
   79CHL1  H11A 8287   3.873   6.387   7.658  2.9232  1.2665 -1.4261
   79CHL1  H11B 8288   3.983   6.308   7.532 -0.8798 -2.1633 -1.2677
   79CHL1    C9 8289   3.794   6.237   7.522 -0.3787  0.5748  0.5658
   79CHL1    H9 8290   3.843   6.165   7.454 -0.0834  2.6714 -1.5740
   79CHL1   C10 8291   3.735   6.331   7.417 -0.1472  0.4641  0.1402
   79CHL1   C19 8292   3.709   6.466   7.484  0.3587 -0.9399  0.6646
   79CHL1  H19A 8293   3.631   6.466   7.563 -0.8421  1.1961 -0.4601
   79CHL1  H19B 8294   3.797   6.513   7.533  2.3307 -2.8347 -0.8582
   79CHL1  H19C 8295   3.673   6.539   7.410  2.3873 -2.2381 -1.7457
   79CHL1    C1 8296   3.839   6.345   7.307 -0.1716 -0.2406  0.2449
   79CHL1   H1A 8297   3.935   6.393   7.334  0.2126  0.3183 -1.8872
   79CHL1   H1B 8298   3.871   6.249   7.261  0.6256 -0.0215  0.3273
   79CHL1    C2 8299   3.786   6.417   7.181  0.3499  0.1164 -0.1588
   79CHL1   H2A 8300   3.857   6.391   7.100  1.5958 -0.8280  1.1847
   79CHL1   H2B 8301   3.772   6.523   7.211  0.1122  0.0645 -0.0811
   79CHL1   C20 8302   3.965   6.020   8.015  0.4381 -0.6474 -0.4251
   79CHL1   H20 8303   3.908   6.073   8.094  0.2448 -1.7019  0.1725
   79CHL1   C21 8304   4.107   6.087   7.993  0.4746 -0.8642 -0.0731
   79CHL1  H21A 8305   4.091   6.197   7.987  2.9918 -0.2606  2.1896
   79CHL1  H21B 8306   4.158   6.042   7.905  1.9042 -0.7463  0.6737
   79CHL1  H21C 8307   4.169   6.066   8.082  0.6705  0.5911  0.1601
   79CHL1   C22 8308   3.989   5.884   8.081 -0.0289  0.2412  0.8520
   79CHL1  H22A 8309   3.885   5.850   8.100 -0.6071  0.4237 -1.6572
   79CHL1  H22B 8310   4.038   5.810   8.014 -0.0289 -0.6172  1.7873
   79CHL1   C23 8311   4.054   5.868   8.217  0.1539  0.3554 -0.0932
   79CHL1  H23A 8312   4.159   5.899   8.198  0.2865  0.7681  1.2474
   79CHL1  H23B 8313   4.006   5.937   8.289  0.0297  0.9125 -0.7046
   79CHL1   C24 8314   4.051   5.729   8.275 -0.6701  0.1665  0.2115
   79CHL1  H24A 8315   3.947   5.692   8.287 -0.9850 -0.4031 -3.1782
   79CHL1  H24B 8316   4.110   5.663   8.207 -0.0352 -1.0757  1.8954
   79CHL1   C25 8317   4.124   5.714   8.413 -0.2236  0.5158  0.7209
   79CHL1   H25 8318   4.130   5.607   8.443  1.3499  0.3418 -0.0954
   79CHL1   C26 8319   4.274   5.769   8.416 -0.3861  0.3873 -0.2732
   79CHL1  H26A 8320   4.334   5.734   8.329  1.6726 -3.2257  2.3714
   79CHL1  H26B 8321   4.269   5.880   8.424 -1.8427  0.3025  0.3849
   79CHL1  H26C 8322   4.328   5.724   8.501 -2.6327  1.1349  1.6704
   79CHL1   C27 8323   4.056   5.788   8.522  0.0326  0.3574 -0.2296
   79CHL1  H27A 8324   4.115   5.774   8.615 -1.4581 -0.8659  0.5832
   79CHL1  H27B 8325   4.051   5.898   8.504 -2.0861  0.4205  0.4488
   79CHL1  H27C 8326   3.950   5.760   8.537 -0.0360  0.6079 -0.2325
   80CHL1    C3 8327   6.152   4.061   6.979  0.0844  0.3828 -0.4748
   80CHL1    H3 8328   6.095   4.152   7.007  1.2027  1.1093 -0.5344
   80CHL1    O3 8329   6.187   4.085   6.845  0.3938  0.1445 -0.1808
   80CHL1   H3' 8330   6.103   4.099   6.801 -0.3706 -2.4090  0.2691
   80CHL1    C4 8331   6.263   4.039   7.074  0.1562  0.5018  0.6038
   80CHL1   H4A 8332   6.320   3.953   7.034 -1.4830 -0.2867 -0.1207
   80CHL1   H4B 8333   6.335   4.123   7.060 -0.0866  0.3881 -1.8068
   80CHL1    C5 8334   6.219   4.019   7.216  0.0019 -0.3194 -0.2827
   80CHL1    C6 8335   6.259   4.098   7.316  0.2196 -0.2871 -0.1844
   80CHL1    H6 8336   6.329   4.178   7.287 -0.0071  0.1048  0.3349
   80CHL1    C7 8337   6.218   4.077   7.463  0.3181 -0.3985 -0.3796
   80CHL1   H7A 8338   6.305   4.089   7.530 -0.1975 -0.4211  0.3009
   80CHL1   H7B 8339   6.141   4.149   7.497 -1.2396 -1.6333 -1.1476
   80CHL1    C8 8340   6.161   3.940   7.487  0.4114  0.1328 -0.0328
   80CHL1    H8 8341   6.251   3.878   7.467 -0.6037 -2.0615  1.6469
   80CHL1   C14 8342   6.107   3.926   7.632 -0.1401 -0.0352 -0.5087
   80CHL1   H14 8343   6.028   4.004   7.634  1.6892  1.8620  1.1684
   80CHL1   C15 8344   6.198   3.962   7.752  0.3856 -0.2144  0.9180
   80CHL1  H15A 8345   6.292   3.905   7.738 -0.6463 -1.3432 -2.0516
   80CHL1  H15B 8346   6.230   4.068   7.753 -0.9234  0.2299 -0.3542
   80CHL1   C16 8347   6.106   3.914   7.875  0.2756 -0.4023 -0.2348
   80CHL1  H16A 8348   6.183   3.868   7.940  3.7489  3.8158 -0.8184
   80CHL1  H16B 8349   6.058   3.995   7.934  2.0582  0.3353  0.2750
   80CHL1   C17 8350   6.003   3.819   7.821  0.0711  0.6551 -0.6012
   80CHL1   H17 8351   5.908   3.875   7.810 -0.5711 -0.0823  0.7957
   80CHL1   C13 8352   6.043   3.788   7.670  0.5615 -0.4840 -0.0961
   80CHL1   C18 8353   6.151   3.675   7.665  0.0716  0.5849 -0.1408
   80CHL1  H18A 8354   6.101   3.578   7.685 -1.7888  1.0836 -2.0811
   80CHL1  H18B 8355   6.199   3.672   7.565 -0.8722  3.0459 -0.7477
   80CHL1  H18C 8356   6.226   3.696   7.745 -0.3622  2.7994 -0.2626
   80CHL1   C12 8357   5.923   3.774   7.573 -0.2193  0.3069 -0.3072
   80CHL1  H12A 8358   5.867   3.679   7.581 -0.5598  0.4465 -1.0243
   80CHL1  H12B 8359   5.840   3.840   7.606 -0.8966 -0.7397  0.1128
   80CHL1   C11 8360   5.959   3.790   7.426 -0.1044  0.3429  0.3579
   80CHL1  H11A 8361   6.011   3.698   7.395 -0.8495  0.1126 -0.2359
   80CHL1  H11B 8362   5.867   3.780   7.364  0.9705 -3.3786 -0.8700
   80CHL1    C9 8363   6.049   3.916   7.390 -0.0567  0.0305  0.1930
   80CHL1    H9 8364   5.977   4.001   7.398 -1.0601 -0.9463  2.9935
   80CHL1   C10 8365   6.109   3.908   7.244  0.5612 -0.7174  0.2330
   80CHL1   C19 8366   6.164   3.769   7.214  0.5068 -0.7490 -0.2667
   80CHL1  H19A 8367   6.082   3.695   7.203  0.0324 -0.0630 -1.5912
   80CHL1  H19B 8368   6.222   3.761   7.119 -1.1325  1.1611 -1.5146
   80CHL1  H19C 8369   6.229   3.744   7.300  2.8810  3.3937 -0.6087
   80CHL1    C1 8370   6.000   3.927   7.136  0.8381  0.1652 -0.6760
   80CHL1   H1A 8371   5.919   3.851   7.137 -0.5009  1.4534 -2.2693
   80CHL1   H1B 8372   5.951   4.023   7.163 -1.4498 -0.9482 -0.6183
   80CHL1    C2 8373   6.050   3.946   6.991  0.3531  0.2679 -0.5658
   80CHL1   H2A 8374   5.961   3.960   6.925 -0.5111  0.7361  0.6732
   80CHL1   H2B 8375   6.099   3.853   6.954 -1.5448 -1.6566  1.4414
   80CHL1   C20 8376   5.977   3.700   7.922  0.3144  0.2897  0.4338
   80CHL1   H20 8377   6.071   3.641   7.921  1.0843  1.4041  2.3950
   80CHL1   C21 8378   5.863   3.613   7.878  0.3942  0.6967 -0.1736
   80CHL1  H21A 8379   5.884   3.579   7.775 -0.8770  0.6040 -0.4208
   80CHL1  H21B 8380   5.771   3.676   7.879 -0.6354 -0.5045 -3.7654
   80CHL1  H21C 8381   5.843   3.520   7.934  1.7512 -1.5067 -3.1159
   80CHL1   C22 8382   5.960   3.747   8.067  0.3249 -0.3359 -0.2561
   80CHL1  H22A 8383   6.050   3.804   8.100  0.3747 -1.4814  1.7549
   80CHL1  H22B 8384   5.875   3.817   8.079  1.8056  1.2707  1.6204
   80CHL1   C23 8385   5.941   3.628   8.157 -0.5405  0.3513 -0.6208
   80CHL1  H23A 8386   5.836   3.591   8.153 -1.1041  1.1907  2.8674
   80CHL1  H23B 8387   6.011   3.550   8.119  0.8451  1.1674  0.1793
   80CHL1   C24 8388   5.955   3.671   8.304  0.3003  0.2936 -0.3076
   80CHL1  H24A 8389   6.043   3.739   8.306 -0.1065  0.8597 -0.9788
   80CHL1  H24B 8390   5.859   3.717   8.335 -1.1552 -2.6792 -0.0540
   80CHL1   C25 8391   5.977   3.553   8.400  0.2874 -0.7560  0.4118
   80CHL1   H25 8392   5.908   3.472   8.370  2.1000 -1.6387 -1.6864
   80CHL1   C26 8393   6.121   3.518   8.397  0.3039 -0.0774  0.1306
   80CHL1  H26A 8394   6.197   3.597   8.414  0.0551  0.1230  0.3235
   80CHL1  H26B 8395   6.136   3.447   8.482 -2.9793 -1.6710 -0.4360
   80CHL1  H26C 8396   6.154   3.474   8.301 -3.0853 -0.4267 -1.0093
   80CHL1   C27 8397   5.935   3.598   8.537  0.5771 -0.5485 -0.1082
   80CHL1  H27A 8398   6.027   3.595   8.599  0.7287 -0.5524 -0.3284
   80CHL1  H27B 8399   5.893   3.700   8.544  1.4173 -0.1449 -0.6954
   80CHL1  H27C 8400   5.860   3.531   8.582 -1.7318  2.2382  0.4675
   81CHL1    C3 8401   4.447   3.401   6.700 -0.0956  0.0105  0.2389
   81CHL1    H3 8402   4.532   3.333   6.679  0.8194  1.3160 -0.3679
   81CHL1    O3 8403   4.404   3.444   6.569 -0.6319 -0.6994 -0.7226
   81CHL1   H3' 8404   4.323   3.397   6.549 -1.3633  0.5400 -0.8364
   81CHL1    C4 8405   4.333   3.326   6.770  0.1166  0.5094 -0.0364
   81CHL1   H4A 8406   4.241   3.387   6.778 -0.4861 -0.4213  0.2486
   81CHL1   H4B 8407   4.315   3.239   6.702  0.3678 -1.0486  1.8044
   81CHL1    C5 8408   4.370   3.266   6.901 -0.0884 -0.2652 -0.6161
   81CHL1    C6 8409   4.350   3.140   6.933 -0.5399  0.5238 -0.3491
   81CHL1    H6 8410   4.294   3.070   6.869  0.0680 -1.3294  1.0731
   81CHL1    C7 8411   4.389   3.078   7.066 -0.1732 -0.3475  0.2076
   81CHL1   H7A 8412   4.314   3.002   7.095  0.9890 -1.8748 -0.6506
   81CHL1   H7B 8413   4.487   3.028   7.052 -0.8775 -1.7643  0.2087
   81CHL1    C8 8414   4.411   3.183   7.175  0.2072 -0.0988 -0.7217
   81CHL1    H8 8415   4.311   3.216   7.208 -0.3306 -2.5084  0.2277
   81CHL1   C14 8416   4.473   3.120   7.305  0.5082 -0.1290  0.3688
   81CHL1   H14 8417   4.569   3.071   7.277 -2.0587 -4.1276 -2.5336
   81CHL1   C15 8418   4.394   3.010   7.374 -0.1822 -0.2737 -0.2702
   81CHL1  H15A 8419   4.291   3.050   7.362 -0.1036 -0.7502 -3.7902
   81CHL1  H15B 8420   4.401   2.915   7.317  0.8190  2.1762 -4.7833
   81CHL1   C16 8421   4.457   3.014   7.519  0.4435 -0.6915 -0.0342
   81CHL1  H16A 8422   4.376   3.032   7.593 -0.0971 -0.7592 -0.6070
   81CHL1  H16B 8423   4.507   2.919   7.550  1.4756 -0.5682 -1.2182
   81CHL1   C17 8424   4.562   3.136   7.523 -0.1641 -0.2158 -0.3191
   81CHL1   H17 8425   4.658   3.087   7.499  0.3755  0.3135  0.6914
   81CHL1   C13 8426   4.521   3.223   7.407  0.2986  0.0027  0.0386
   81CHL1   C18 8427   4.407   3.321   7.453 -0.0382 -0.6007  0.1657
   81CHL1  H18A 8428   4.329   3.259   7.503 -0.7903  0.1283 -0.0788
   81CHL1  H18B 8429   4.439   3.391   7.533 -1.6993 -1.0013  1.2447
   81CHL1  H18C 8430   4.358   3.384   7.376 -1.2228 -2.5491 -0.7821
   81CHL1   C12 8431   4.626   3.315   7.346 -0.7302  0.4608  0.6093
   81CHL1  H12A 8432   4.653   3.406   7.404  0.0169  1.0586 -0.6440
   81CHL1  H12B 8433   4.724   3.279   7.309 -0.9366  0.9279 -0.4337
   81CHL1   C11 8434   4.559   3.394   7.224 -0.2801  0.4418 -0.3089
   81CHL1  H11A 8435   4.489   3.472   7.261 -2.2746 -0.8402 -1.1752
   81CHL1  H11B 8436   4.649   3.440   7.177 -1.8779 -0.2723 -4.4522
   81CHL1    C9 8437   4.503   3.294   7.115  0.5991 -0.3257  0.1890
   81CHL1    H9 8438   4.590   3.233   7.083 -0.2967 -1.5535  0.0231
   81CHL1   C10 8439   4.445   3.364   6.991 -0.3166 -0.1021  0.2670
   81CHL1   C19 8440   4.343   3.477   7.038  0.6744  0.0069  0.1193
   81CHL1  H19A 8441   4.401   3.554   7.092  0.7852  1.1961 -1.5916
   81CHL1  H19B 8442   4.287   3.522   6.952 -1.3551  0.2398  1.4907
   81CHL1  H19C 8443   4.263   3.438   7.105  0.5359  0.4577  0.2230
   81CHL1    C1 8444   4.565   3.445   6.915  0.8512  0.1758  0.0721
   81CHL1   H1A 8445   4.598   3.527   6.982 -4.0055  1.0064  1.7871
   81CHL1   H1B 8446   4.655   3.382   6.895  1.2166  1.1042 -1.3556
   81CHL1    C2 8447   4.509   3.516   6.781 -0.2718  0.3534  0.0752
   81CHL1   H2A 8448   4.600   3.556   6.731 -0.8738 -0.9226 -2.1583
   81CHL1   H2B 8449   4.451   3.609   6.798  1.7652  1.7514 -0.2047
   81CHL1   C20 8450   4.570   3.198   7.660  0.1798 -0.0254  0.3439
   81CHL1   H20 8451   4.475   3.245   7.691 -1.1434 -2.6644  0.5555
   81CHL1   C21 8452   4.684   3.306   7.663  0.6373 -0.5234 -0.0943
   81CHL1  H21A 8453   4.777   3.266   7.617  1.3275 -0.3659  1.1169
   81CHL1  H21B 8454   4.713   3.321   7.769  2.3266  0.5324 -0.6504
   81CHL1  H21C 8455   4.654   3.405   7.622 -0.2541 -0.1710  1.3446
   81CHL1   C22 8456   4.600   3.083   7.768  0.6905 -0.1433 -0.0646
   81CHL1  H22A 8457   4.517   3.012   7.751 -0.7220  1.5060 -0.3531
   81CHL1  H22B 8458   4.696   3.030   7.748  0.8976  0.3098 -0.2978
   81CHL1   C23 8459   4.615   3.126   7.913 -0.5961  0.3099  0.2333
   81CHL1  H23A 8460   4.714   3.088   7.945 -0.2727  0.8718 -0.0743
   81CHL1  H23B 8461   4.630   3.236   7.917  1.1048  0.1487 -0.5427
   81CHL1   C24 8462   4.511   3.081   8.007 -0.2188 -0.5842 -0.4206
   81CHL1  H24A 8463   4.415   3.127   7.975  0.1426  0.5923  0.1513
   81CHL1  H24B 8464   4.495   2.971   8.006  0.6369 -0.7652  1.4766
   81CHL1   C25 8465   4.540   3.121   8.155  0.8144 -0.5383 -0.2655
   81CHL1   H25 8466   4.641   3.085   8.183  1.7575  1.9874 -0.2402
   81CHL1   C26 8467   4.553   3.273   8.181 -0.1290 -0.3682  0.3323
   81CHL1  H26A 8468   4.641   3.317   8.129  0.3497 -1.5909  0.0606
   81CHL1  H26B 8469   4.460   3.321   8.144 -0.7123 -1.3712  0.4622
   81CHL1  H26C 8470   4.557   3.285   8.291  0.8991 -1.1714  0.3996
   81CHL1   C27 8471   4.442   3.059   8.258  0.1544  0.9830  0.1718
   81CHL1  H27A 8472   4.483   3.083   8.358  1.4219  1.7760 -0.4925
   81CHL1  H27B 8473   4.341   3.092   8.226 -0.2959 -1.1597 -0.7540
   81CHL1  H27C 8474   4.448   2.949   8.252 -1.2859  0.9010 -0.0781
   82CHL1    C3 8475   6.638   2.484   6.929 -0.0843 -0.5917  0.2533
   82CHL1    H3 8476   6.543   2.524   6.971  0.4832  4.2520 -2.3410
   82CHL1    O3 8477   6.639   2.457   6.789 -0.4214 -0.1460  0.4130
   82CHL1   H3' 8478   6.724   2.417   6.767 -0.9335 -1.0993  0.0663
   82CHL1    C4 8479   6.746   2.598   6.951  0.1144  0.1621  0.2658
   82CHL1   H4A 8480   6.841   2.552   6.918  1.6481  3.4524 -0.2374
   82CHL1   H4B 8481   6.716   2.666   6.868 -2.4909 -1.1967 -0.0425
   82CHL1    C5 8482   6.748   2.658   7.090  0.1436  0.0823 -0.2336
   82CHL1    C6 8483   6.723   2.786   7.127 -0.0883  0.7242  0.4035
   82CHL1    H6 8484   6.700   2.862   7.051 -0.7104 -0.0098 -0.1434
   82CHL1    C7 8485   6.724   2.828   7.273  1.3318 -0.2195 -0.0616
   82CHL1   H7A 8486   6.769   2.930   7.275 -2.2576  1.5318 -0.2339
   82CHL1   H7B 8487   6.616   2.839   7.300  1.6280 -1.0588  1.5748
   82CHL1    C8 8488   6.785   2.727   7.366 -0.3351  0.0510 -0.3679
   82CHL1    H8 8489   6.894   2.725   7.347 -0.3551  2.3485 -1.0701
   82CHL1   C14 8490   6.765   2.769   7.509 -0.4315 -0.4608  0.0101
   82CHL1   H14 8491   6.654   2.764   7.506 -0.3737 -3.6822 -0.6647
   82CHL1   C15 8492   6.807   2.909   7.563  0.0464  0.3082 -0.0318
   82CHL1  H15A 8493   6.913   2.926   7.533 -0.2128 -2.2449 -2.9114
   82CHL1  H15B 8494   6.743   2.987   7.517 -0.3630  0.2714  0.4679
   82CHL1   C16 8495   6.793   2.888   7.717 -0.0253 -0.3141  0.2049
   82CHL1  H16A 8496   6.882   2.917   7.777 -0.2738  1.8650 -0.3923
   82CHL1  H16B 8497   6.706   2.946   7.755  1.4950  1.9550  0.4248
   82CHL1   C17 8498   6.754   2.740   7.741  0.2349  0.1670 -0.0681
   82CHL1   H17 8499   6.643   2.740   7.745  0.2549 -0.6457  0.7334
   82CHL1   C13 8500   6.794   2.669   7.614 -0.0048  0.2149 -0.2959
   82CHL1   C18 8501   6.945   2.646   7.611 -0.3256  1.0080 -0.2097
   82CHL1  H18A 8502   6.984   2.554   7.660  0.0103  2.2740  2.0329
   82CHL1  H18B 8503   6.991   2.655   7.510  1.7741 -0.1935  0.5717
   82CHL1  H18C 8504   6.984   2.727   7.677  0.9120  0.1944  0.0883
   82CHL1   C12 8505   6.711   2.537   7.581  0.2872  0.6737  0.4804
   82CHL1  H12A 8506   6.728   2.471   7.668 -2.5657  2.3206  2.4580
   82CHL1  H12B 8507   6.603   2.562   7.571 -0.8339 -2.8138  2.3568
   82CHL1   C11 8508   6.750   2.485   7.442 -0.0057  0.4117  0.1497
   82CHL1  H11A 8509   6.859   2.466   7.441 -0.0771 -0.1161 -1.4737
   82CHL1  H11B 8510   6.691   2.392   7.424  0.2749  0.1485  0.5720
   82CHL1    C9 8511   6.731   2.590   7.326  0.1879 -0.0180 -0.1309
   82CHL1    H9 8512   6.621   2.604   7.336 -0.1075 -2.2228  0.2562
   82CHL1   C10 8513   6.768   2.545   7.185  0.3184  0.2338 -0.5749
   82CHL1   C19 8514   6.919   2.508   7.183 -0.0094 -0.3919  0.3616
   82CHL1  H19A 8515   6.944   2.472   7.081  0.6430 -2.8704  1.3275
   82CHL1  H19B 8516   6.985   2.596   7.196  0.0848 -0.2894 -0.7256
   82CHL1  H19C 8517   6.949   2.427   7.252  0.3676  0.3224  1.0533
   82CHL1    C1 8518   6.687   2.416   7.161 -0.2412 -0.4025 -0.1168
   82CHL1   H1A 8519   6.722   2.333   7.227  0.1993  0.6227  0.9816
   82CHL1   H1B 8520   6.581   2.440   7.182 -0.1135 -0.3963  0.5568
   82CHL1    C2 8521   6.675   2.360   7.013  0.3954  0.3124 -0.3911
   82CHL1   H2A 8522   6.595   2.283   7.015  0.3521  0.3514 -0.5458
   82CHL1   H2B 8523   6.777   2.325   6.985  0.1674 -0.0782 -0.7507
   82CHL1   C20 8524   6.801   2.698   7.879 -0.0588  0.2846 -0.1100
   82CHL1   H20 8525   6.908   2.724   7.891 -0.1392  1.1343 -1.0639
   82CHL1   C21 8526   6.794   2.545   7.896 -0.0814  0.7748  0.0084
   82CHL1  H21A 8527   6.853   2.499   7.814 -0.7629  1.7854 -1.0745
   82CHL1  H21B 8528   6.689   2.510   7.906 -0.4719  1.0598 -2.4887
   82CHL1  H21C 8529   6.855   2.509   7.982  1.2813  1.6628 -0.5582
   82CHL1   C22 8530   6.740   2.772   8.003  1.2242  0.2824 -0.0132
   82CHL1  H22A 8531   6.766   2.879   8.003 -3.0485  1.5214  1.6611
   82CHL1  H22B 8532   6.629   2.773   8.012  1.3203  1.4688  1.3392
   82CHL1   C23 8533   6.788   2.722   8.139 -0.6278 -0.5889 -0.2948
   82CHL1  H23A 8534   6.766   2.613   8.145 -3.6046 -0.1445 -1.5902
   82CHL1  H23B 8535   6.899   2.731   8.148 -0.5548 -1.9286  0.3619
   82CHL1   C24 8536   6.710   2.790   8.257 -0.2528 -0.3277 -0.1683
   82CHL1  H24A 8537   6.728   2.899   8.262  1.2718 -0.5833  0.8081
   82CHL1  H24B 8538   6.602   2.775   8.239 -0.0102 -1.8342 -0.5361
   82CHL1   C25 8539   6.749   2.727   8.388  0.1102  0.3305 -0.1977
   82CHL1   H25 8540   6.737   2.616   8.385  0.0360  0.3509 -0.5940
   82CHL1   C26 8541   6.892   2.744   8.424  0.2404  0.5936  0.4596
   82CHL1  H26A 8542   6.909   2.677   8.512 -1.4596  0.5320  0.7617
   82CHL1  H26B 8543   6.955   2.711   8.338 -0.7060  3.3686 -1.4359
   82CHL1  H26C 8544   6.903   2.850   8.457  0.1282  1.2261 -1.4130
   82CHL1   C27 8545   6.647   2.781   8.495  0.1538 -0.3525 -0.1196
   82CHL1  H27A 8546   6.544   2.762   8.459  0.3867 -0.3634 -0.7960
   82CHL1  H27B 8547   6.666   2.740   8.597  0.1486  0.8744  0.4006
   82CHL1  H27C 8548   6.659   2.891   8.505  1.0586 -0.5425  1.2934
   83CHL1    C3 8549   2.206   4.915   6.819 -0.6525  0.0306  0.9269
   83CHL1    H3 8550   2.099   4.934   6.844 -1.5853 -0.7511 -2.0486
   83CHL1    O3 8551   2.226   4.897   6.677  0.1713  0.2151 -0.1604
   83CHL1   H3' 8552   2.290   4.826   6.678  0.1058  0.1530  0.6551
   83CHL1    C4 8553   2.301   5.033   6.857  0.3544 -0.0370 -0.3013
   83CHL1   H4A 8554   2.399   5.010   6.811  1.0918  1.3970  0.4901
   83CHL1   H4B 8555   2.262   5.128   6.815  1.5425  1.2734  1.4187
   83CHL1    C5 8556   2.313   5.053   7.009  0.2264  0.4356 -0.0002
   83CHL1    C6 8557   2.292   5.168   7.067 -0.5708  0.2151  0.2287
   83CHL1    H6 8558   2.254   5.251   7.006  0.0230 -0.3712 -0.9745
   83CHL1    C7 8559   2.286   5.195   7.213  0.2760 -0.2273 -0.1948
   83CHL1   H7A 8560   2.357   5.276   7.240  0.4995 -0.7396  0.7769
   83CHL1   H7B 8561   2.184   5.231   7.240  0.2918  1.7263 -2.4010
   83CHL1    C8 8562   2.324   5.080   7.301  0.0998  0.3423 -0.2955
   83CHL1    H8 8563   2.435   5.076   7.299  0.1571  1.5491 -2.3551
   83CHL1   C14 8564   2.280   5.098   7.446 -0.4295 -0.7197  0.2481
   83CHL1   H14 8565   2.170   5.084   7.457 -0.1546 -1.8938  1.9177
   83CHL1   C15 8566   2.306   5.230   7.523 -0.6701  0.3026 -0.9521
   83CHL1  H15A 8567   2.413   5.257   7.511 -0.3451  0.5680  1.8870
   83CHL1  H15B 8568   2.235   5.309   7.489 -0.8740  0.3739 -0.3758
   83CHL1   C16 8569   2.282   5.197   7.672  0.6536 -0.2317 -0.3276
   83CHL1  H16A 8570   2.364   5.243   7.732  1.0835 -2.0645  0.5483
   83CHL1  H16B 8571   2.181   5.224   7.710 -0.1901 -4.5097  1.0126
   83CHL1   C17 8572   2.277   5.041   7.680  0.3688 -0.1448  0.2930
   83CHL1   H17 8573   2.169   5.020   7.671  0.1564  0.4554  1.3270
   83CHL1   C13 8574   2.333   4.996   7.542  0.1783  0.0857 -0.3658
   83CHL1   C18 8575   2.486   4.983   7.546  0.1564 -0.4982 -0.6353
   83CHL1  H18A 8576   2.532   4.945   7.452 -2.7278 -1.8561 -1.6389
   83CHL1  H18B 8577   2.533   5.083   7.562  0.9512 -1.1392  1.2625
   83CHL1  H18C 8578   2.507   4.908   7.625  0.5073 -0.9560 -1.1585
   83CHL1   C12 8579   2.283   4.859   7.489  0.4247 -0.1989 -0.2597
   83CHL1  H12A 8580   2.324   4.775   7.549  0.0746  1.1181  1.9042
   83CHL1  H12B 8581   2.173   4.853   7.502  0.1659  0.2245 -1.9749
   83CHL1   C11 8582   2.318   4.828   7.341  0.7928  0.4297 -0.7733
   83CHL1  H11A 8583   2.425   4.799   7.332  0.4703 -1.3577  0.4479
   83CHL1  H11B 8584   2.262   4.734   7.320 -0.4634  0.5423  1.7171
   83CHL1    C9 8585   2.282   4.945   7.245  0.5664  0.1049 -0.1453
   83CHL1    H9 8586   2.171   4.954   7.236  0.8330  2.8967 -2.1892
   83CHL1   C10 8587   2.331   4.926   7.099 -0.0185 -0.4812 -0.1139
   83CHL1   C19 8588   2.485   4.892   7.097  0.0566  0.8954 -0.1089
   83CHL1  H19A 8589   2.516   4.808   7.162 -0.0519 -0.2839 -1.5306
   83CHL1  H19B 8590   2.506   4.861   6.993  2.5778 -1.4753  0.9826
   83CHL1  H19C 8591   2.541   4.985   7.121  2.2242 -0.2844 -0.3090
   83CHL1    C1 8592   2.245   4.807   7.042  0.2857  0.0388  0.2863
   83CHL1   H1A 8593   2.283   4.710   7.080 -1.0942 -1.7731 -2.5685
   83CHL1   H1B 8594   2.136   4.820   7.057  0.2764  2.2914 -1.2179
   83CHL1    C2 8595   2.265   4.786   6.891 -0.1658 -0.7378  0.0917
   83CHL1   H2A 8596   2.211   4.696   6.855  0.4287 -1.5020  1.0638
   83CHL1   H2B 8597   2.371   4.783   6.858 -0.0934 -2.5948  0.3489
   83CHL1   C20 8598   2.322   4.976   7.817 -0.0760  0.5247 -0.0344
   83CHL1   H20 8599   2.430   4.987   7.838  0.3951 -0.6181 -1.6764
   83CHL1   C21 8600   2.300   4.821   7.812 -0.1954 -0.3475  0.2959
   83CHL1  H21A 8601   2.320   4.781   7.914 -1.2056  0.2894  0.7583
   83CHL1  H21B 8602   2.369   4.770   7.741 -2.4748 -3.4068  0.0940
   83CHL1  H21C 8603   2.193   4.811   7.787  0.1637  0.9477 -2.0340
   83CHL1   C22 8604   2.246   5.040   7.936  0.3220  0.1645  1.0629
   83CHL1  H22A 8605   2.248   5.151   7.938 -3.8613  0.4814 -1.1502
   83CHL1  H22B 8606   2.136   5.030   7.922 -0.1922  3.3240  2.0861
   83CHL1   C23 8607   2.286   4.989   8.073 -0.4067 -0.3048  0.1148
   83CHL1  H23A 8608   2.220   4.904   8.100  1.6714 -1.2222  2.7818
   83CHL1  H23B 8609   2.383   4.938   8.092 -1.0934 -1.7307 -0.0521
   83CHL1   C24 8610   2.256   5.089   8.191 -0.2797 -0.3861  0.2714
   83CHL1  H24A 8611   2.302   5.189   8.175  0.0210 -0.6143 -0.3018
   83CHL1  H24B 8612   2.147   5.100   8.210 -0.2316 -2.4448  2.1262
   83CHL1   C25 8613   2.295   5.041   8.331 -0.3338  1.2896  0.5152
   83CHL1   H25 8614   2.406   5.042   8.339 -0.2830 -1.5515  1.2575
   83CHL1   C26 8615   2.239   5.137   8.442 -0.4937 -0.2920  0.0268
   83CHL1  H26A 8616   2.292   5.234   8.442  0.1494 -0.5702 -2.2584
   83CHL1  H26B 8617   2.135   5.164   8.415 -0.7490 -1.1165  0.1422
   83CHL1  H26C 8618   2.240   5.090   8.543  1.9226  1.8472  1.0993
   83CHL1   C27 8619   2.255   4.894   8.358  0.1123  0.8447 -0.3980
   83CHL1  H27A 8620   2.146   4.878   8.343  0.3283 -0.2127 -0.9935
   83CHL1  H27B 8621   2.288   4.828   8.275 -1.5432  0.7202 -0.9824
   83CHL1  H27C 8622   2.297   4.862   8.456 -0.2556 -0.6928 -0.7214
   84CHL1    C3 8623   5.305   1.423   6.969  0.0492  0.0293 -0.4921
   84CHL1    H3 8624   5.415   1.424   6.985  0.4572  0.7324 -2.8990
   84CHL1    O3 8625   5.276   1.400   6.832  0.1654  0.5997  0.4132
   84CHL1   H3' 8626   5.252   1.307   6.828 -0.3746  0.5766  2.8701
   84CHL1    C4 8627   5.239   1.316   7.058 -0.2011  0.3880  0.2311
   84CHL1   H4A 8628   5.134   1.316   7.023 -0.1608  0.7874  0.1047
   84CHL1   H4B 8629   5.264   1.211   7.032 -0.5559  0.1989  0.6424
   84CHL1    C5 8630   5.250   1.349   7.208  0.1944  0.3807  0.2005
   84CHL1    C6 8631   5.292   1.257   7.296 -0.6227 -0.1150  0.4511
   84CHL1    H6 8632   5.323   1.158   7.262  1.6211  1.0504 -1.0882
   84CHL1    C7 8633   5.285   1.278   7.446  1.1854 -0.7702 -0.3533
   84CHL1   H7A 8634   5.242   1.192   7.501 -0.2237  0.6308  0.8408
   84CHL1   H7B 8635   5.386   1.295   7.489  0.3686  0.1315  1.2801
   84CHL1    C8 8636   5.202   1.404   7.489  0.5062 -0.3293  0.3629
   84CHL1    H8 8637   5.096   1.372   7.480  0.6270 -0.8392  0.7157
   84CHL1   C14 8638   5.221   1.438   7.639 -0.2302  0.4825 -0.6182
   84CHL1   H14 8639   5.329   1.464   7.644  0.1492 -0.7035 -1.9019
   84CHL1   C15 8640   5.202   1.330   7.736 -0.0021  0.5310 -0.6179
   84CHL1  H15A 8641   5.106   1.277   7.716 -0.7366  1.2329  0.8844
   84CHL1  H15B 8642   5.283   1.255   7.744 -1.0135 -0.4039  1.9276
   84CHL1   C16 8643   5.172   1.397   7.870 -0.0116 -0.0917 -0.0088
   84CHL1  H16A 8644   5.077   1.354   7.910  1.1762 -1.6433  1.2988
   84CHL1  H16B 8645   5.242   1.396   7.957 -2.0838 -0.3726  1.7620
   84CHL1   C17 8646   5.160   1.549   7.837 -0.0738 -0.1934  0.4137
   84CHL1   H17 8647   5.260   1.597   7.847 -0.8236  1.0626  2.6321
   84CHL1   C13 8648   5.134   1.553   7.683 -0.0398 -0.0348  0.1717
   84CHL1   C18 8649   4.980   1.527   7.665  0.5483  0.2845 -0.3664
   84CHL1  H18A 8650   4.952   1.487   7.565  0.5371  0.9820 -0.6491
   84CHL1  H18B 8651   4.937   1.451   7.734 -0.4620  0.2652 -1.0007
   84CHL1  H18C 8652   4.926   1.622   7.687  0.4344  0.0261  0.5250
   84CHL1   C12 8653   5.182   1.670   7.599 -0.1151 -0.4376 -0.8392
   84CHL1  H12A 8654   5.144   1.772   7.624 -0.8571 -0.9761  0.3301
   84CHL1  H12B 8655   5.292   1.675   7.613 -0.3097  0.7603  0.5296
   84CHL1   C11 8656   5.167   1.646   7.450 -0.4695 -0.0835 -0.4825
   84CHL1  H11A 8657   5.056   1.649   7.436 -0.7731  0.8326  1.6923
   84CHL1  H11B 8658   5.212   1.728   7.390 -2.0683 -0.4872 -2.3533
   84CHL1    C9 8659   5.232   1.515   7.396 -0.1965 -0.3063 -0.2560
   84CHL1    H9 8660   5.340   1.536   7.416 -0.2043  0.2614 -0.7932
   84CHL1   C10 8661   5.202   1.487   7.248 -1.0972 -0.5545 -0.1594
   84CHL1   C19 8662   5.051   1.511   7.229 -0.3761 -0.3735  0.5822
   84CHL1  H19A 8663   5.021   1.483   7.125  0.6437  1.2852 -0.2028
   84CHL1  H19B 8664   4.991   1.461   7.308 -2.8592  1.5390  0.0305
   84CHL1  H19C 8665   5.020   1.617   7.228  0.9938  0.0693  1.9552
   84CHL1    C1 8666   5.270   1.594   7.154  0.0071  0.3803  0.2015
   84CHL1   H1A 8667   5.228   1.693   7.182  0.6598  0.1094  2.3222
   84CHL1   H1B 8668   5.379   1.586   7.175 -0.0840 -1.8254  0.1081
   84CHL1    C2 8669   5.256   1.564   7.008  0.0159  0.8054  0.4795
   84CHL1   H2A 8670   5.312   1.639   6.948  0.7037  0.0052  0.0885
   84CHL1   H2B 8671   5.147   1.572   6.987 -0.1835 -2.1636 -0.0344
   84CHL1   C20 8672   5.060   1.618   7.931 -0.0539  0.4722  0.0645
   84CHL1   H20 8673   4.960   1.577   7.906 -0.9338  3.6253 -2.2573
   84CHL1   C21 8674   5.049   1.762   7.893  0.2821 -0.2758 -0.3059
   84CHL1  H21A 8675   5.023   1.790   7.789 -0.9902 -0.1015  0.0420
   84CHL1  H21B 8676   5.135   1.830   7.910 -1.1220  1.6050 -0.3057
   84CHL1  H21C 8677   4.974   1.801   7.966  1.9204  0.5404  1.0276
   84CHL1   C22 8678   5.090   1.606   8.089 -0.9411 -0.4213  0.2159
   84CHL1  H22A 8679   5.119   1.503   8.119 -0.1889 -0.1951  0.2803
   84CHL1  H22B 8680   5.185   1.663   8.093 -0.3790 -1.4114  1.6015
   84CHL1   C23 8681   4.972   1.648   8.181 -0.0813 -0.6073  0.4782
   84CHL1  H23A 8682   4.967   1.759   8.168  1.1144 -0.4812  0.9879
   84CHL1  H23B 8683   4.879   1.596   8.151  0.4565 -2.9479  2.6509
   84CHL1   C24 8684   4.988   1.593   8.325  0.2963 -0.3387  0.3963
   84CHL1  H24A 8685   4.964   1.485   8.312 -0.2688 -0.0867 -0.8330
   84CHL1  H24B 8686   5.095   1.606   8.351  0.9328  0.3122 -2.2637
   84CHL1   C25 8687   4.890   1.657   8.434 -0.8633 -1.0711  0.4527
   84CHL1   H25 8688   4.785   1.652   8.399 -1.6450  3.2121  1.6353
   84CHL1   C26 8689   4.917   1.586   8.565  0.5929  0.2781  0.2023
   84CHL1  H26A 8690   4.851   1.619   8.648  0.0149 -0.0952 -0.1018
   84CHL1  H26B 8691   4.904   1.475   8.564  0.0829  0.3344 -0.9019
   84CHL1  H26C 8692   5.020   1.613   8.595  0.3851  1.8954 -0.4470
   84CHL1   C27 8693   4.930   1.811   8.455 -0.2802  0.8934  0.0781
   84CHL1  H27A 8694   4.881   1.846   8.549 -0.9488 -1.1204  0.5337
   84CHL1  H27B 8695   5.037   1.840   8.447  0.8838 -2.2660  2.1453
   84CHL1  H27C 8696   4.877   1.862   8.372 -0.5991 -0.0009 -0.2876
   85CHL1    C3 8697   4.605   6.783   7.003  0.5064 -0.9726 -0.8263
   85CHL1    H3 8698   4.500   6.785   7.039  0.6116 -0.3853 -0.5456
   85CHL1    O3 8699   4.611   6.822   6.866 -0.6858  0.2254 -0.1216
   85CHL1   H3' 8700   4.618   6.736   6.823 -0.4033  1.2188 -2.2024
   85CHL1    C4 8701   4.676   6.893   7.086 -0.0764  0.4814  0.0331
   85CHL1   H4A 8702   4.779   6.905   7.046  0.5451  0.1673  1.4514
   85CHL1   H4B 8703   4.630   6.993   7.076  1.3817  0.9956 -2.0439
   85CHL1    C5 8704   4.684   6.850   7.233  0.0623 -0.7250  0.1223
   85CHL1    C6 8705   4.644   6.926   7.339 -0.0788  0.6482 -0.4998
   85CHL1    H6 8706   4.590   7.020   7.317 -2.3239  0.0570  2.0072
   85CHL1    C7 8707   4.646   6.890   7.482 -0.2146  0.3473 -0.4362
   85CHL1   H7A 8708   4.661   6.973   7.554 -2.0680 -0.1507  0.5790
   85CHL1   H7B 8709   4.545   6.848   7.503 -1.0845  2.0090 -1.1552
   85CHL1    C8 8710   4.756   6.779   7.507  0.0055  0.0216 -0.5436
   85CHL1    H8 8711   4.853   6.830   7.490 -1.4094  2.6825 -1.0933
   85CHL1   C14 8712   4.735   6.723   7.645 -0.4432 -0.4829 -0.1309
   85CHL1   H14 8713   4.633   6.683   7.630 -0.6064 -0.2263  0.2834
   85CHL1   C15 8714   4.716   6.821   7.754 -0.7248  0.2561  0.2331
   85CHL1  H15A 8715   4.802   6.891   7.751 -1.6488  1.5518  1.6379
   85CHL1  H15B 8716   4.617   6.870   7.772 -0.9032  0.4348 -1.1743
   85CHL1   C16 8717   4.738   6.734   7.883 -0.0186 -0.0827 -0.0417
   85CHL1  H16A 8718   4.800   6.780   7.963 -1.7699 -0.2929  1.5117
   85CHL1  H16B 8719   4.645   6.731   7.944 -0.4055 -0.4223 -0.6360
   85CHL1   C17 8720   4.789   6.595   7.837  0.3527  0.0180 -0.8082
   85CHL1   H17 8721   4.694   6.537   7.845  0.1057  0.6665  2.2292
   85CHL1   C13 8722   4.836   6.617   7.690  0.0275  0.1454 -0.3682
   85CHL1   C18 8723   4.977   6.687   7.697 -0.8090 -0.6129  0.5561
   85CHL1  H18A 8724   4.985   6.779   7.759 -3.7917  0.4323 -0.4225
   85CHL1  H18B 8725   5.056   6.618   7.732  1.8064  1.6656 -0.4405
   85CHL1  H18C 8726   4.994   6.723   7.593 -1.4223  2.6168  1.4524
   85CHL1   C12 8727   4.833   6.503   7.593  0.1305  0.5827 -0.0633
   85CHL1  H12A 8728   4.911   6.429   7.622 -0.8632  0.0869  1.4676
   85CHL1  H12B 8729   4.738   6.447   7.600 -0.0343  0.8376 -0.2397
   85CHL1   C11 8730   4.837   6.547   7.448  0.2808  0.1788  0.1925
   85CHL1  H11A 8731   4.936   6.594   7.426  0.3303  0.2284  0.5171
   85CHL1  H11B 8732   4.826   6.466   7.372 -1.1961 -0.0369  0.6083
   85CHL1    C9 8733   4.741   6.660   7.406 -0.2411 -0.3853 -0.4052
   85CHL1    H9 8734   4.641   6.613   7.416  0.4971 -1.9476 -0.0146
   85CHL1   C10 8735   4.756   6.705   7.256 -0.6604 -0.3460  0.6323
   85CHL1   C19 8736   4.912   6.727   7.208  0.4216 -0.3570  0.0757
   85CHL1  H19A 8737   4.958   6.805   7.273 -2.4627  2.0624 -0.5690
   85CHL1  H19B 8738   4.961   6.627   7.208  0.0592 -0.5375 -0.4317
   85CHL1  H19C 8739   4.912   6.763   7.103  0.7721  0.4513  0.3471
   85CHL1    C1 8740   4.689   6.601   7.171 -0.1937  0.7861 -0.9067
   85CHL1   H1A 8741   4.742   6.503   7.168  0.0478  0.9196 -0.9700
   85CHL1   H1B 8742   4.589   6.566   7.205 -0.1148 -0.5061 -1.9223
   85CHL1    C2 8743   4.667   6.637   7.023  0.5016  0.0709 -0.1380
   85CHL1   H2A 8744   4.599   6.560   6.979  0.2825  1.7618 -2.9764
   85CHL1   H2B 8745   4.770   6.637   6.982  0.9991  0.6275  1.0636
   85CHL1   C20 8746   4.893   6.536   7.931 -0.0809 -0.6683 -0.7733
   85CHL1   H20 8747   4.978   6.606   7.945 -2.7389  2.3695  1.7998
   85CHL1   C21 8748   4.958   6.396   7.892  0.0788  1.3858  0.1182
   85CHL1  H21A 8749   5.014   6.360   7.980 -0.7284 -0.7044 -0.1540
   85CHL1  H21B 8750   5.028   6.405   7.806 -1.2485  2.1083 -0.9224
   85CHL1  H21C 8751   4.880   6.322   7.864  0.1069  2.3563 -2.8890
   85CHL1   C22 8752   4.829   6.524   8.070  1.2072  0.4593  0.0475
   85CHL1  H22A 8753   4.722   6.554   8.071  1.4688  1.4130  0.6430
   85CHL1  H22B 8754   4.828   6.417   8.097 -0.6664  0.5408  0.4238
   85CHL1   C23 8755   4.895   6.592   8.190  0.3806 -0.8944 -0.7969
   85CHL1  H23A 8756   5.006   6.586   8.195  0.6273  2.6134  2.0778
   85CHL1  H23B 8757   4.878   6.702   8.184  2.6694 -0.5504 -2.1170
   85CHL1   C24 8758   4.866   6.530   8.327  1.2205 -0.2975 -0.6895
   85CHL1  H24A 8759   4.757   6.536   8.351  1.5306  1.3638  0.4611
   85CHL1  H24B 8760   4.888   6.421   8.322 -0.3037 -0.6803  0.1088
   85CHL1   C25 8761   4.943   6.593   8.448  0.2096  0.1376  0.6402
   85CHL1   H25 8762   4.947   6.704   8.450  0.4831  0.1320  0.2775
   85CHL1   C26 8763   4.883   6.542   8.581  1.0002 -0.2932 -0.3407
   85CHL1  H26A 8764   4.926   6.592   8.670  0.7509 -0.8540  0.1071
   85CHL1  H26B 8765   4.773   6.558   8.586  0.5870 -1.9190 -2.4400
   85CHL1  H26C 8766   4.909   6.435   8.597 -0.8567 -0.6480  0.5960
   85CHL1   C27 8767   5.092   6.551   8.440  0.5649  0.1146 -0.7385
   85CHL1  H27A 8768   5.141   6.600   8.353  0.8633  0.3581 -0.4382
   85CHL1  H27B 8769   5.154   6.588   8.524 -0.6806 -0.7211  0.5939
   85CHL1  H27C 8770   5.105   6.441   8.435 -0.8491 -0.0318 -2.1822
   86CHL1    C3 8771   6.623   3.253   6.888  0.1992  0.5910  0.1132
   86CHL1    H3 8772   6.515   3.276   6.905  0.0529 -0.3124  0.4700
   86CHL1    O3 8773   6.643   3.221   6.748 -0.0020  0.2050  0.6972
   86CHL1   H3' 8774   6.602   3.135   6.741 -1.8524  1.0903  0.0171
   86CHL1    C4 8775   6.700   3.379   6.935 -0.0595  0.1536 -0.2529
   86CHL1   H4A 8776   6.806   3.346   6.926 -0.3713 -0.5907 -1.5165
   86CHL1   H4B 8777   6.689   3.469   6.871  0.0541 -0.3679 -1.0238
   86CHL1    C5 8778   6.655   3.405   7.075 -0.4800  0.4422 -0.0550
   86CHL1    C6 8779   6.601   3.528   7.111 -0.2191  1.0059  0.2601
   86CHL1    H6 8780   6.607   3.608   7.036  1.5252  0.8577  0.2141
   86CHL1    C7 8781   6.549   3.566   7.246 -0.0749 -0.2729  0.1801
   86CHL1   H7A 8782   6.577   3.672   7.267  0.4808 -0.7521  2.1189
   86CHL1   H7B 8783   6.438   3.562   7.246 -0.1260  0.8644  0.0345
   86CHL1    C8 8784   6.608   3.468   7.355  1.1230  0.1308  0.2723
   86CHL1    H8 8785   6.716   3.484   7.377  0.5238  2.0420  2.1435
   86CHL1   C14 8786   6.533   3.494   7.491 -0.4739 -0.2438  0.2207
   86CHL1   H14 8787   6.423   3.483   7.477 -0.7751 -0.5055  2.4435
   86CHL1   C15 8788   6.546   3.628   7.550  0.2557 -0.3933 -0.8543
   86CHL1  H15A 8789   6.642   3.671   7.514  0.3456  0.4732  0.3839
   86CHL1  H15B 8790   6.464   3.691   7.507 -1.0104 -0.9694  0.6216
   86CHL1   C16 8791   6.533   3.611   7.705 -0.0068 -0.0901  0.1842
   86CHL1  H16A 8792   6.630   3.646   7.747  0.1232  2.8918 -2.2544
   86CHL1  H16B 8793   6.462   3.680   7.757 -0.2929  0.1432 -0.5118
   86CHL1   C17 8794   6.506   3.457   7.724  1.0605 -0.1969 -0.2181
   86CHL1   H17 8795   6.398   3.454   7.698  1.6385  1.2706 -3.2647
   86CHL1   C13 8796   6.573   3.393   7.597 -0.5151  0.5922 -0.0907
   86CHL1   C18 8797   6.721   3.398   7.622 -0.3195 -0.3042 -0.3511
   86CHL1  H18A 8798   6.782   3.374   7.532  1.3193 -1.5853  1.0276
   86CHL1  H18B 8799   6.750   3.494   7.668  0.6841 -0.8679  0.2223
   86CHL1  H18C 8800   6.765   3.326   7.694 -0.8942  1.1057  1.4779
   86CHL1   C12 8801   6.527   3.254   7.548 -0.8589  0.0181 -0.7640
   86CHL1  H12A 8802   6.539   3.174   7.625  0.6601  1.5066  0.6481
   86CHL1  H12B 8803   6.417   3.257   7.533 -1.4035 -2.7627  1.6585
   86CHL1   C11 8804   6.598   3.211   7.420  0.4421 -0.4680 -0.1601
   86CHL1  H11A 8805   6.704   3.202   7.451  0.0153  3.3046  3.3806
   86CHL1  H11B 8806   6.562   3.112   7.387 -1.2115  0.1894 -0.4279
   86CHL1    C9 8807   6.586   3.322   7.305 -0.0792 -0.4572 -0.3570
   86CHL1    H9 8808   6.478   3.317   7.284  0.1304 -1.5390 -1.2784
   86CHL1   C10 8809   6.660   3.290   7.177 -0.2647 -0.8893  0.2589
   86CHL1   C19 8810   6.811   3.268   7.205  0.4362 -0.1355  0.0626
   86CHL1  H19A 8811   6.853   3.349   7.268 -1.1592  0.1244  0.8449
   86CHL1  H19B 8812   6.829   3.174   7.261 -0.8364 -1.2779 -1.3774
   86CHL1  H19C 8813   6.865   3.252   7.109  1.1854 -0.6430  0.5598
   86CHL1    C1 8814   6.610   3.158   7.118  0.5209 -0.5557 -0.3456
   86CHL1   H1A 8815   6.641   3.068   7.176  1.8429 -1.3418 -2.1951
   86CHL1   H1B 8816   6.499   3.169   7.125  0.6839  0.6123  1.0082
   86CHL1    C2 8817   6.657   3.130   6.970  0.2942  0.0868 -1.0876
   86CHL1   H2A 8818   6.587   3.046   6.946  1.7795 -1.7920  0.8012
   86CHL1   H2B 8819   6.764   3.102   6.963  0.6830  0.7938  1.0950
   86CHL1   C20 8820   6.542   3.415   7.861  0.1631 -0.0411  0.2115
   86CHL1   H20 8821   6.644   3.443   7.897 -0.2925  0.5244  1.1029
   86CHL1   C21 8822   6.528   3.267   7.871 -0.2185  0.1746 -0.2181
   86CHL1  H21A 8823   6.432   3.235   7.825  1.0500 -1.1136 -2.0687
   86CHL1  H21B 8824   6.538   3.232   7.976  1.5021  0.1309 -0.3685
   86CHL1  H21C 8825   6.613   3.218   7.821 -1.3775 -0.1747 -1.9266
   86CHL1   C22 8826   6.445   3.481   7.961 -0.1598  0.0368 -0.0476
   86CHL1  H22A 8827   6.451   3.591   7.948 -0.3618 -0.1062 -1.6372
   86CHL1  H22B 8828   6.344   3.438   7.946  0.3240 -0.6498 -1.5821
   86CHL1   C23 8829   6.480   3.461   8.112 -0.3670 -1.0153  0.0796
   86CHL1  H23A 8830   6.390   3.506   8.160 -0.4467 -1.5819  0.4718
   86CHL1  H23B 8831   6.496   3.351   8.120 -0.1429 -1.0830 -1.0805
   86CHL1   C24 8832   6.609   3.536   8.153 -0.1704 -0.3869 -0.2007
   86CHL1  H24A 8833   6.689   3.516   8.078  0.2353 -1.5071  0.5045
   86CHL1  H24B 8834   6.589   3.644   8.137 -1.9078 -0.9909 -2.7744
   86CHL1   C25 8835   6.656   3.507   8.296 -0.0784  1.1064 -0.6913
   86CHL1   H25 8836   6.571   3.506   8.367  1.6476  0.4792  1.4721
   86CHL1   C26 8837   6.716   3.365   8.308 -0.4483  0.4886 -0.2067
   86CHL1  H26A 8838   6.779   3.342   8.219  2.2774  0.2536  1.6713
   86CHL1  H26B 8839   6.775   3.363   8.402 -2.2648  2.7549  1.0863
   86CHL1  H26C 8840   6.627   3.299   8.316 -1.6525  2.0464 -0.2007
   86CHL1   C27 8841   6.758   3.606   8.341  0.3171  0.2918  0.6375
   86CHL1  H27A 8842   6.835   3.605   8.261 -0.2461  0.7279  0.0883
   86CHL1  H27B 8843   6.710   3.705   8.354  1.0170  0.2915  4.7920
   86CHL1  H27C 8844   6.806   3.571   8.435  0.3688 -1.7866 -0.1093
   87CHL1    C3 8845   1.848   6.574   6.952  0.5428  0.2375  0.7328
   87CHL1    H3 8846   1.933   6.643   6.969 -0.8240  2.0329  0.5538
   87CHL1    O3 8847   1.835   6.537   6.813  0.1628 -0.5347  0.2225
   87CHL1   H3' 8848   1.792   6.609   6.766 -0.7166 -0.8188  0.5687
   87CHL1    C4 8849   1.883   6.445   7.024  0.2595 -0.5455 -0.6611
   87CHL1   H4A 8850   1.817   6.359   6.998 -0.8709 -0.0217  0.3678
   87CHL1   H4B 8851   1.980   6.411   6.981 -0.9221 -1.6567 -2.6090
   87CHL1    C5 8852   1.895   6.466   7.172 -0.5499 -0.2535 -0.3574
   87CHL1    C6 8853   2.005   6.419   7.234 -0.3845  0.0430 -0.9031
   87CHL1    H6 8854   2.082   6.369   7.174  0.1491  0.8421 -0.8902
   87CHL1    C7 8855   2.013   6.404   7.387  0.0711  0.8010  0.2436
   87CHL1   H7A 8856   2.039   6.300   7.418  1.9240  1.6489  1.7407
   87CHL1   H7B 8857   2.103   6.460   7.422  1.1440 -1.4190  1.2497
   87CHL1    C8 8858   1.888   6.462   7.460 -0.1267 -0.2448  0.2272
   87CHL1    H8 8859   1.816   6.377   7.465 -2.2315  1.4290  0.0100
   87CHL1   C14 8860   1.910   6.507   7.603 -0.0747 -0.3427  0.4480
   87CHL1   H14 8861   1.965   6.603   7.595 -2.0546  0.7911 -0.2025
   87CHL1   C15 8862   1.981   6.408   7.695 -0.3542  0.2728  0.5847
   87CHL1  H15A 8863   1.945   6.303   7.705  2.1565 -0.5518  1.9171
   87CHL1  H15B 8864   2.091   6.394   7.682 -0.1657  1.4032  0.8503
   87CHL1   C16 8865   1.953   6.453   7.848  0.2427  0.3062  0.4378
   87CHL1  H16A 8866   1.901   6.364   7.890 -0.7240 -0.6046 -2.4346
   87CHL1  H16B 8867   2.044   6.495   7.896  0.1246  1.8043 -0.5821
   87CHL1   C17 8868   1.837   6.562   7.832 -0.1608 -0.2795 -0.3171
   87CHL1   H17 8869   1.890   6.660   7.835  1.7203 -1.2671  1.2351
   87CHL1   C13 8870   1.788   6.542   7.684 -0.4204 -0.3153 -0.4323
   87CHL1   C18 8871   1.680   6.425   7.689 -0.4815 -0.2352  0.9600
   87CHL1  H18A 8872   1.658   6.390   7.586  0.7423 -0.7819  0.8643
   87CHL1  H18B 8873   1.710   6.344   7.760  1.6976  0.1178  0.5118
   87CHL1  H18C 8874   1.591   6.478   7.729 -0.0500  1.9748 -0.8002
   87CHL1   C12 8875   1.737   6.667   7.612  0.7237 -0.0079  0.7129
   87CHL1  H12A 8876   1.652   6.720   7.660  0.0770  0.1494 -0.5732
   87CHL1  H12B 8877   1.817   6.743   7.603 -0.0161  0.6892 -0.3028
   87CHL1   C11 8878   1.695   6.641   7.463 -0.4211 -0.2828 -0.6230
   87CHL1  H11A 8879   1.611   6.569   7.468 -0.5170 -0.1527 -0.3357
   87CHL1  H11B 8880   1.658   6.739   7.424 -0.8403 -1.1501 -2.5321
   87CHL1    C9 8881   1.811   6.570   7.384 -0.4581  0.0677  0.5806
   87CHL1    H9 8882   1.883   6.655   7.385 -0.5139  0.1196  1.4553
   87CHL1   C10 8883   1.777   6.533   7.242 -0.3423 -0.2660  0.3973
   87CHL1   C19 8884   1.674   6.423   7.243  0.1235  0.6703  0.3433
   87CHL1  H19A 8885   1.634   6.403   7.141 -2.6341  1.5791  1.1607
   87CHL1  H19B 8886   1.718   6.325   7.271  0.4894  1.1737  1.5879
   87CHL1  H19C 8887   1.585   6.433   7.308  0.5260 -1.9896  1.4306
   87CHL1    C1 8888   1.728   6.657   7.167  0.6209  0.4088  0.6363
   87CHL1   H1A 8889   1.628   6.683   7.208  1.1353  0.9964  1.5579
   87CHL1   H1B 8890   1.799   6.742   7.181 -0.5533  1.6591 -0.6305
   87CHL1    C2 8891   1.724   6.637   7.014  0.4792  0.3892 -0.8884
   87CHL1   H2A 8892   1.722   6.737   6.964 -0.3199  0.4229 -0.8074
   87CHL1   H2B 8893   1.642   6.570   6.980  1.8736 -2.8819  1.6643
   87CHL1   C20 8894   1.737   6.559   7.953 -0.5018  0.2081 -0.8740
   87CHL1   H20 8895   1.679   6.465   7.944  2.2444 -1.8090  1.0995
   87CHL1   C21 8896   1.648   6.680   7.946  0.1243 -0.3315  0.5257
   87CHL1  H21A 8897   1.564   6.663   8.016  0.1554 -0.2871  0.5732
   87CHL1  H21B 8898   1.604   6.681   7.844  0.9446 -0.0873  0.1632
   87CHL1  H21C 8899   1.701   6.776   7.962 -1.2963  0.2399  1.9756
   87CHL1   C22 8900   1.806   6.557   8.089 -0.2341  0.5124 -0.2063
   87CHL1  H22A 8901   1.883   6.476   8.090 -0.4666  0.2928  1.0056
   87CHL1  H22B 8902   1.858   6.648   8.126  0.0960  0.2005  0.1135
   87CHL1   C23 8903   1.712   6.533   8.200 -0.3376 -0.2227 -0.5869
   87CHL1  H23A 8904   1.627   6.605   8.208 -0.6601 -0.6994  0.6259
   87CHL1  H23B 8905   1.671   6.431   8.186 -1.4557  0.4488 -2.5595
   87CHL1   C24 8906   1.776   6.539   8.343 -0.3499  1.1102  0.3030
   87CHL1  H24A 8907   1.852   6.458   8.352 -0.2347  1.1087 -0.5392
   87CHL1  H24B 8908   1.844   6.627   8.338  1.7965 -0.4874 -0.2804
   87CHL1   C25 8909   1.680   6.550   8.465 -0.5769  0.8571  0.0174
   87CHL1   H25 8910   1.617   6.640   8.451 -1.1236  0.6806  1.2179
   87CHL1   C26 8911   1.598   6.417   8.478 -0.1030 -0.5311  0.5873
   87CHL1  H26A 8912   1.659   6.329   8.507 -0.2142 -1.0117 -0.5792
   87CHL1  H26B 8913   1.527   6.428   8.563 -0.2243 -0.1965  0.4478
   87CHL1  H26C 8914   1.532   6.385   8.395  0.0199  2.7508 -0.9315
   87CHL1   C27 8915   1.758   6.574   8.595  0.0621  0.6847  0.5880
   87CHL1  H27A 8916   1.690   6.582   8.683 -0.9739 -0.6342 -0.0504
   87CHL1  H27B 8917   1.824   6.488   8.615 -0.4817  0.4274  1.3185
   87CHL1  H27C 8918   1.816   6.669   8.598  0.5067  0.4756 -0.8129
   88CHL1    C3 8919   4.204   6.677   7.004 -0.4196  0.1909 -0.1261
   88CHL1    H3 8920   4.315   6.673   6.994 -0.3113 -1.5121  1.2118
   88CHL1    O3 8921   4.144   6.705   6.884  0.2944  0.3252  0.1109
   88CHL1   H3' 8922   4.051   6.692   6.908  1.0594 -0.6286  2.9637
   88CHL1    C4 8923   4.154   6.548   7.066 -0.7074 -0.0935 -0.5979
   88CHL1   H4A 8924   4.043   6.543   7.074 -0.5571 -3.7780  2.3075
   88CHL1   H4B 8925   4.180   6.474   6.988  0.4933  0.7031 -0.9768
   88CHL1    C5 8926   4.210   6.531   7.202 -0.5338  0.0505 -0.1847
   88CHL1    C6 8927   4.277   6.421   7.236 -0.0412 -0.5231 -0.1417
   88CHL1    H6 8928   4.282   6.343   7.159 -3.1537 -1.4497  0.4742
   88CHL1    C7 8929   4.327   6.400   7.377  0.0614 -0.8951 -0.3578
   88CHL1   H7A 8930   4.300   6.295   7.402 -1.9235 -0.1354  0.9837
   88CHL1   H7B 8931   4.436   6.411   7.365 -0.0757  2.8392  0.3817
   88CHL1    C8 8932   4.260   6.497   7.480 -0.8258  0.1467 -0.1036
   88CHL1    H8 8933   4.152   6.469   7.482 -0.4643 -1.3819 -0.7127
   88CHL1   C14 8934   4.318   6.479   7.618 -0.1537 -0.1161  0.1708
   88CHL1   H14 8935   4.427   6.492   7.599 -0.4217 -0.6174 -2.0875
   88CHL1   C15 8936   4.310   6.341   7.687  1.0814  0.2290  0.1101
   88CHL1  H15A 8937   4.212   6.297   7.659  0.8807  0.0113  1.1273
   88CHL1  H15B 8938   4.387   6.266   7.659  2.6176  1.6799  0.2902
   88CHL1   C16 8939   4.333   6.376   7.835  0.1839 -0.4224  0.4833
   88CHL1  H16A 8940   4.244   6.339   7.889  0.6780 -0.3478  1.3683
   88CHL1  H16B 8941   4.429   6.331   7.870  0.5815  1.5015  2.0715
   88CHL1   C17 8942   4.340   6.533   7.854 -0.3263  0.5571  0.5823
   88CHL1   H17 8943   4.444   6.567   7.874  0.3077 -2.3912  2.9909
   88CHL1   C13 8944   4.276   6.584   7.718  0.3606  0.0970 -0.3216
   88CHL1   C18 8945   4.120   6.584   7.738 -0.1118  0.1353  0.4515
   88CHL1  H18A 8946   4.067   6.554   7.645  2.0180 -0.2027 -0.7165
   88CHL1  H18B 8947   4.089   6.505   7.809  0.5634 -0.1434  0.4481
   88CHL1  H18C 8948   4.083   6.686   7.762 -0.0187  0.2281  0.2053
   88CHL1   C12 8949   4.325   6.724   7.675 -0.1424 -0.3282  0.2175
   88CHL1  H12A 8950   4.287   6.797   7.749 -0.1587 -1.8628  1.8040
   88CHL1  H12B 8951   4.436   6.723   7.668 -0.1949  1.2156 -1.3660
   88CHL1   C11 8952   4.263   6.758   7.536 -0.0495  0.5773 -0.4294
   88CHL1  H11A 8953   4.157   6.782   7.557 -0.0014  1.1436 -0.8009
   88CHL1  H11B 8954   4.307   6.846   7.484 -0.5199  0.4413 -1.0626
   88CHL1    C9 8955   4.273   6.642   7.428  1.0313  1.0323  0.3443
   88CHL1    H9 8956   4.380   6.658   7.402  0.7893  1.6547 -0.2640
   88CHL1   C10 8957   4.189   6.654   7.297  0.2563 -0.0684  0.1295
   88CHL1   C19 8958   4.038   6.663   7.336 -0.0052 -0.1193 -0.1588
   88CHL1  H19A 8959   4.024   6.754   7.399  0.4684 -0.0417 -0.1614
   88CHL1  H19B 8960   3.966   6.677   7.253 -1.0147  2.6987  1.0740
   88CHL1  H19C 8961   4.005   6.587   7.409 -0.5660  1.0706  0.8606
   88CHL1    C1 8962   4.238   6.788   7.225  0.5782  0.2375  0.1186
   88CHL1   H1A 8963   4.226   6.888   7.272  2.2243  0.8849 -0.7990
   88CHL1   H1B 8964   4.348   6.777   7.217  1.2508  3.9837  2.2053
   88CHL1    C2 8965   4.172   6.799   7.084  0.0700 -0.2397  0.5147
   88CHL1   H2A 8966   4.216   6.885   7.029  0.3563  0.1972  1.4089
   88CHL1   H2B 8967   4.063   6.822   7.087 -0.2656 -1.1849 -1.8907
   88CHL1   C20 8968   4.276   6.577   7.991 -0.6521  0.6414  0.1917
   88CHL1   H20 8969   4.179   6.523   7.987  0.1779 -0.9197 -3.6192
   88CHL1   C21 8970   4.263   6.731   8.000 -0.5122 -1.0799 -0.2719
   88CHL1  H21A 8971   4.211   6.758   8.095 -1.6144 -0.5832 -1.0029
   88CHL1  H21B 8972   4.186   6.771   7.930  0.1136  1.4726  0.4003
   88CHL1  H21C 8973   4.361   6.782   7.999 -0.8158 -0.4436  0.7425
   88CHL1   C22 8974   4.353   6.517   8.107  0.5974 -0.3334 -0.3171
   88CHL1  H22A 8975   4.402   6.420   8.084  0.2182 -0.1573 -1.9543
   88CHL1  H22B 8976   4.434   6.590   8.128  0.2499 -0.4089  1.4871
   88CHL1   C23 8977   4.272   6.519   8.238  0.0710 -0.5759 -0.2720
   88CHL1  H23A 8978   4.344   6.501   8.321 -0.0038 -1.6434 -0.4280
   88CHL1  H23B 8979   4.222   6.615   8.263  0.2564 -0.3266 -0.8285
   88CHL1   C24 8980   4.171   6.407   8.241 -0.2252 -0.0388  0.3373
   88CHL1  H24A 8981   4.138   6.388   8.136  1.1025  3.7377 -0.9384
   88CHL1  H24B 8982   4.227   6.314   8.266  0.2480 -0.1523 -1.0424
   88CHL1   C25 8983   4.045   6.428   8.320 -0.5396 -0.3663  0.1404
   88CHL1   H25 8984   4.074   6.489   8.408 -0.5461  0.1500 -0.2089
   88CHL1   C26 8985   3.939   6.506   8.247 -0.1883 -0.1875 -0.4170
   88CHL1  H26A 8986   3.978   6.599   8.199  0.2909  0.3880  1.0164
   88CHL1  H26B 8987   3.902   6.435   8.171  0.9930  0.1943 -1.3789
   88CHL1  H26C 8988   3.860   6.528   8.322 -0.4894  2.1232 -1.2992
   88CHL1   C27 8989   3.986   6.307   8.383  0.1680  0.4137  0.0377
   88CHL1  H27A 8990   3.912   6.342   8.458  0.0773  1.2711 -0.4436
   88CHL1  H27B 8991   3.934   6.247   8.306 -1.6273 -0.8091  2.0811
   88CHL1  H27C 8992   4.058   6.251   8.447 -0.0624  1.2205  1.0343
   89CHL1    C3 8993   2.857   1.312   6.948 -0.0620  0.1537  0.0742
   89CHL1    H3 8994   2.952   1.361   6.975  0.1134  0.2153 -0.6468
   89CHL1    O3 8995   2.866   1.268   6.811 -0.3843  0.3129  0.1436
   89CHL1   H3' 8996   2.776   1.276   6.779 -1.1180  0.6004  2.1170
   89CHL1    C4 8997   2.819   1.201   7.044 -0.3736  0.0089  0.2087
   89CHL1   H4A 8998   2.721   1.152   7.025 -0.7967  0.3072  1.4898
   89CHL1   H4B 8999   2.891   1.117   7.031  1.9310  1.5618  2.0513
   89CHL1    C5 9000   2.814   1.255   7.181 -0.0690 -0.2566 -0.0527
   89CHL1    C6 9001   2.902   1.211   7.272  0.2954 -0.1106 -0.2966
   89CHL1    H6 9002   2.985   1.141   7.252 -2.2226 -3.1454 -0.9462
   89CHL1    C7 9003   2.888   1.248   7.418  0.0965 -1.2152  1.1011
   89CHL1   H7A 9004   2.910   1.168   7.491 -0.8179  0.3130  3.1696
   89CHL1   H7B 9005   2.967   1.321   7.445 -1.1164  0.7837 -0.4278
   89CHL1    C8 9006   2.759   1.315   7.457  0.2352  0.7296 -0.2432
   89CHL1    H8 9007   2.677   1.242   7.476  3.0786 -2.0916  2.2184
   89CHL1   C14 9008   2.769   1.377   7.597 -0.2959  0.7476  0.8259
   89CHL1   H14 9009   2.842   1.461   7.594 -0.0811  0.5778  1.2622
   89CHL1   C15 9010   2.810   1.282   7.713 -0.4974 -0.1293  0.4405
   89CHL1  H15A 9011   2.764   1.182   7.696  1.8765 -0.9622 -1.9403
   89CHL1  H15B 9012   2.921   1.269   7.712 -0.3912  0.4550  2.1788
   89CHL1   C16 9013   2.751   1.353   7.830 -0.6312 -0.4495 -0.5076
   89CHL1  H16A 9014   2.669   1.288   7.869 -0.5598  0.4539  1.2667
   89CHL1  H16B 9015   2.829   1.372   7.906  0.1605  1.6270 -1.7694
   89CHL1   C17 9016   2.679   1.484   7.790  0.5617  0.5751  0.2602
   89CHL1   H17 9017   2.760   1.559   7.771 -1.3099  1.8553 -3.9150
   89CHL1   C13 9018   2.633   1.445   7.645 -0.0171  0.1229  0.1604
   89CHL1   C18 9019   2.514   1.342   7.650 -1.1565 -1.0217  0.3403
   89CHL1  H18A 9020   2.416   1.389   7.673 -1.4486  0.2870 -2.9287
   89CHL1  H18B 9021   2.499   1.285   7.556 -0.5012  0.5515 -0.7687
   89CHL1  H18C 9022   2.523   1.271   7.734  0.5167 -1.9085 -0.5285
   89CHL1   C12 9023   2.614   1.565   7.541  0.9248  0.2735 -0.7174
   89CHL1  H12A 9024   2.524   1.627   7.564  1.4759  0.3004  1.5026
   89CHL1  H12B 9025   2.711   1.619   7.541  1.0735  0.3947  3.9018
   89CHL1   C11 9026   2.599   1.514   7.398  0.1693 -0.2334  0.0177
   89CHL1  H11A 9027   2.498   1.470   7.391  0.0486 -0.1902  1.2776
   89CHL1  H11B 9028   2.603   1.611   7.343  1.6570  0.5187  1.3613
   89CHL1    C9 9029   2.723   1.422   7.351 -0.2425  0.2992 -0.2394
   89CHL1    H9 9030   2.817   1.481   7.348 -0.4956  0.7050 -0.2064
   89CHL1   C10 9031   2.702   1.358   7.204  0.0311  0.2000  0.0624
   89CHL1   C19 9032   2.561   1.295   7.205  0.5233 -0.3676  0.0203
   89CHL1  H19A 9033   2.545   1.236   7.113  2.1518 -0.7406 -0.0577
   89CHL1  H19B 9034   2.551   1.236   7.299 -2.3009  0.0289  0.0620
   89CHL1  H19C 9035   2.473   1.362   7.207  1.4771  0.9768 -1.2638
   89CHL1    C1 9036   2.714   1.473   7.100  0.2602  0.0974  0.4088
   89CHL1   H1A 9037   2.619   1.531   7.099 -0.4475 -1.0198  1.0836
   89CHL1   H1B 9038   2.790   1.545   7.138  1.2416 -0.4528 -0.4502
   89CHL1    C2 9039   2.747   1.421   6.958  0.1596 -0.4450  0.1287
   89CHL1   H2A 9040   2.786   1.502   6.893 -0.1408  0.5193  1.1218
   89CHL1   H2B 9041   2.651   1.384   6.915  0.2771  2.5042 -3.0425
   89CHL1   C20 9042   2.578   1.523   7.896 -0.0797 -0.7291  0.2434
   89CHL1   H20 9043   2.504   1.440   7.902  1.7332 -2.3129  1.8837
   89CHL1   C21 9044   2.517   1.658   7.852 -0.3520  0.3994  0.0295
   89CHL1  H21A 9045   2.601   1.725   7.824  1.1160 -0.8443  1.2708
   89CHL1  H21B 9046   2.445   1.701   7.925 -1.6041 -2.4135  0.6116
   89CHL1  H21C 9047   2.461   1.630   7.761 -1.0571  0.1245  0.5372
   89CHL1   C22 9048   2.641   1.534   8.038  0.0152  0.0321  0.3985
   89CHL1  H22A 9049   2.661   1.430   8.069  1.4682 -0.2342 -1.2401
   89CHL1  H22B 9050   2.742   1.580   8.036  0.0362  0.0848  1.9062
   89CHL1   C23 9051   2.556   1.593   8.153 -0.5871 -0.0503 -0.4015
   89CHL1  H23A 9052   2.530   1.701   8.151  0.0191  0.3933  4.3131
   89CHL1  H23B 9053   2.458   1.541   8.150 -1.3169  1.1884  0.6558
   89CHL1   C24 9054   2.625   1.576   8.292 -0.2149  0.1228 -0.7458
   89CHL1  H24A 9055   2.602   1.477   8.338  2.3220 -0.4119 -0.4497
   89CHL1  H24B 9056   2.735   1.584   8.281 -0.0266  1.3704  1.3829
   89CHL1   C25 9057   2.593   1.675   8.402  0.1790  0.2372  0.1805
   89CHL1   H25 9058   2.646   1.646   8.495  1.1823  2.8856  0.5198
   89CHL1   C26 9059   2.631   1.818   8.369 -0.0643 -0.1442  0.4334
   89CHL1  H26A 9060   2.581   1.856   8.277  3.3632 -0.3559 -1.6990
   89CHL1  H26B 9061   2.590   1.883   8.450 -1.2807 -0.7305  0.3151
   89CHL1  H26C 9062   2.739   1.830   8.344  0.1579  1.6377  2.0254
   89CHL1   C27 9063   2.440   1.675   8.442  0.0136  0.3307  0.5430
   89CHL1  H27A 9064   2.401   1.577   8.476 -0.9699  0.0320 -1.3216
   89CHL1  H27B 9065   2.413   1.760   8.508  0.5919  0.7540  0.2410
   89CHL1  H27C 9066   2.381   1.691   8.349  2.2462  0.1962 -0.9814
   90CHL1    C3 9067   6.179   3.246   6.972  0.2493  0.5078  0.1745
   90CHL1    H3 9068   6.242   3.155   6.968  1.1287  1.1083  0.1229
   90CHL1    O3 9069   6.178   3.300   6.838 -0.0725 -0.1528  0.0044
   90CHL1   H3' 9070   6.240   3.373   6.834 -1.0846  0.9014  2.0900
   90CHL1    C4 9071   6.025   3.204   7.009 -0.0419  0.5584  0.8622
   90CHL1   H4A 9072   5.959   3.289   6.980  0.9422  1.0386 -0.0377
   90CHL1   H4B 9073   6.008   3.111   6.950  1.0484  0.9117 -0.0347
   90CHL1    C5 9074   6.005   3.172   7.149  0.9805  0.2554 -0.8716
   90CHL1    C6 9075   5.926   3.068   7.182 -0.0755  0.2911 -0.2087
   90CHL1    H6 9076   5.875   3.009   7.104 -0.2804 -0.0620  0.1880
   90CHL1    C7 9077   5.892   3.033   7.327  0.2789 -0.5459 -0.0672
   90CHL1   H7A 9078   5.785   3.005   7.338  0.4189 -0.7638  0.7423
   90CHL1   H7B 9079   5.945   2.939   7.353  2.3421  0.1433 -1.4676
   90CHL1    C8 9080   5.923   3.146   7.432  0.0330  0.3081 -1.1856
   90CHL1    H8 9081   5.840   3.220   7.428  0.0731  0.6746  1.9807
   90CHL1   C14 9082   5.924   3.085   7.574 -0.0868 -0.5989 -1.5849
   90CHL1   H14 9083   6.013   3.018   7.571  0.6114  0.1175  0.7660
   90CHL1   C15 9084   5.803   2.995   7.614  0.0291  0.3584  0.8358
   90CHL1  H15A 9085   5.703   3.032   7.584  0.0737 -1.3538 -1.7582
   90CHL1  H15B 9086   5.819   2.890   7.580  1.6524  0.9960 -0.5594
   90CHL1   C16 9087   5.808   2.993   7.770 -0.2415  0.4562  0.5740
   90CHL1  H16A 9088   5.714   3.034   7.813  1.7346  4.0122  1.8801
   90CHL1  H16B 9089   5.831   2.886   7.792  0.2024  0.2332 -0.8786
   90CHL1   C17 9090   5.925   3.095   7.808  0.5601  1.1671  0.2112
   90CHL1   H17 9091   6.011   3.025   7.818 -1.5120 -2.3643 -3.3976
   90CHL1   C13 9092   5.949   3.185   7.684  0.5372 -0.2131  0.4519
   90CHL1   C18 9093   5.841   3.303   7.670  0.3908 -0.0806  0.3251
   90CHL1  H18A 9094   5.856   3.366   7.761  3.0714  1.1381 -0.8595
   90CHL1  H18B 9095   5.843   3.372   7.583  0.7869  2.2894  2.0872
   90CHL1  H18C 9096   5.741   3.259   7.693  1.1960 -0.2471  4.3981
   90CHL1   C12 9097   6.084   3.246   7.661 -0.8229 -0.1386  0.0257
   90CHL1  H12A 9098   6.108   3.334   7.725  0.1517  0.2998 -0.9024
   90CHL1  H12B 9099   6.160   3.168   7.682 -0.0669  0.3837 -0.6693
   90CHL1   C11 9100   6.095   3.301   7.520  0.0577 -0.2306 -0.0312
   90CHL1  H11A 9101   6.026   3.387   7.509  0.4017 -0.0511 -0.9045
   90CHL1  H11B 9102   6.196   3.343   7.502  0.1066  0.5821  1.9156
   90CHL1    C9 9103   6.055   3.199   7.397 -0.5642 -0.2022 -0.3322
   90CHL1    H9 9104   6.122   3.110   7.405  0.4947  0.5192 -0.9846
   90CHL1   C10 9105   6.074   3.256   7.255  0.1272 -0.1559  0.0885
   90CHL1   C19 9106   6.000   3.388   7.252 -0.0899 -0.0674 -0.0556
   90CHL1  H19A 9107   5.911   3.389   7.318  1.1181  1.3498  1.6646
   90CHL1  H19B 9108   6.057   3.475   7.291 -1.7538  1.8935 -1.7497
   90CHL1  H19C 9109   5.985   3.417   7.145 -0.9468 -0.4976 -0.0555
   90CHL1    C1 9110   6.218   3.284   7.215  0.2313 -0.0940 -0.6597
   90CHL1   H1A 9111   6.272   3.343   7.292  0.8740  0.5600 -1.5967
   90CHL1   H1B 9112   6.274   3.189   7.232  1.5691  0.6716 -0.5966
   90CHL1    C2 9113   6.244   3.340   7.075  0.5258  0.5180 -0.0451
   90CHL1   H2A 9114   6.346   3.376   7.049 -0.3192  3.1364 -0.0229
   90CHL1   H2B 9115   6.196   3.439   7.058 -1.3441  0.0965  2.2183
   90CHL1   C20 9116   5.909   3.158   7.944  0.1682 -0.3326  0.3897
   90CHL1   H20 9117   5.823   3.228   7.945  0.5368  0.1490 -0.4106
   90CHL1   C21 9118   6.039   3.236   7.983 -0.3881  0.3850  0.0101
   90CHL1  H21A 9119   6.036   3.276   8.087 -1.4705 -0.6652  0.4067
   90CHL1  H21B 9120   6.037   3.327   7.919 -1.7843  0.4293  0.0709
   90CHL1  H21C 9121   6.130   3.178   7.961 -0.2217  0.8494 -0.5421
   90CHL1   C22 9122   5.882   3.057   8.062 -1.0092 -0.0197 -0.2607
   90CHL1  H22A 9123   5.795   2.992   8.040  0.2356 -1.7045 -0.4548
   90CHL1  H22B 9124   5.968   2.987   8.074 -2.8549 -2.6590 -1.4574
   90CHL1   C23 9125   5.863   3.140   8.195 -0.3286  0.7557 -0.6661
   90CHL1  H23A 9126   5.961   3.173   8.236  0.3402 -1.5855 -0.2079
   90CHL1  H23B 9127   5.788   3.219   8.176 -1.1426  0.2289  0.1891
   90CHL1   C24 9128   5.811   3.037   8.310  0.8550  0.1837  0.7991
   90CHL1  H24A 9129   5.724   2.980   8.272 -0.1498  0.2343  2.9130
   90CHL1  H24B 9130   5.886   2.967   8.353  0.2824 -0.3115  1.0094
   90CHL1   C25 9131   5.732   3.103   8.424 -1.4644 -0.1916  0.1918
   90CHL1   H25 9132   5.653   3.172   8.387 -1.9247 -0.0882  1.3196
   90CHL1   C26 9133   5.669   3.003   8.514 -0.7365 -0.2581 -0.0633
   90CHL1  H26A 9134   5.743   2.933   8.558 -0.4052 -1.7095 -2.7155
   90CHL1  H26B 9135   5.616   3.054   8.598 -1.0312 -0.9050  0.1488
   90CHL1  H26C 9136   5.600   2.944   8.450  0.3776 -0.2339 -1.3283
   90CHL1   C27 9137   5.837   3.188   8.503  0.0935  0.5513 -0.6281
   90CHL1  H27A 9138   5.924   3.129   8.537 -0.7681 -0.4885 -0.1630
   90CHL1  H27B 9139   5.879   3.268   8.437  1.9465  0.2696  0.1581
   90CHL1  H27C 9140   5.801   3.238   8.595  0.5681  0.2788 -0.2941
   91CHL1    C3 9141   0.959   6.244   7.285 -0.1106  0.3897 -0.8903
   91CHL1    H3 9142   1.044   6.308   7.319  1.7084 -0.8798 -2.7979
   91CHL1    O3 9143   0.984   6.235   7.143  0.0066 -0.0231 -0.4042
   91CHL1   H3' 9144   0.962   6.320   7.105 -0.8010  0.2904  0.7183
   91CHL1    C4 9145   0.971   6.097   7.332  0.6191 -0.3387  0.1838
   91CHL1   H4A 9146   0.877   6.049   7.297 -0.7395  3.3918 -1.8826
   91CHL1   H4B 9147   1.056   6.038   7.292 -0.5802 -3.0535  1.3349
   91CHL1    C5 9148   0.964   6.087   7.488  0.6378 -0.5209 -0.4125
   91CHL1    C6 9149   1.059   6.035   7.563 -0.8482 -0.2582  0.2394
   91CHL1    H6 9150   1.156   5.997   7.526 -0.9712 -0.6470  0.3095
   91CHL1    C7 9151   1.041   6.025   7.714  0.2752  0.1594 -0.3498
   91CHL1   H7A 9152   1.072   5.926   7.753  1.6592  1.4232  1.9848
   91CHL1   H7B 9153   1.112   6.090   7.770 -1.6894  1.3715  0.8407
   91CHL1    C8 9154   0.887   6.047   7.763  0.7636  0.1795 -0.0861
   91CHL1    H8 9155   0.827   5.962   7.726  1.0089 -0.3493  0.7110
   91CHL1   C14 9156   0.884   6.041   7.922 -0.3194  0.6272 -0.1469
   91CHL1   H14 9157   0.941   6.134   7.940 -1.1220  1.2481 -0.7571
   91CHL1   C15 9158   0.938   5.919   7.984  0.0932 -0.3948  0.0352
   91CHL1  H15A 9159   0.901   5.826   7.935  1.8597 -1.4219  0.5727
   91CHL1  H15B 9160   1.048   5.927   7.989  0.1421 -1.2307  0.6288
   91CHL1   C16 9161   0.875   5.929   8.128  0.1858 -0.4325  0.3497
   91CHL1  H16A 9162   0.830   5.830   8.152  0.6122 -0.9185 -0.7662
   91CHL1  H16B 9163   0.960   5.958   8.193 -0.1202 -0.9977  1.0166
   91CHL1   C17 9164   0.773   6.042   8.121 -0.1121 -0.0713 -0.5217
   91CHL1   H17 9165   0.819   6.139   8.148 -0.3029  0.3836 -1.7727
   91CHL1   C13 9166   0.740   6.064   7.976  0.8291  0.2722 -0.5267
   91CHL1   C18 9167   0.643   5.942   7.940 -0.7576 -0.4729  0.0068
   91CHL1  H18A 9168   0.538   5.978   7.949 -0.1095  1.4302  0.3217
   91CHL1  H18B 9169   0.655   5.888   7.844 -2.4057 -2.6056  0.9198
   91CHL1  H18C 9170   0.647   5.855   8.008 -1.8724 -0.9350 -0.4861
   91CHL1   C12 9171   0.687   6.200   7.921 -0.3251 -0.3844 -0.1123
   91CHL1  H12A 9172   0.582   6.226   7.942 -0.1309 -0.0991  0.5536
   91CHL1  H12B 9173   0.736   6.288   7.968 -1.0859  0.5368 -1.0275
   91CHL1   C11 9174   0.695   6.210   7.771  0.0209  0.3964 -0.2024
   91CHL1  H11A 9175   0.629   6.124   7.748  2.8551 -1.7591 -0.8344
   91CHL1  H11B 9176   0.673   6.309   7.725 -0.5803  0.0817 -0.6059
   91CHL1    C9 9177   0.830   6.166   7.700  0.2806  0.3551  0.1053
   91CHL1    H9 9178   0.900   6.248   7.726  1.2265 -0.6612  0.8868
   91CHL1   C10 9179   0.825   6.148   7.544 -0.1267  0.2355  0.4584
   91CHL1   C19 9180   0.700   6.054   7.504  0.5867  0.7310 -0.4940
   91CHL1  H19A 9181   0.690   6.032   7.395  2.1805  0.7956 -0.6768
   91CHL1  H19B 9182   0.707   5.964   7.569 -1.6083  1.8148  1.4189
   91CHL1  H19C 9183   0.601   6.092   7.537 -0.5703 -2.2744 -0.1288
   91CHL1    C1 9184   0.796   6.291   7.487 -0.5895  0.3977  0.0505
   91CHL1   H1A 9185   0.688   6.310   7.505 -0.0735  2.0186  1.7657
   91CHL1   H1B 9186   0.861   6.364   7.540  0.2471 -1.5242  1.8167
   91CHL1    C2 9187   0.825   6.301   7.330  0.1601  0.3669  0.0767
   91CHL1   H2A 9188   0.809   6.406   7.298  1.4873  1.0473  1.5174
   91CHL1   H2B 9189   0.746   6.244   7.277 -2.4569  4.1883 -0.5385
   91CHL1   C20 9190   0.658   6.031   8.225  0.0150  0.0936 -0.5858
   91CHL1   H20 9191   0.611   5.932   8.205 -0.9332  0.5926 -0.9139
   91CHL1   C21 9192   0.546   6.132   8.209  0.3241  0.0862  0.0383
   91CHL1  H21A 9193   0.482   6.142   8.300  0.0042 -2.1473  0.1075
   91CHL1  H21B 9194   0.471   6.110   8.131  3.3326  0.1216 -3.0991
   91CHL1  H21C 9195   0.584   6.233   8.182  1.1457 -0.2946 -0.2606
   91CHL1   C22 9196   0.708   6.038   8.368  0.5536 -0.4771 -0.2473
   91CHL1  H22A 9197   0.798   5.976   8.385  0.2822 -0.1187  3.3469
   91CHL1  H22B 9198   0.706   6.145   8.399 -6.0377 -0.8314  2.2973
   91CHL1   C23 9199   0.610   5.974   8.468  0.5731 -0.2794 -0.7206
   91CHL1  H23A 9200   0.499   5.977   8.461  0.2645 -0.0777  2.6539
   91CHL1  H23B 9201   0.630   5.866   8.452 -0.2610 -1.2187  3.4968
   91CHL1   C24 9202   0.646   6.019   8.616 -0.4535 -0.6087  0.2859
   91CHL1  H24A 9203   0.630   6.128   8.623 -1.4811 -0.8111  1.4774
   91CHL1  H24B 9204   0.568   5.962   8.672 -0.5508 -0.8797 -0.1223
   91CHL1   C25 9205   0.787   5.993   8.660  0.4523 -0.5437 -0.6020
   91CHL1   H25 9206   0.855   6.042   8.587 -1.7196  2.2943 -0.9152
   91CHL1   C26 9207   0.814   6.069   8.785  0.4835 -0.3304  0.0405
   91CHL1  H26A 9208   0.895   6.016   8.839  1.4707  1.6262  0.5521
   91CHL1  H26B 9209   0.832   6.178   8.780  0.8070 -0.0989  3.5418
   91CHL1  H26C 9210   0.729   6.059   8.856 -0.3860  1.1166 -0.7447
   91CHL1   C27 9211   0.802   5.840   8.669  0.2511 -0.8186  0.9190
   91CHL1  H27A 9212   0.714   5.804   8.726  0.1185 -2.7351 -0.4127
   91CHL1  H27B 9213   0.807   5.794   8.568  0.5053 -1.4508  1.2147
   91CHL1  H27C 9214   0.897   5.831   8.725 -0.1930 -1.6730  1.5502
   92CHL1    C3 9215   5.328   0.456   6.804 -0.4523  0.0862 -0.2469
   92CHL1    H3 9216   5.281   0.538   6.860 -3.5517 -1.6945 -0.0189
   92CHL1    O3 9217   5.263   0.432   6.675 -0.2141 -0.1819  0.1524
   92CHL1   H3' 9218   5.252   0.515   6.628 -1.8397 -0.6756 -0.4065
   92CHL1    C4 9219   5.471   0.506   6.772 -0.0515 -0.2168  0.5289
   92CHL1   H4A 9220   5.535   0.429   6.723  1.2078  1.8155 -1.2375
   92CHL1   H4B 9221   5.477   0.583   6.692 -1.1239 -1.1017 -0.4330
   92CHL1    C5 9222   5.541   0.541   6.906  0.2992 -0.6373  0.9045
   92CHL1    C6 9223   5.576   0.666   6.934  0.1317  0.0860  0.0469
   92CHL1    H6 9224   5.562   0.756   6.872  0.4633  2.1647  2.7597
   92CHL1    C7 9225   5.632   0.713   7.069 -0.4114  0.0664  0.7332
   92CHL1   H7A 9226   5.719   0.780   7.052 -2.0074  2.1509  0.4777
   92CHL1   H7B 9227   5.549   0.773   7.111 -0.3306 -0.6698  1.9870
   92CHL1    C8 9228   5.673   0.587   7.156  0.8482 -0.0633 -0.1948
   92CHL1    H8 9229   5.764   0.544   7.110  2.2030 -2.0734  3.8482
   92CHL1   C14 9230   5.683   0.631   7.297  0.0092 -0.3477 -1.0016
   92CHL1   H14 9231   5.577   0.654   7.324  0.2969 -0.6542  0.4596
   92CHL1   C15 9232   5.776   0.744   7.329 -0.1332  0.0669  0.2103
   92CHL1  H15A 9233   5.867   0.737   7.267 -0.7808 -0.0803 -0.7347
   92CHL1  H15B 9234   5.729   0.840   7.300  0.3947 -0.0790 -1.1784
   92CHL1   C16 9235   5.808   0.737   7.476  0.1734 -0.0429 -0.4889
   92CHL1  H16A 9236   5.917   0.740   7.495  0.3478 -1.8420 -1.0596
   92CHL1  H16B 9237   5.746   0.815   7.526 -1.5100 -0.0766 -2.3507
   92CHL1   C17 9238   5.751   0.600   7.522  0.2069 -0.4745  0.0381
   92CHL1   H17 9239   5.649   0.623   7.559  1.5832  1.9109  2.7393
   92CHL1   C13 9240   5.728   0.522   7.395  0.2534  0.3765  0.7403
   92CHL1   C18 9241   5.863   0.468   7.345  0.3490 -0.1819  0.1909
   92CHL1  H18A 9242   5.889   0.389   7.420 -0.4744 -2.0328 -1.4052
   92CHL1  H18B 9243   5.873   0.420   7.246 -1.7130  0.6024 -0.4429
   92CHL1  H18C 9244   5.942   0.546   7.344  1.3835 -1.0711 -3.5877
   92CHL1   C12 9245   5.619   0.412   7.398  0.3217  0.7890 -0.1738
   92CHL1  H12A 9246   5.668   0.329   7.453 -1.8791 -1.0142 -0.7775
   92CHL1  H12B 9247   5.527   0.454   7.445 -0.7931  2.4095 -3.5285
   92CHL1   C11 9248   5.590   0.359   7.254 -0.4298 -0.0535  0.4151
   92CHL1  H11A 9249   5.676   0.300   7.217  0.9403  1.1374  1.5866
   92CHL1  H11B 9250   5.499   0.295   7.256 -1.0807  0.8523  0.2309
   92CHL1    C9 9251   5.566   0.476   7.149 -0.7752 -0.1829 -0.2343
   92CHL1    H9 9252   5.475   0.525   7.189 -0.5337 -0.7143  0.9951
   92CHL1   C10 9253   5.540   0.424   7.010 -0.3021 -0.2695  0.3158
   92CHL1   C19 9254   5.653   0.327   6.971 -0.1516  0.9088  0.3286
   92CHL1  H19A 9255   5.631   0.238   7.033  2.4328 -1.1495 -1.4878
   92CHL1  H19B 9256   5.655   0.302   6.863  0.0299  1.7658  0.1257
   92CHL1  H19C 9257   5.758   0.356   6.996  1.1318 -0.7900 -2.5552
   92CHL1    C1 9258   5.403   0.354   7.015  0.1375 -0.3809  0.4107
   92CHL1   H1A 9259   5.400   0.265   7.080  1.3045 -1.4967 -1.0032
   92CHL1   H1B 9260   5.327   0.427   7.053 -1.6806  0.3062 -3.8719
   92CHL1    C2 9261   5.336   0.321   6.888  0.0591 -0.4227  0.6220
   92CHL1   H2A 9262   5.231   0.284   6.883 -0.0475 -0.0038 -0.8429
   92CHL1   H2B 9263   5.392   0.255   6.817 -1.7540 -0.9692 -0.3664
   92CHL1   C20 9264   5.825   0.548   7.650  0.1941 -0.1293  0.8549
   92CHL1   H20 9265   5.931   0.526   7.626  0.8433  1.1995  2.2969
   92CHL1   C21 9266   5.755   0.429   7.713 -0.0206 -0.2123 -0.7293
   92CHL1  H21A 9267   5.789   0.387   7.810 -2.4139 -3.1993 -1.0313
   92CHL1  H21B 9268   5.761   0.342   7.644  3.0389  0.5114 -1.5156
   92CHL1  H21C 9269   5.647   0.446   7.734  0.1428 -1.4853  1.3565
   92CHL1   C22 9270   5.830   0.663   7.756 -0.4087  0.1729 -0.5671
   92CHL1  H22A 9271   5.901   0.737   7.712 -2.2707  1.1640 -2.0452
   92CHL1  H22B 9272   5.733   0.718   7.760  0.2892  1.3741  0.5909
   92CHL1   C23 9273   5.873   0.634   7.907  0.5012  0.9919 -0.1753
   92CHL1  H23A 9274   5.797   0.575   7.963  2.4499 -0.7768  0.7494
   92CHL1  H23B 9275   5.956   0.567   7.878 -2.6454 -2.7514 -1.5087
   92CHL1   C24 9276   5.900   0.771   7.978  0.4963 -0.1385  0.1954
   92CHL1  H24A 9277   5.951   0.832   7.900  2.2691 -1.4302  0.2932
   92CHL1  H24B 9278   5.801   0.811   8.007  0.2690  0.2369 -1.0502
   92CHL1   C25 9279   5.996   0.774   8.101  1.0648 -0.3201  0.1445
   92CHL1   H25 9280   6.099   0.745   8.071  1.2267  0.1052  0.2753
   92CHL1   C26 9281   5.993   0.915   8.169 -0.1408  0.5234  0.0597
   92CHL1  H26A 9282   5.890   0.951   8.191  0.0537  1.6061 -0.6682
   92CHL1  H26B 9283   6.051   0.916   8.264 -1.4557  0.3683  0.8914
   92CHL1  H26C 9284   6.033   0.988   8.095 -2.1196  2.2807  0.6193
   92CHL1   C27 9285   5.948   0.671   8.209  0.5081  0.1942 -0.1773
   92CHL1  H27A 9286   5.858   0.701   8.268  0.4036 -3.2970  1.6501
   92CHL1  H27B 9287   5.929   0.582   8.145 -1.1253  1.8105 -2.1130
   92CHL1  H27C 9288   6.030   0.669   8.283 -0.6426  2.6809  1.3271
   93CHL1    C3 9289   3.444   0.663   7.012 -0.6603 -0.0820 -0.0175
   93CHL1    H3 9290   3.357   0.732   7.007  0.2287  1.1913  1.2551
   93CHL1    O3 9291   3.520   0.664   6.899 -0.7034  0.0954  0.2771
   93CHL1   H3' 9292   3.565   0.749   6.899 -0.4561  0.0592  3.2251
   93CHL1    C4 9293   3.539   0.689   7.132  0.4947 -0.3858  0.6819
   93CHL1   H4A 9294   3.624   0.617   7.133 -1.0622 -2.4184 -1.2161
   93CHL1   H4B 9295   3.596   0.783   7.118  1.2144 -0.5981  2.0664
   93CHL1    C5 9296   3.472   0.677   7.260  0.0655  0.7433  0.4726
   93CHL1    C6 9297   3.456   0.782   7.338  0.2660 -0.6003  0.0800
   93CHL1    H6 9298   3.496   0.881   7.313  0.4523 -0.2646  1.6587
   93CHL1    C7 9299   3.401   0.773   7.479 -0.1461  0.2810  0.7434
   93CHL1   H7A 9300   3.481   0.809   7.546  0.8418 -0.5633  0.0552
   93CHL1   H7B 9301   3.312   0.838   7.493 -1.9507 -2.0448  0.6868
   93CHL1    C8 9302   3.375   0.626   7.527 -0.4779 -0.1688 -0.4328
   93CHL1    H8 9303   3.473   0.580   7.555 -0.2619  1.3889  1.6609
   93CHL1   C14 9304   3.299   0.638   7.658  0.6498 -0.2322  0.1269
   93CHL1   H14 9305   3.209   0.691   7.621 -0.4104 -0.5367  2.1145
   93CHL1   C15 9306   3.359   0.718   7.770 -0.1641 -0.3971  0.1946
   93CHL1  H15A 9307   3.459   0.671   7.780  0.0898  0.4006  1.5594
   93CHL1  H15B 9308   3.363   0.828   7.759 -0.6825 -0.1593  2.0150
   93CHL1   C16 9309   3.263   0.684   7.884  0.1576 -0.7220  0.1728
   93CHL1  H16A 9310   3.319   0.632   7.965  2.5566 -1.4545 -1.8157
   93CHL1  H16B 9311   3.202   0.772   7.913  0.8929 -0.1293 -0.0512
   93CHL1   C17 9312   3.154   0.579   7.832  0.4151 -0.0604 -0.2965
   93CHL1   H17 9313   3.071   0.637   7.786  0.6366 -1.2579 -2.3224
   93CHL1   C13 9314   3.235   0.511   7.714 -0.6594 -0.3861 -0.2196
   93CHL1   C18 9315   3.359   0.421   7.770 -0.4222 -0.2529  0.1368
   93CHL1  H18A 9316   3.336   0.315   7.794  0.1310 -0.6399 -0.9345
   93CHL1  H18B 9317   3.442   0.435   7.696 -0.1170 -1.1539  0.2921
   93CHL1  H18C 9318   3.393   0.467   7.865 -0.1873  0.1243 -0.1289
   93CHL1   C12 9319   3.166   0.440   7.592 -0.5082  0.4251 -0.3264
   93CHL1  H12A 9320   3.152   0.336   7.629  1.9966 -0.2282 -1.0654
   93CHL1  H12B 9321   3.071   0.488   7.560 -0.5845 -0.9622 -2.3217
   93CHL1   C11 9322   3.255   0.416   7.467  0.1348 -0.0300  0.5775
   93CHL1  H11A 9323   3.342   0.352   7.494  1.5198  0.8301 -1.5769
   93CHL1  H11B 9324   3.191   0.371   7.388 -0.4541  0.3670  0.8213
   93CHL1    C9 9325   3.308   0.549   7.417 -0.0017 -0.2171  0.6510
   93CHL1    H9 9326   3.222   0.611   7.385  1.3890  0.8011 -1.3512
   93CHL1   C10 9327   3.403   0.546   7.285  0.4237 -0.3822  0.0830
   93CHL1   C19 9328   3.504   0.431   7.307 -0.1265 -1.3668 -0.1309
   93CHL1  H19A 9329   3.563   0.444   7.400 -1.5622 -1.5789  0.8481
   93CHL1  H19B 9330   3.451   0.334   7.321  3.2695 -3.0055  3.0482
   93CHL1  H19C 9331   3.573   0.427   7.221 -0.8364 -0.1323 -0.7754
   93CHL1    C1 9332   3.299   0.525   7.163  0.0146  0.5690  0.8689
   93CHL1   H1A 9333   3.252   0.427   7.185  1.1303 -0.0241  0.7163
   93CHL1   H1B 9334   3.227   0.608   7.157 -0.3824  0.2022  0.5304
   93CHL1    C2 9335   3.380   0.525   7.031  0.5062 -1.5966 -0.5849
   93CHL1   H2A 9336   3.327   0.501   6.936  1.0072  1.2430 -1.7114
   93CHL1   H2B 9337   3.465   0.453   7.029  2.9428  1.0686 -1.7919
   93CHL1   C20 9338   3.091   0.492   7.941  0.4585  0.9047  0.4885
   93CHL1   H20 9339   3.160   0.414   7.979  1.8095  0.8632 -1.8707
   93CHL1   C21 9340   2.975   0.404   7.883  0.1364 -0.9926  0.4086
   93CHL1  H21A 9341   3.013   0.326   7.814 -1.7946  0.2788 -2.2778
   93CHL1  H21B 9342   2.893   0.460   7.833 -0.1775 -1.6246  0.2107
   93CHL1  H21C 9343   2.922   0.347   7.963  0.4271 -1.6028  0.1685
   93CHL1   C22 9344   3.046   0.571   8.068 -0.0633  0.0521  0.7958
   93CHL1  H22A 9345   3.131   0.623   8.118 -0.6793 -0.5612  2.5621
   93CHL1  H22B 9346   2.970   0.647   8.042  0.2491  0.1066  0.0164
   93CHL1   C23 9347   2.990   0.487   8.180 -0.1224 -0.7424 -0.2026
   93CHL1  H23A 9348   2.922   0.411   8.135  0.1000 -1.1950  0.2137
   93CHL1  H23B 9349   3.077   0.432   8.221  0.6046  0.9974  0.6662
   93CHL1   C24 9350   2.900   0.561   8.281  0.5543  0.7218 -0.7554
   93CHL1  H24A 9351   2.867   0.486   8.356  1.2709  0.5445 -0.6014
   93CHL1  H24B 9352   2.960   0.637   8.335  2.0795  1.0807 -2.8280
   93CHL1   C25 9353   2.776   0.618   8.226  1.1892 -0.1095 -0.5775
   93CHL1   H25 9354   2.809   0.693   8.151  0.8401 -0.2232 -0.8487
   93CHL1   C26 9355   2.682   0.506   8.180  0.3017 -0.1922  0.1161
   93CHL1  H26A 9356   2.724   0.469   8.084  0.4469  1.1713 -0.3643
   93CHL1  H26B 9357   2.685   0.421   8.252  2.3132  1.5247  2.2032
   93CHL1  H26C 9358   2.582   0.547   8.157  0.8016  0.3449 -1.1995
   93CHL1   C27 9359   2.705   0.705   8.332 -0.4111 -0.0830 -0.3457
   93CHL1  H27A 9360   2.608   0.740   8.289 -3.0726 -2.8822  2.8087
   93CHL1  H27B 9361   2.668   0.654   8.424  2.1101 -0.3445  0.6019
   93CHL1  H27C 9362   2.767   0.794   8.358 -0.0630  0.0259 -1.4813
   94CHL1    C3 9363   6.440   5.326   6.857 -0.4642  0.5638 -0.4806
   94CHL1    H3 9364   6.392   5.423   6.883 -0.2992  0.1659  1.4478
   94CHL1    O3 9365   6.409   5.289   6.722  0.0290 -0.4223  0.0494
   94CHL1   H3' 9366   6.328   5.238   6.735 -1.0669  0.5668 -2.2581
   94CHL1    C4 9367   6.593   5.324   6.880  0.8198 -0.1945 -0.3042
   94CHL1   H4A 9368   6.614   5.220   6.846  0.2246  0.0561 -1.4972
   94CHL1   H4B 9369   6.644   5.386   6.803  1.2394  0.4163  0.4638
   94CHL1    C5 9370   6.640   5.353   7.017  0.1505  0.1198 -1.3171
   94CHL1    C6 9371   6.753   5.426   7.042 -0.6961 -0.7091 -0.7709
   94CHL1    H6 9372   6.802   5.470   6.954  0.6199 -0.9403 -0.1668
   94CHL1    C7 9373   6.786   5.468   7.191  0.2823 -0.2922  1.0279
   94CHL1   H7A 9374   6.897   5.469   7.187  0.3202 -0.8938 -3.5719
   94CHL1   H7B 9375   6.762   5.575   7.214  0.8176 -0.1523  0.9531
   94CHL1    C8 9376   6.736   5.387   7.316  0.2294 -0.3847 -0.4673
   94CHL1    H8 9377   6.811   5.305   7.316 -1.3706 -1.9378 -1.8587
   94CHL1   C14 9378   6.738   5.459   7.444 -0.4196 -0.1123  0.2161
   94CHL1   H14 9379   6.676   5.549   7.422  1.2879  1.0292 -0.0564
   94CHL1   C15 9380   6.870   5.517   7.498  0.0757  0.1128  0.4401
   94CHL1  H15A 9381   6.952   5.453   7.457 -1.0831  0.5974 -2.9111
   94CHL1  H15B 9382   6.889   5.621   7.466  0.9680 -0.7107 -1.9791
   94CHL1   C16 9383   6.850   5.516   7.653 -0.3521 -0.1570 -0.1756
   94CHL1  H16A 9384   6.910   5.433   7.696  1.4521  1.2968  0.2327
   94CHL1  H16B 9385   6.886   5.608   7.704  1.1453 -0.4131 -0.7162
   94CHL1   C17 9386   6.702   5.489   7.674  0.5651  0.3147  0.4129
   94CHL1   H17 9387   6.662   5.592   7.660  1.6340  0.7314  0.3565
   94CHL1   C13 9388   6.666   5.394   7.562  0.2425 -0.9942  0.3767
   94CHL1   C18 9389   6.722   5.254   7.588  0.2993 -0.1951  0.0302
   94CHL1  H18A 9390   6.805   5.265   7.660  1.2305  1.1623 -1.1727
   94CHL1  H18B 9391   6.647   5.183   7.629  1.2746 -0.5864  1.1765
   94CHL1  H18C 9392   6.766   5.207   7.498  5.0158  0.1519  1.8816
   94CHL1   C12 9393   6.519   5.385   7.526 -1.2538  0.1374 -0.3523
   94CHL1  H12A 9394   6.461   5.328   7.600 -1.9491 -1.2169 -1.8830
   94CHL1  H12B 9395   6.478   5.489   7.524  2.4660  1.7940 -0.6975
   94CHL1   C11 9396   6.498   5.305   7.393  0.0232 -0.4715 -0.1950
   94CHL1  H11A 9397   6.535   5.202   7.412 -1.0757 -1.6690 -3.7740
   94CHL1  H11B 9398   6.389   5.304   7.373 -0.3205 -0.3830  1.5173
   94CHL1    C9 9399   6.585   5.360   7.275  0.1783 -0.3633 -0.0295
   94CHL1    H9 9400   6.541   5.460   7.252 -1.2270 -0.0951  3.3126
   94CHL1   C10 9401   6.559   5.291   7.138  0.1502  0.9867  0.1354
   94CHL1   C19 9402   6.607   5.140   7.146 -0.8634  0.1035  0.2036
   94CHL1  H19A 9403   6.699   5.136   7.207 -1.1385 -0.7106  0.5904
   94CHL1  H19B 9404   6.541   5.080   7.213 -0.1303 -0.2054  0.6560
   94CHL1  H19C 9405   6.611   5.085   7.050  1.2616 -1.5532  1.1492
   94CHL1    C1 9406   6.402   5.293   7.106 -0.3457 -0.5877 -0.1973
   94CHL1   H1A 9407   6.332   5.248   7.180 -0.5455  0.3719  0.2143
   94CHL1   H1B 9408   6.384   5.403   7.106  2.2892 -0.0131  2.3437
   94CHL1    C2 9409   6.374   5.236   6.965 -0.3045  0.0707 -0.2723
   94CHL1   H2A 9410   6.264   5.226   6.956 -0.4047  2.2266 -2.6962
   94CHL1   H2B 9411   6.420   5.137   6.946 -0.6518 -0.4482  1.4545
   94CHL1   C20 9412   6.643   5.445   7.811 -0.1821  0.7509 -0.1721
   94CHL1   H20 9413   6.628   5.335   7.805 -1.1973  0.9405 -1.8866
   94CHL1   C21 9414   6.511   5.505   7.831  0.1450 -0.1148 -0.0163
   94CHL1  H21A 9415   6.453   5.527   7.739 -0.3171 -0.7229  0.1278
   94CHL1  H21B 9416   6.532   5.606   7.872 -1.7970  1.5733 -2.8391
   94CHL1  H21C 9417   6.444   5.450   7.901  1.4129 -0.1162  1.2487
   94CHL1   C22 9418   6.730   5.473   7.936  0.3063  0.1998 -0.0073
   94CHL1  H22A 9419   6.806   5.394   7.922 -0.8443 -1.1827  1.1876
   94CHL1  H22B 9420   6.785   5.569   7.925 -0.2624  0.5933  0.5361
   94CHL1   C23 9421   6.668   5.464   8.078 -0.4355  0.2857 -0.3009
   94CHL1  H23A 9422   6.580   5.532   8.078  0.8731  2.0856 -1.7988
   94CHL1  H23B 9423   6.625   5.362   8.085  0.9345 -0.4013 -1.3154
   94CHL1   C24 9424   6.768   5.493   8.191 -0.5022  0.8838 -0.1419
   94CHL1  H24A 9425   6.847   5.415   8.201 -0.0596  1.4294  0.7494
   94CHL1  H24B 9426   6.821   5.585   8.162  2.1959 -0.5124  0.0384
   94CHL1   C25 9427   6.703   5.497   8.334 -0.0329 -1.0679  0.0070
   94CHL1   H25 9428   6.614   5.563   8.334  0.4759 -0.3620 -0.2658
   94CHL1   C26 9429   6.660   5.359   8.390 -0.4955 -0.4282 -0.8073
   94CHL1  H26A 9430   6.751   5.301   8.413  1.3259  2.8833  1.1202
   94CHL1  H26B 9431   6.608   5.345   8.488  0.3107  0.0659 -0.3014
   94CHL1  H26C 9432   6.600   5.310   8.311 -2.5516  3.4614 -1.9068
   94CHL1   C27 9433   6.795   5.571   8.424 -0.3949 -0.0839  0.6503
   94CHL1  H27A 9434   6.767   5.558   8.530  0.7632  1.7814  1.2217
   94CHL1  H27B 9435   6.901   5.546   8.401 -0.1634  1.1492  0.3259
   94CHL1  H27C 9436   6.786   5.678   8.395 -0.0018 -0.0420  0.6805
   95CHL1    C3 9437   5.708   6.375   6.566  0.1388  0.0585 -0.1960
   95CHL1    H3 9438   5.619   6.442   6.559 -1.6199 -1.8773  2.0983
   95CHL1    O3 9439   5.740   6.318   6.442 -0.3951  0.4157  0.2018
   95CHL1   H3' 9440   5.829   6.285   6.458 -0.8329 -0.9916 -0.1068
   95CHL1    C4 9441   5.823   6.472   6.612 -0.8805 -0.3784  0.2904
   95CHL1   H4A 9442   5.921   6.420   6.609 -0.8933 -0.4444  0.8505
   95CHL1   H4B 9443   5.835   6.541   6.525  0.4937  0.0967  0.8329
   95CHL1    C5 9444   5.806   6.537   6.749  0.8652 -0.0237 -0.2184
   95CHL1    C6 9445   5.792   6.674   6.768  0.4200  1.0472 -0.2755
   95CHL1    H6 9446   5.802   6.739   6.679 -3.2631 -1.7501 -3.0701
   95CHL1    C7 9447   5.780   6.739   6.906 -0.2630  0.9206 -0.1356
   95CHL1   H7A 9448   5.857   6.819   6.912  0.5002  0.1791  0.1737
   95CHL1   H7B 9449   5.678   6.777   6.926 -0.1614  0.2121  2.0160
   95CHL1    C8 9450   5.815   6.639   7.020  0.2359  0.2442 -0.3678
   95CHL1    H8 9451   5.925   6.625   7.017  0.0178 -1.5167 -2.6112
   95CHL1   C14 9452   5.775   6.698   7.151  0.2588 -0.0476  0.4572
   95CHL1   H14 9453   5.664   6.705   7.145  0.1339  2.5353  3.2950
   95CHL1   C15 9454   5.822   6.849   7.174 -0.4960  0.2968  0.4593
   95CHL1  H15A 9455   5.930   6.847   7.146 -0.9449 -0.3937 -1.4250
   95CHL1  H15B 9456   5.778   6.926   7.107 -1.4681 -1.0806 -0.5693
   95CHL1   C16 9457   5.811   6.866   7.326  0.0398 -0.4289  0.9267
   95CHL1  H16A 9458   5.915   6.886   7.360  0.3699  1.5354 -0.9982
   95CHL1  H16B 9459   5.740   6.947   7.352 -1.1471 -1.6308  1.5363
   95CHL1   C17 9460   5.768   6.723   7.383 -0.3868  0.2462 -0.2256
   95CHL1   H17 9461   5.657   6.723   7.375 -0.4115 -3.2053 -1.5362
   95CHL1   C13 9462   5.809   6.614   7.275  0.2413  0.0403  0.4865
   95CHL1   C18 9463   5.965   6.585   7.287  0.4130  0.5622 -0.0737
   95CHL1  H18A 9464   6.012   6.685   7.300 -0.1399  0.6860  1.1616
   95CHL1  H18B 9465   5.983   6.533   7.384  0.8432  1.1453  0.1652
   95CHL1  H18C 9466   6.007   6.519   7.208 -1.6206 -1.9505  0.7910
   95CHL1   C12 9467   5.727   6.481   7.254 -0.6734 -0.5883  0.5944
   95CHL1  H12A 9468   5.759   6.416   7.338 -0.5668  1.3830  2.1514
   95CHL1  H12B 9469   5.618   6.497   7.268 -0.8081  1.2700 -1.8795
   95CHL1   C11 9470   5.758   6.405   7.121 -0.1100  0.1920  0.1471
   95CHL1  H11A 9471   5.859   6.361   7.140 -0.3370 -0.5721 -0.3569
   95CHL1  H11B 9472   5.691   6.318   7.105 -1.0466  1.3521 -2.9806
   95CHL1    C9 9473   5.749   6.500   6.995  0.8275 -0.5550  0.7189
   95CHL1    H9 9474   5.642   6.526   6.981  0.7692 -0.8940  0.5244
   95CHL1   C10 9475   5.790   6.433   6.858 -0.5074 -0.3288  0.4344
   95CHL1   C19 9476   5.924   6.348   6.883  0.6349  0.1878  0.8353
   95CHL1  H19A 9477   5.878   6.258   6.930 -2.1819  0.9432 -0.2311
   95CHL1  H19B 9478   5.974   6.308   6.793 -0.2521 -0.9688  0.8257
   95CHL1  H19C 9479   5.997   6.398   6.950 -0.3003 -0.1359  2.1370
   95CHL1    C1 9480   5.670   6.334   6.818  0.1706  0.2714 -0.8005
   95CHL1   H1A 9481   5.668   6.252   6.894  2.3040  1.4298  0.6042
   95CHL1   H1B 9482   5.567   6.369   6.839 -0.2912 -1.9432  1.1329
   95CHL1    C2 9483   5.685   6.274   6.682 -0.4290 -0.1248  1.2966
   95CHL1   H2A 9484   5.595   6.213   6.657  0.9586 -0.8267 -2.8509
   95CHL1   H2B 9485   5.771   6.203   6.677  0.4140  0.9353 -1.0981
   95CHL1   C20 9486   5.811   6.714   7.528  0.0488  0.1033  0.1799
   95CHL1   H20 9487   5.921   6.699   7.532 -0.1557 -1.4363  0.9821
   95CHL1   C21 9488   5.738   6.598   7.590 -0.0810 -0.5609 -0.3370
   95CHL1  H21A 9489   5.771   6.575   7.694 -1.4789 -2.3205 -0.2201
   95CHL1  H21B 9490   5.756   6.508   7.527  2.6232  0.1404 -0.6813
   95CHL1  H21C 9491   5.629   6.619   7.602 -0.1004 -0.1451 -1.2161
   95CHL1   C22 9492   5.787   6.838   7.619 -0.4033 -0.4539  0.3159
   95CHL1  H22A 9493   5.837   6.927   7.575 -0.4764 -0.9642 -0.8108
   95CHL1  H22B 9494   5.681   6.872   7.624 -0.2171  0.1009  0.6992
   95CHL1   C23 9495   5.836   6.817   7.760 -0.5527  0.2952  0.6940
   95CHL1  H23A 9496   5.773   6.746   7.818  0.1775 -0.4150  0.6236
   95CHL1  H23B 9497   5.936   6.770   7.748 -0.8393  0.3290 -4.1741
   95CHL1   C24 9498   5.827   6.945   7.845  0.3888  0.2568 -0.4294
   95CHL1  H24A 9499   5.874   7.017   7.775 -1.6289 -0.5505 -2.8009
   95CHL1  H24B 9500   5.717   6.964   7.847  0.2401 -0.6266  1.3907
   95CHL1   C25 9501   5.890   6.949   7.984 -0.1099 -0.3084  0.4698
   95CHL1   H25 9502   5.999   6.939   7.967  0.0350  1.9460 -0.1775
   95CHL1   C26 9503   5.849   7.071   8.058  1.2855  0.0133 -0.3167
   95CHL1  H26A 9504   5.742   7.056   8.084  0.7837 -0.6426 -2.5281
   95CHL1  H26B 9505   5.913   7.090   8.147 -1.7718 -0.3909  2.1429
   95CHL1  H26C 9506   5.849   7.161   7.994 -1.6703  0.4098  0.1165
   95CHL1   C27 9507   5.855   6.824   8.075 -0.1553  0.9130  0.3111
   95CHL1  H27A 9508   5.746   6.818   8.095 -0.4228 -2.5330 -1.3656
   95CHL1  H27B 9509   5.882   6.731   8.021 -0.8709  1.1127 -0.4128
   95CHL1  H27C 9510   5.912   6.832   8.170  0.5337  1.2892 -0.1211
   96CHL1    C3 9511   3.926   6.010   6.725 -0.5214  0.1967 -0.0210
   96CHL1    H3 9512   3.906   5.901   6.731 -1.1982  0.3451  0.6619
   96CHL1    O3 9513   3.872   6.072   6.608 -0.3274 -0.4354  0.8140
   96CHL1   H3' 9514   3.906   6.019   6.536  0.0801  2.8449 -1.6777
   96CHL1    C4 9515   3.859   6.079   6.847  0.7373  0.3337 -0.6449
   96CHL1   H4A 9516   3.875   6.188   6.837  1.0047  0.5214  1.5186
   96CHL1   H4B 9517   3.752   6.055   6.826  0.4843  3.0610 -3.0423
   96CHL1    C5 9518   3.904   6.033   6.982  0.3143 -0.5014 -0.4355
   96CHL1    C6 9519   3.822   5.991   7.081 -0.0877 -0.0635 -0.1488
   96CHL1    H6 9520   3.713   5.992   7.067 -0.2872  1.2348  1.2331
   96CHL1    C7 9521   3.874   5.952   7.218 -0.1158  0.5614  0.3271
   96CHL1   H7A 9522   3.804   6.001   7.289 -1.0417  0.9379 -0.7999
   96CHL1   H7B 9523   3.872   5.841   7.231 -1.4519  0.4772 -0.3895
   96CHL1    C8 9524   4.025   5.985   7.243 -0.3335 -0.6803 -0.0666
   96CHL1    H8 9525   4.046   6.091   7.266  0.6426 -0.2403 -2.6563
   96CHL1   C14 9526   4.071   5.896   7.353  0.1225  0.4714 -0.0646
   96CHL1   H14 9527   4.062   5.791   7.316 -0.1200  0.7142 -0.7033
   96CHL1   C15 9528   3.992   5.900   7.487 -0.1201  0.9690 -0.6496
   96CHL1  H15A 9529   3.974   6.006   7.516 -0.0516  0.7746  0.1320
   96CHL1  H15B 9530   3.888   5.861   7.483 -0.6400  2.2902 -0.8341
   96CHL1   C16 9531   4.091   5.824   7.579  0.8557  0.3117  0.1085
   96CHL1  H16A 9532   4.089   5.878   7.676  2.6927 -2.7635  2.0412
   96CHL1  H16B 9533   4.054   5.723   7.609 -0.4244  0.5225 -0.7079
   96CHL1   C17 9534   4.224   5.808   7.506  0.4979  0.5452  0.6243
   96CHL1   H17 9535   4.217   5.709   7.455  4.5781  0.9034 -0.9805
   96CHL1   C13 9536   4.219   5.913   7.388  0.7568  0.0695  0.1218
   96CHL1   C18 9537   4.261   6.049   7.436 -0.4242 -0.4740 -0.1451
   96CHL1  H18A 9538   4.221   6.127   7.367  2.4640 -0.0498 -1.4929
   96CHL1  H18B 9539   4.200   6.070   7.527  0.1740  0.5109  0.0435
   96CHL1  H18C 9540   4.366   6.075   7.463 -0.7991  0.2850  0.6522
   96CHL1   C12 9541   4.301   5.881   7.264  0.2407  0.4320 -0.0917
   96CHL1  H12A 9542   4.410   5.899   7.274  1.1366 -2.1418 -3.3083
   96CHL1  H12B 9543   4.298   5.774   7.234  0.1946 -0.0434  1.4887
   96CHL1   C11 9544   4.261   5.974   7.147  0.0799  0.2743 -0.7983
   96CHL1  H11A 9545   4.290   6.080   7.167  1.5396 -0.2803  0.2378
   96CHL1  H11B 9546   4.318   5.937   7.059  2.0602  0.3034  0.4081
   96CHL1    C9 9547   4.110   5.964   7.122  1.2299 -0.2169 -0.9279
   96CHL1    H9 9548   4.093   5.856   7.102 -2.6368  0.0534  0.0337
   96CHL1   C10 9549   4.056   6.041   6.998 -0.6894 -0.0793 -0.0936
   96CHL1   C19 9550   4.096   6.186   7.019  0.1600  1.0101  0.1983
   96CHL1  H19A 9551   4.055   6.259   6.947  0.5390  0.8514 -0.1829
   96CHL1  H19B 9552   4.067   6.235   7.115  0.7499 -1.5189  1.7557
   96CHL1  H19C 9553   4.205   6.204   7.004  0.0048  0.9800 -1.0855
   96CHL1    C1 9554   4.128   5.981   6.876  1.1512  0.9408  0.4782
   96CHL1   H1A 9555   4.237   6.001   6.885  1.7240 -1.1908 -0.9096
   96CHL1   H1B 9556   4.105   5.873   6.873  0.2052  1.1162  1.1731
   96CHL1    C2 9557   4.072   6.029   6.738 -0.7529 -0.7457 -0.0235
   96CHL1   H2A 9558   4.114   5.972   6.653 -2.5323 -1.7226 -0.3027
   96CHL1   H2B 9559   4.096   6.138   6.739  0.2546 -0.9651  0.4328
   96CHL1   C20 9560   4.348   5.785   7.598  0.7201 -0.3046 -1.6096
   96CHL1   H20 9561   4.369   5.887   7.638 -1.5845 -0.6812  0.8906
   96CHL1   C21 9562   4.473   5.721   7.520  0.1528 -0.5788 -0.5360
   96CHL1  H21A 9563   4.457   5.611   7.512  2.4241 -0.9142 -1.0170
   96CHL1  H21B 9564   4.560   5.749   7.582  0.7768  2.1721 -2.4331
   96CHL1  H21C 9565   4.472   5.768   7.419 -0.0338  1.4123  0.3422
   96CHL1   C22 9566   4.316   5.682   7.715 -0.0272 -0.5445 -0.1901
   96CHL1  H22A 9567   4.235   5.728   7.775 -0.4279 -0.4441 -0.7984
   96CHL1  H22B 9568   4.269   5.594   7.665 -1.2647  0.2898 -0.5383
   96CHL1   C23 9569   4.435   5.647   7.804  0.0920  0.0140  0.2199
   96CHL1  H23A 9570   4.504   5.578   7.749  0.7005  1.4744 -0.9048
   96CHL1  H23B 9571   4.496   5.740   7.807  1.0163 -0.5934  1.0362
   96CHL1   C24 9572   4.391   5.592   7.948  0.5735 -0.5036 -0.4193
   96CHL1  H24A 9573   4.367   5.672   8.021 -2.1561 -1.7580  0.1809
   96CHL1  H24B 9574   4.293   5.543   7.931 -0.4727  0.3294  2.5168
   96CHL1   C25 9575   4.497   5.496   8.011 -0.6051 -0.7114 -0.3353
   96CHL1   H25 9576   4.518   5.420   7.933 -0.2794  2.0195 -3.0935
   96CHL1   C26 9577   4.628   5.556   8.047  0.1476  0.3164  0.2780
   96CHL1  H26A 9578   4.625   5.657   8.094  0.1925 -0.1139  1.2359
   96CHL1  H26B 9579   4.674   5.494   8.127 -0.8963 -0.7881  0.0392
   96CHL1  H26C 9580   4.693   5.544   7.957  0.4345 -3.7479  0.8458
   96CHL1   C27 9581   4.426   5.440   8.136 -0.2025 -0.6706 -0.9387
   96CHL1  H27A 9582   4.383   5.518   8.202  1.1198  0.3113 -1.1969
   96CHL1  H27B 9583   4.330   5.393   8.104 -0.8487  1.4515 -2.3720
   96CHL1  H27C 9584   4.499   5.378   8.192  0.2194  0.6602  0.0328
   97OSM      N 9585   4.287   4.016  11.071  0.0521  0.6052 -0.0368
   97OSM    C15 9586   4.333   4.124  11.165  0.1693  0.1448  0.0442
   97OSM   H15A 9587   4.351   4.217  11.113  0.4525  1.9781  3.1456
   97OSM   H15B 9588   4.420   4.106  11.227 -2.1064  1.2848  3.9345
   97OSM   H15C 9589   4.254   4.136  11.238  0.1321  0.7760 -0.0984
   97OSM    C14 9590   4.286   3.887  11.149  0.3813  0.0398 -0.5217
   97OSM   H14A 9591   4.254   3.805  11.085 -2.5741  1.2855 -0.7903
   97OSM   H14B 9592   4.200   3.894  11.213  1.4704 -0.5000  1.0596
   97OSM   H14C 9593   4.376   3.860  11.201  1.6219  1.9698 -1.5311
   97OSM    C13 9594   4.139   4.036  11.045 -0.2394 -1.0143  0.0946
   97OSM   H13A 9595   4.097   3.979  10.964  1.4179  0.8183 -2.2346
   97OSM   H13B 9596   4.120   4.142  11.031  1.0681 -0.9710 -1.8146
   97OSM   H13C 9597   4.092   4.018  11.140  0.6370 -0.4769  0.6514
   97OSM    C12 9598   4.361   4.000  10.937  1.0308 -0.5407  0.5206
   97OSM   H12A 9599   4.354   4.090  10.878  2.5592 -1.8787 -1.8645
   97OSM   H12B 9600   4.306   3.927  10.881  0.5095 -0.2146  0.5993
   97OSM    C11 9601   4.502   3.940  10.948 -0.3715  0.0303 -0.5677
   97OSM   H11A 9602   4.543   3.932  10.845  1.0700  1.7086 -0.1653
   97OSM   H11B 9603   4.495   3.833  10.975 -1.6828  0.5998  1.5601
   97OSM      P 9604   4.673   4.128  10.993 -0.0880 -0.0368  0.5359
   97OSM    O13 9605   4.682   4.224  11.102 -0.2115 -0.2419  0.5482
   97OSM    O14 9606   4.798   4.074  10.930  0.8069 -0.4656 -0.6834
   97OSM    O11 9607   4.590   4.190  10.875 -0.3702  0.1054  0.1426
   97OSM    O12 9608   4.589   4.002  11.037  0.0386  0.3890  0.1710
   97OSM    C1S 9609   4.627   4.303  10.791  0.1484 -0.1330 -0.3631
   97OSM    H1S 9610   4.683   4.377  10.850 -1.8855  1.4195 -0.2595
   97OSM    H1T 9611   4.528   4.348  10.767 -0.4826  0.5278  3.0227
   97OSM     NF 9612   4.755   4.385  10.614 -0.7162  0.6457  0.6175
   97OSM    HNF 9613   4.712   4.448  10.550  1.2887  2.5199  1.0046
   97OSM    C2S 9614   4.700   4.264  10.659  0.2223  0.4060  0.3947
   97OSM    H2S 9615   4.781   4.191  10.680 -0.9528 -0.8874  0.6698
   97OSM    C3S 9616   4.597   4.195  10.569 -0.0666  0.4488 -0.2222
   97OSM    H3S 9617   4.512   4.264  10.551  0.9315  1.6062 -0.6334
   97OSM     O3 9618   4.527   4.084  10.633 -0.8494 -0.3074  0.6549
   97OSM    HO3 9619   4.537   4.112  10.724 -0.0095  1.9056 -0.0383
   97OSM    C4S 9620   4.657   4.153  10.438 -0.4055  0.1178  0.3324
   97OSM    H4S 9621   4.644   4.225  10.356  1.3186  2.1382  1.7332
   97OSM    C5S 9622   4.716   4.030  10.412 -0.4243 -1.2615 -0.5720
   97OSM    H5S 9623   4.745   3.968  10.499  0.5714 -0.2397 -0.1441
   97OSM    C6S 9624   4.776   3.982  10.285  0.3992 -0.5733 -0.1925
   97OSM    H6S 9625   4.882   3.957  10.305  0.3688 -0.6568 -0.1361
   97OSM    H6T 9626   4.768   4.057  10.204  1.0965  1.1663  1.2845
   97OSM    C7S 9627   4.720   3.843  10.237  0.4360 -0.2282 -0.1026
   97OSM    H7S 9628   4.610   3.852  10.230  0.6082  0.8016 -1.9566
   97OSM    H7T 9629   4.745   3.771  10.317 -1.8083  1.4854  2.3193
   97OSM    C8S 9630   4.776   3.802  10.100  0.0490 -0.7756 -0.4301
   97OSM    H8S 9631   4.769   3.691  10.089  2.0862 -1.0245  0.3534
   97OSM    H8T 9632   4.884   3.827  10.102  0.6095 -2.9611  1.2067
   97OSM    C9S 9633   4.709   3.874   9.987  0.5801 -0.3742  0.8033
   97OSM    H9S 9634   4.727   3.983   9.998  0.7579 -0.2165 -0.7499
   97OSM    H9T 9635   4.599   3.857   9.987  0.8225 -2.4025 -1.0295
   97OSM   C10S 9636   4.760   3.849   9.845  0.5161 -0.0665  0.1644
   97OSM   H10S 9637   4.744   3.747   9.804 -0.4324  0.8815 -1.9673
   97OSM   H10T 9638   4.871   3.849   9.852  0.6237 -0.8271 -1.2509
   97OSM   C11S 9639   4.709   3.957   9.738 -0.5785 -0.5903 -0.2182
   97OSM   H11S 9640   4.743   4.060   9.759 -0.8101 -0.1634 -1.8278
   97OSM   H11T 9641   4.599   3.956   9.747 -0.6402  0.7611 -0.7438
   97OSM   C12S 9642   4.751   3.931   9.592  0.2173 -0.5682 -1.0069
   97OSM   H12S 9643   4.684   3.856   9.544 -1.0064 -0.7717  0.9188
   97OSM   H12T 9644   4.858   3.900   9.584  0.1437 -1.2700  0.4231
   97OSM   C13S 9645   4.720   4.058   9.500 -0.8236 -1.1635  0.3590
   97OSM   H13S 9646   4.714   4.144   9.570 -1.0363 -1.5173  0.7799
   97OSM   H13T 9647   4.617   4.046   9.460 -0.9654 -0.8358  0.6165
   97OSM   C14S 9648   4.825   4.099   9.392  0.5192 -0.0311 -0.5082
   97OSM   H14S 9649   4.920   4.083   9.446  0.7332 -1.8926 -1.3541
   97OSM   H14T 9650   4.827   4.210   9.389  0.0645 -0.0103 -0.0883
   97OSM   C15S 9651   4.794   4.028   9.257  0.3568  0.1006  0.3606
   97OSM   H15S 9652   4.694   4.051   9.214  0.7329 -0.1364 -0.6729
   97OSM   H15T 9653   4.787   3.919   9.277 -2.6451  0.2689  0.7185
   97OSM   C16S 9654   4.910   4.040   9.149 -0.0341 -0.2904 -0.3105
   97OSM   H16S 9655   4.937   4.147   9.155  1.4473 -0.6474 -0.2505
   97OSM   H16T 9656   4.874   4.020   9.045  1.3853 -1.2431 -0.6523
   97OSM   C17S 9657   5.038   3.953   9.167  0.6938  0.7344  0.0537
   97OSM   H17S 9658   5.012   3.872   9.239 -2.1113  1.8560  0.4337
   97OSM   H17T 9659   5.118   4.020   9.204 -0.8177  1.6220  1.9253
   97OSM   C18S 9660   5.070   3.878   9.032 -0.1668  0.1636  0.8388
   97OSM   H18S 9661   5.171   3.837   9.054 -0.7150 -0.9609  1.3249
   97OSM   H18T 9662   5.076   3.956   8.953  1.0672  1.0913  1.8004
   97OSM   H18U 9663   4.989   3.804   9.017 -0.5494  0.3564  1.8563
   97OSM    C1F 9664   4.864   4.444  10.671 -0.2486 -0.1095 -0.2484
   97OSM     OF 9665   4.925   4.385  10.758 -0.2737 -0.2592 -0.0743
   97OSM    C2F 9666   4.905   4.575  10.619 -0.1572 -0.3297  0.6529
   97OSM    H2F 9667   4.966   4.627  10.695  1.5359 -1.0519 -0.1667
   97OSM    H2G 9668   4.815   4.640  10.608 -0.1533 -0.4340 -0.0857
   97OSM    C3F 9669   4.979   4.562  10.484  0.0421  0.6705 -0.8000
   97OSM    H3F 9670   4.922   4.495  10.416 -0.7501 -0.3442  0.7909
   97OSM    H3G 9671   5.072   4.512  10.516 -0.8995 -0.2620  0.6251
   97OSM    C4F 9672   5.012   4.689  10.409 -0.4625 -0.1735  0.6632
   97OSM    H4F 9673   5.070   4.752  10.480  1.1716 -1.2163  0.2970
   97OSM    H4G 9674   4.918   4.738  10.376 -0.8322 -0.7768  0.8167
   97OSM    C5F 9675   5.090   4.653  10.286 -0.3578  0.2128  0.5070
   97OSM    H5F 9676   5.037   4.594  10.208  0.2421 -1.2162  1.1396
   97OSM    H5G 9677   5.170   4.589  10.329 -0.7217  1.1930  2.7836
   97OSM    C6F 9678   5.158   4.766  10.209 -0.4592 -0.1208  0.3354
   97OSM    H6F 9679   5.081   4.846  10.200  0.4327  0.6228 -1.1434
   97OSM    H6G 9680   5.183   4.728  10.108 -2.6529  1.8741 -1.0718
   97OSM    C7F 9681   5.286   4.816  10.276 -0.0034  0.7105  0.0630
   97OSM    H7F 9682   5.353   4.730  10.301 -0.5521  0.9402  2.5982
   97OSM    H7G 9683   5.257   4.863  10.372  0.2063  0.7324  0.1179
   97OSM    C8F 9684   5.377   4.917  10.196 -0.1698  0.4901 -0.0418
   97OSM    H8F 9685   5.317   5.010  10.188 -2.7347 -1.0074  0.5714
   97OSM    H8G 9686   5.379   4.874  10.094 -1.4982 -0.0515  0.1448
   97OSM    C9F 9687   5.520   4.935  10.244  0.1012 -0.5049  0.3625
   97OSM    H9F 9688   5.528   4.944  10.353  1.7980  1.5886  0.1280
   97OSM   C10F 9689   5.639   4.946  10.176 -0.4955 -0.0861  0.5758
   97OSM   H10F 9690   5.732   4.964  10.231 -0.1503  0.7075 -0.2362
   97OSM   C11F 9691   5.660   4.943  10.024 -0.3974 -0.1895 -1.0291
   97OSM   H11F 9692   5.609   4.853   9.983  0.2281 -2.8953  3.4381
   97OSM   H11G 9693   5.766   4.925   9.997 -0.1721 -0.6145  0.0907
   97OSM   C12F 9694   5.607   5.072   9.958  0.3396  0.1236  0.0408
   97OSM   H12F 9695   5.657   5.159  10.006 -1.3540  0.9816  0.3127
   97OSM   H12G 9696   5.497   5.073   9.975  0.6771 -1.7216  3.2783
   97OSM   C13F 9697   5.643   5.063   9.812  0.0540  0.0282  0.0364
   97OSM   H13F 9698   5.752   5.040   9.808 -0.1004 -0.6510 -0.4810
   97OSM   H13G 9699   5.625   5.155   9.753 -0.8861  0.8479  1.5489
   97OSM   C14F 9700   5.569   4.955   9.733  0.2812  0.9433  0.6089
   97OSM   H14F 9701   5.473   5.001   9.702 -0.7513 -0.8088  1.0658
   97OSM   H14G 9702   5.548   4.865   9.794 -0.8959 -0.2487 -1.4544
   97OSM   C15F 9703   5.658   4.905   9.613  0.3679 -0.0970 -0.1840
   97OSM   H15F 9704   5.584   4.846   9.554  0.5676 -2.6201  1.9185
   97OSM   H15G 9705   5.730   4.834   9.657  1.8017  1.0331 -0.6346
   97OSM   C16F 9706   5.725   5.020   9.536  0.5742  0.2410  0.4903
   97OSM   H16F 9707   5.827   5.045   9.573  0.3423  2.5432 -0.2270
   97OSM   H16G 9708   5.667   5.115   9.537  0.9942  0.5080  2.0407
   97OSM   C17F 9709   5.736   4.993   9.384 -0.1989  0.3532  0.6376
   97OSM   H17F 9710   5.635   4.953   9.362 -0.6551  0.9529  1.5470
   97OSM   H17G 9711   5.804   4.906   9.372  0.9884  1.4445 -1.0322
   97OSM   C18F 9712   5.779   5.109   9.296  0.3833 -0.2529  0.5598
   97OSM   H18F 9713   5.741   5.104   9.192  1.2453  1.4618  0.1302
   97OSM   H18G 9714   5.888   5.104   9.280  0.3248  0.2629 -0.0435
   97OSM   H18H 9715   5.756   5.212   9.332  1.7369  1.2619 -2.5624
   98OSM      N 9716   4.583   4.800  11.029  0.0228  0.0573  0.2707
   98OSM    C15 9717   4.711   4.867  11.002 -0.0765 -0.7601  0.5701
   98OSM   H15A 9718   4.800   4.811  11.026 -0.1267 -0.9646  0.2804
   98OSM   H15B 9719   4.727   4.954  11.064 -1.3372 -0.4964  0.5593
   98OSM   H15C 9720   4.719   4.897  10.898  0.9897 -1.5988  0.3885
   98OSM    C14 9721   4.585   4.753  11.178 -0.9014 -0.8026  0.3984
   98OSM   H14A 9722   4.630   4.836  11.231 -0.8027 -0.2067 -0.5829
   98OSM   H14B 9723   4.626   4.653  11.184 -2.1538 -1.3591  0.0071
   98OSM   H14C 9724   4.483   4.742  11.212 -0.4754 -0.3167  1.8760
   98OSM    C13 9725   4.464   4.888  11.008  0.2290  0.5344 -0.2167
   98OSM   H13A 9726   4.370   4.837  11.025 -0.0489  1.7887  2.5663
   98OSM   H13B 9727   4.470   4.926  10.907  0.3674 -1.3805 -0.9704
   98OSM   H13C 9728   4.456   4.975  11.072  0.5516 -0.4727  1.2321
   98OSM    C12 9729   4.565   4.674  10.938 -0.0115  0.4838 -0.4502
   98OSM   H12A 9730   4.483   4.618  10.981  0.1247  0.5732 -0.0654
   98OSM   H12B 9731   4.656   4.618  10.949  0.2891  1.2225  1.0578
   98OSM    C11 9732   4.540   4.688  10.784  0.2690  1.0830 -0.0152
   98OSM   H11A 9733   4.581   4.604  10.725 -1.7896 -0.9561  1.2842
   98OSM   H11B 9734   4.602   4.773  10.748 -0.6328  1.8578  0.2052
   98OSM      P 9735   4.295   4.603  10.756 -0.0531 -0.2898  0.1978
   98OSM    O13 9736   4.326   4.514  10.871 -0.2246  0.3981 -0.6788
   98OSM    O14 9737   4.163   4.673  10.765 -0.5668  0.2458 -0.1247
   98OSM    O11 9738   4.293   4.521  10.619 -0.5887 -0.0026 -0.0366
   98OSM    O12 9739   4.406   4.714  10.750  0.3192 -0.2637  0.1596
   98OSM    C1S 9740   4.358   4.576  10.508  0.2072 -0.4342 -0.1500
   98OSM    H1S 9741   4.461   4.614  10.524 -0.0764  0.4532 -0.3524
   98OSM    H1T 9742   4.297   4.661  10.471  1.8361  1.0588  0.4219
   98OSM     NF 9743   4.445   4.524  10.282  0.0647 -0.1179 -0.0916
   98OSM    HNF 9744   4.392   4.564  10.208  0.2162  0.6380  0.1972
   98OSM    C2S 9745   4.369   4.468  10.395 -0.8028 -0.5241  0.4048
   98OSM    H2S 9746   4.426   4.383  10.439  1.6775  1.6289  1.6257
   98OSM    C3S 9747   4.229   4.412  10.359 -0.6686  0.3679  0.0958
   98OSM    H3S 9748   4.164   4.495  10.323 -1.1837 -0.5956 -1.2604
   98OSM     O3 9749   4.154   4.363  10.466  0.1673  0.6628 -0.4854
   98OSM    HO3 9750   4.182   4.414  10.543  1.0659  0.4502 -0.6602
   98OSM    C4S 9751   4.243   4.312  10.244  0.2671 -0.1400 -0.0165
   98OSM    H4S 9752   4.237   4.356  10.143 -0.4130 -2.3005 -0.9837
   98OSM    C5S 9753   4.268   4.179  10.245 -0.3475  0.1606 -0.0310
   98OSM    H5S 9754   4.271   4.131  10.344 -0.2890  0.1086 -0.0576
   98OSM    C6S 9755   4.283   4.089  10.123 -0.8446 -0.5502  0.8121
   98OSM    H6S 9756   4.282   3.985  10.163 -1.6533 -0.2701  1.5591
   98OSM    H6T 9757   4.382   4.104  10.074 -0.4883 -2.3084  0.9058
   98OSM    C7S 9758   4.178   4.114  10.019 -0.0937 -0.1973  0.3462
   98OSM    H7S 9759   4.171   4.222   9.994 -0.0102 -0.4889 -1.0188
   98OSM    H7T 9760   4.080   4.101  10.070 -0.4363 -0.9371 -0.4721
   98OSM    C8S 9761   4.171   4.012   9.908  0.3792  0.2356  0.2025
   98OSM    H8S 9762   4.074   4.026   9.856 -0.2666  0.6148  1.4752
   98OSM    H8T 9763   4.174   3.909   9.951 -1.8298  0.2817  0.5905
   98OSM    C9S 9764   4.280   4.057   9.804  1.1356 -0.4609  0.0797
   98OSM    H9S 9765   4.379   4.022   9.839  0.8563 -1.2429  0.1156
   98OSM    H9T 9766   4.284   4.168   9.799  0.8312 -0.4338  0.3697
   98OSM   C10S 9767   4.247   4.002   9.667  0.2125  1.1864  0.1906
   98OSM   H10S 9768   4.137   4.001   9.655 -0.2169 -0.8356  3.1532
   98OSM   H10T 9769   4.280   3.896   9.663  0.7883  1.3600  0.1115
   98OSM   C11S 9770   4.320   4.072   9.554  0.4768  0.1760  0.7693
   98OSM   H11S 9771   4.430   4.072   9.573  1.0368 -3.4879 -1.4389
   98OSM   H11T 9772   4.290   4.177   9.537  0.1361  0.0963  0.8652
   98OSM   C12S 9773   4.307   4.006   9.410 -0.1074 -0.3717 -0.5855
   98OSM   H12S 9774   4.199   3.997   9.386 -0.5267 -0.5377  1.1844
   98OSM   H12T 9775   4.340   3.900   9.416 -1.0366 -0.6517 -0.2491
   98OSM   C13S 9776   4.371   4.090   9.294  0.4284 -0.0952 -0.6381
   98OSM   H13S 9777   4.480   4.092   9.314  0.2696 -2.7460  1.0458
   98OSM   H13T 9778   4.324   4.191   9.296  0.5424 -0.0102 -1.6849
   98OSM   C14S 9779   4.345   4.042   9.155  0.6175  0.6283  0.8928
   98OSM   H14S 9780   4.239   4.012   9.149  0.2814  1.7626  0.9167
   98OSM   H14T 9781   4.405   3.950   9.138  0.6755  0.8105  0.0788
   98OSM   C15S 9782   4.365   4.137   9.040 -0.1754  0.1858 -0.3486
   98OSM   H15S 9783   4.471   4.170   9.032 -0.3477  0.5449 -1.2169
   98OSM   H15T 9784   4.314   4.234   9.057 -0.6749 -0.0535 -0.4664
   98OSM   C16S 9785   4.332   4.088   8.894  0.6035  0.7546 -0.2705
   98OSM   H16S 9786   4.222   4.081   8.886  0.5824  0.2160  0.3396
   98OSM   H16T 9787   4.357   3.980   8.887  2.0456  1.0347  0.0873
   98OSM   C17S 9788   4.408   4.158   8.781  0.0666 -0.2718  0.5903
   98OSM   H17S 9789   4.516   4.135   8.793  0.1415 -0.4146 -0.2726
   98OSM   H17T 9790   4.383   4.266   8.792 -1.0607 -0.6674  2.2661
   98OSM   C18S 9791   4.366   4.118   8.636  0.0189  0.2463  0.0207
   98OSM   H18S 9792   4.394   4.011   8.622 -0.1710 -0.4854  4.1388
   98OSM   H18T 9793   4.419   4.193   8.573  2.4556 -0.6504  0.9122
   98OSM   H18U 9794   4.257   4.126   8.617 -0.2201 -0.5961  0.9466
   98OSM    C1F 9795   4.569   4.557  10.300  0.0817 -0.5364  0.8320
   98OSM     OF 9796   4.642   4.509  10.385 -0.7258  0.4823 -0.0549
   98OSM    C2F 9797   4.620   4.664  10.211 -0.3812 -0.0220  0.0939
   98OSM    H2F 9798   4.634   4.751  10.279 -1.0630 -1.1188  1.6995
   98OSM    H2G 9799   4.546   4.691  10.132 -2.0973  0.0667  1.6631
   98OSM    C3F 9800   4.762   4.627  10.152  0.1725  0.0054 -0.1570
   98OSM    H3F 9801   4.829   4.581  10.228 -2.6468 -2.3152  1.1033
   98OSM    H3G 9802   4.815   4.718  10.114  1.5384 -0.3479  0.8391
   98OSM    C4F 9803   4.756   4.512  10.048 -0.1217 -0.1162  0.7656
   98OSM    H4F 9804   4.700   4.430  10.098  1.3389 -1.1543  0.7379
   98OSM    H4G 9805   4.861   4.479  10.032 -1.1310 -1.9947 -3.4462
   98OSM    C5F 9806   4.694   4.544   9.915  0.4224 -0.0337  0.4405
   98OSM    H5F 9807   4.758   4.617   9.862  0.7272  1.3126  2.5730
   98OSM    H5G 9808   4.591   4.580   9.936  0.4052 -0.1776  0.6043
   98OSM    C6F 9809   4.682   4.431   9.806 -0.4126 -0.2558  0.5642
   98OSM    H6F 9810   4.636   4.477   9.716 -0.5181  1.9641  1.6848
   98OSM    H6G 9811   4.615   4.350   9.841  0.0330 -0.0048  2.0675
   98OSM    C7F 9812   4.814   4.359   9.774 -0.0285  0.1597  0.6878
   98OSM    H7F 9813   4.803   4.281   9.696  0.0614  0.2646  0.5708
   98OSM    H7G 9814   4.841   4.307   9.868 -0.0600 -1.3261 -0.0948
   98OSM    C8F 9815   4.934   4.453   9.720  1.3823  0.7341  0.9595
   98OSM    H8F 9816   4.957   4.530   9.797 -0.2001  1.5807  0.6243
   98OSM    H8G 9817   4.886   4.518   9.644 -0.3824 -0.0715  1.3281
   98OSM    C9F 9818   5.062   4.385   9.670  0.0216 -0.0257  0.8944
   98OSM    H9F 9819   5.121   4.355   9.758 -1.0180 -1.1746  1.2214
   98OSM   C10F 9820   5.095   4.372   9.542 -0.5854 -0.2202  0.4850
   98OSM   H10F 9821   5.191   4.325   9.515 -0.9684  0.1301 -1.7040
   98OSM   C11F 9822   5.019   4.412   9.419 -0.5558  0.5617  0.9054
   98OSM   H11F 9823   4.913   4.440   9.440 -1.1061  1.0018 -2.1005
   98OSM   H11G 9824   5.012   4.334   9.341  1.1560 -0.1848  1.4462
   98OSM   C12F 9825   5.078   4.534   9.346 -0.6829  0.5981  0.5394
   98OSM   H12F 9826   5.084   4.616   9.421  1.1643 -0.4036  1.5514
   98OSM   H12G 9827   5.004   4.568   9.271  0.8138  1.9365 -0.4039
   98OSM   C13F 9828   5.204   4.516   9.270 -0.5283 -0.4761 -0.1460
   98OSM   H13F 9829   5.271   4.441   9.318 -2.4823 -1.6223  0.9558
   98OSM   H13G 9830   5.262   4.610   9.269  2.4826 -2.2007 -0.5158
   98OSM   C14F 9831   5.173   4.461   9.126  0.3149  0.7488  0.2349
   98OSM   H14F 9832   5.088   4.518   9.081 -0.6241  0.6993  1.8875
   98OSM   H14G 9833   5.141   4.355   9.132 -1.2265  0.9766 -2.1562
   98OSM   C15F 9834   5.287   4.462   9.029  0.2162  0.4534 -0.1142
   98OSM   H15F 9835   5.373   4.402   9.064 -0.0772 -0.0981 -0.3324
   98OSM   H15G 9836   5.324   4.567   9.037  0.2348  0.4969 -0.7087
   98OSM   C16F 9837   5.251   4.427   8.882  0.5372  0.2500  0.0054
   98OSM   H16F 9838   5.344   4.435   8.822 -0.2628  1.4618 -1.1368
   98OSM   H16G 9839   5.173   4.498   8.845 -1.8426 -1.7893  0.8014
   98OSM   C17F 9840   5.211   4.275   8.851 -0.5332  0.0725 -0.5032
   98OSM   H17F 9841   5.110   4.265   8.895  0.1994  0.3376  1.3464
   98OSM   H17G 9842   5.278   4.203   8.903 -1.4561  0.4208  1.2597
   98OSM   C18F 9843   5.200   4.258   8.695 -0.2449 -0.1618 -0.2705
   98OSM   H18F 9844   5.133   4.331   8.645 -0.6434 -0.8100 -0.7023
   98OSM   H18G 9845   5.157   4.156   8.679 -0.3292 -0.4203  1.4177
   98OSM   H18H 9846   5.292   4.274   8.635 -1.7469  0.3592 -2.5525
   99OSM      N 9847   6.565   3.850  10.767  0.1587  0.0614  0.4277
   99OSM    C15 9848   6.506   3.987  10.792 -1.0212  1.0074  0.0289
   99OSM   H15A 9849   6.421   3.984  10.858  0.3136 -0.7373  1.8290
   99OSM   H15B 9850   6.478   4.020  10.694  1.0371 -2.3973 -1.9200
   99OSM   H15C 9851   6.581   4.050  10.838  0.4309  1.2615 -2.5112
   99OSM    C14 9852   6.566   3.787  10.905  0.4945  0.4047  0.0683
   99OSM   H14A 9853   6.611   3.690  10.915  0.4301  0.5339  2.1052
   99OSM   H14B 9854   6.462   3.782  10.933  0.6622 -3.4047  0.4950
   99OSM   H14C 9855   6.620   3.848  10.977 -0.4485  2.4017 -0.8418
   99OSM    C13 9856   6.477   3.773  10.678 -0.5514 -0.3883 -0.5422
   99OSM   H13A 9857   6.464   3.832  10.588 -2.0925  0.9646  0.5262
   99OSM   H13B 9858   6.382   3.743  10.719 -0.0125 -1.7640 -0.2453
   99OSM   H13C 9859   6.521   3.680  10.644  0.3101  0.2357 -1.1769
   99OSM    C12 9860   6.703   3.862  10.706 -0.1366 -0.3430 -0.2292
   99OSM   H12A 9861   6.703   3.899  10.605 -2.7906 -2.1481 -1.0084
   99OSM   H12B 9862   6.732   3.760  10.683 -0.3484 -0.1056 -1.6039
   99OSM    C11 9863   6.813   3.925  10.792  0.6978  0.6934  0.3613
   99OSM   H11A 9864   6.912   3.897  10.750  0.9331  0.4514  1.0537
   99OSM   H11B 9865   6.794   3.884  10.894  0.8799  2.3130  1.0825
   99OSM      P 9866   6.876   4.163  10.703  0.4770 -0.3154 -0.6377
   99OSM    O13 9867   6.791   4.280  10.672  0.7079 -0.4543  0.5865
   99OSM    O14 9868   6.998   4.202  10.783  0.1517  0.2835  0.4965
   99OSM    O11 9869   6.906   4.071  10.580 -0.3592 -0.0626 -0.0460
   99OSM    O12 9870   6.795   4.066  10.796  0.3166 -0.5537  0.2157
   99OSM    C1S 9871   6.998   4.113  10.476 -0.0668 -0.1356  0.0784
   99OSM    H1S 9872   7.099   4.094  10.519  0.4910 -0.9313 -1.5097
   99OSM    H1T 9873   6.986   4.220  10.448 -0.5113 -0.2913 -0.3242
   99OSM     NF 9874   7.094   4.081  10.264  0.0149 -0.0647  0.2193
   99OSM    HNF 9875   7.072   4.154  10.199  0.4134 -0.3035 -0.1927
   99OSM    C2S 9876   6.982   4.032  10.349  0.2713  0.1028  1.0066
   99OSM    H2S 9877   7.000   3.925  10.369  3.7024  0.4098  0.1850
   99OSM    C3S 9878   6.837   4.052  10.293  0.2566  0.2932 -0.6733
   99OSM    H3S 9879   6.813   4.161  10.295 -0.0247  0.2247  0.8528
   99OSM     O3 9880   6.734   3.980  10.371 -0.7382  0.2221  0.0301
   99OSM    HO3 9881   6.774   3.993  10.458 -0.4036  1.0275 -0.2410
   99OSM    C4S 9882   6.807   4.004  10.157 -0.4583 -0.5800 -0.4834
   99OSM    H4S 9883   6.834   3.898  10.145  3.3769  0.1908 -0.1395
   99OSM    C5S 9884   6.752   4.074  10.057  0.7637  0.0511 -0.2388
   99OSM    H5S 9885   6.741   4.182  10.075 -0.4892 -0.0940 -0.0359
   99OSM    C6S 9886   6.722   4.015   9.920  0.4974 -0.4066 -0.0931
   99OSM    H6S 9887   6.624   4.043   9.875  0.1545  0.6545  1.2698
   99OSM    H6T 9888   6.724   3.904   9.923 -0.8718 -0.4510 -0.1824
   99OSM    C7S 9889   6.829   4.070   9.823  0.2065  0.2573 -0.5329
   99OSM    H7S 9890   6.934   4.045   9.850 -0.7651 -0.6428  2.7899
   99OSM    H7T 9891   6.822   4.179   9.805 -1.1005  0.3700  0.5409
   99OSM    C8S 9892   6.810   4.015   9.678 -0.3484 -0.7010 -0.6367
   99OSM    H8S 9893   6.709   4.054   9.652 -0.1426  1.2490  1.2321
   99OSM    H8T 9894   6.822   3.905   9.686 -0.5878 -0.6847 -0.0320
   99OSM    C9S 9895   6.910   4.059   9.571 -0.5670  0.0101 -0.3158
   99OSM    H9S 9896   7.010   4.068   9.619 -0.9600  0.1394  0.5085
   99OSM    H9T 9897   6.883   4.156   9.526 -0.3815 -0.2915 -1.0821
   99OSM   C10S 9898   6.918   3.947   9.460 -0.3356 -0.3739  0.7755
   99OSM   H10S 9899   6.823   3.943   9.402  0.5083 -1.3675 -0.6009
   99OSM   H10T 9900   6.917   3.850   9.513 -1.1978 -0.1592  1.1720
   99OSM   C11S 9901   7.027   3.960   9.357 -0.4008 -0.4864  0.4310
   99OSM   H11S 9902   7.123   4.002   9.393  0.1159 -1.3227  0.0562
   99OSM   H11T 9903   6.992   4.032   9.281  2.9767 -1.1631 -1.9856
   99OSM   C12S 9904   7.065   3.838   9.273  0.4150  0.1836  0.0391
   99OSM   H12S 9905   7.133   3.864   9.190 -0.5459  1.2745 -0.4459
   99OSM   H12T 9906   7.116   3.761   9.334 -0.5898 -2.4438 -2.2473
   99OSM   C13S 9907   6.951   3.756   9.213 -0.3095  0.2584  0.0262
   99OSM   H13S 9908   6.881   3.748   9.299  0.0718  2.3114  0.5739
   99OSM   H13T 9909   6.990   3.656   9.185 -2.1231 -0.2673 -0.8033
   99OSM   C14S 9910   6.890   3.814   9.083  0.0470 -0.2503 -0.4681
   99OSM   H14S 9911   6.883   3.925   9.085  2.3532 -0.0154 -1.9718
   99OSM   H14T 9912   6.784   3.782   9.076 -0.2691  0.6604 -0.0354
   99OSM   C15S 9913   6.983   3.795   8.961 -0.7458 -0.2036 -0.1302
   99OSM   H15S 9914   6.972   3.692   8.922 -0.5451  0.0726 -0.9251
   99OSM   H15T 9915   7.087   3.796   9.001 -0.3662 -3.0489 -0.8473
   99OSM   C16S 9916   6.969   3.884   8.837 -0.3299 -0.3590 -0.1558
   99OSM   H16S 9917   7.056   3.863   8.772  1.0709  0.4647  1.3806
   99OSM   H16T 9918   6.975   3.992   8.860 -1.4349 -0.0336 -1.2761
   99OSM   C17S 9919   6.836   3.855   8.759  0.1683 -0.7444 -0.1706
   99OSM   H17S 9920   6.809   3.953   8.713  0.2380 -0.2087  0.9056
   99OSM   H17T 9921   6.770   3.818   8.841  2.0003  1.3552  2.4278
   99OSM   C18S 9922   6.848   3.758   8.646  0.0848 -0.1176  0.3179
   99OSM   H18S 9923   6.874   3.656   8.680  0.8579 -0.0012  0.0971
   99OSM   H18T 9924   6.938   3.775   8.582 -0.3172  1.8014  0.1953
   99OSM   H18U 9925   6.749   3.755   8.598  0.4423 -3.0057 -0.3965
   99OSM    C1F 9926   7.216   4.033  10.269  0.1167  0.4447 -0.7446
   99OSM     OF 9927   7.228   3.928  10.326  0.1584  0.6184  0.2385
   99OSM    C2F 9928   7.336   4.101  10.194  1.1792 -0.1271 -0.1606
   99OSM    H2F 9929   7.395   4.153  10.272 -1.0785  0.0295  1.5547
   99OSM    H2G 9930   7.288   4.171  10.122  1.3175  0.1300 -0.0038
   99OSM    C3F 9931   7.425   3.992  10.133 -0.3394 -0.1984  0.2359
   99OSM    H3F 9932   7.523   4.031  10.097 -1.0020  1.5320  0.2094
   99OSM    H3G 9933   7.447   3.908  10.201 -0.6445 -2.1173 -1.9267
   99OSM    C4F 9934   7.360   3.922  10.016 -0.5737 -0.5451  1.1873
   99OSM    H4F 9935   7.263   3.872  10.035 -0.6443 -1.3943 -1.0890
   99OSM    H4G 9936   7.422   3.842   9.969 -1.0042 -0.2742  0.1184
   99OSM    C5F 9937   7.338   4.019   9.898 -0.5045  0.3487  0.3380
   99OSM    H5F 9938   7.439   4.064   9.890  0.1265 -0.2115  3.8131
   99OSM    H5G 9939   7.270   4.103   9.924  1.0598  1.4069  1.1912
   99OSM    C6F 9940   7.283   3.957   9.763 -0.9023  0.3553 -0.2070
   99OSM    H6F 9941   7.250   4.045   9.703  0.5513 -0.0633 -1.7101
   99OSM    H6G 9942   7.190   3.904   9.790 -1.8876  2.5687  0.9979
   99OSM    C7F 9943   7.386   3.867   9.684 -0.5807  0.2164 -0.0144
   99OSM    H7F 9944   7.408   3.771   9.736 -3.7683 -1.6322 -1.7875
   99OSM    H7G 9945   7.470   3.930   9.650  0.8083 -1.7647 -0.4467
   99OSM    C8F 9946   7.337   3.806   9.552 -0.0063  0.0726  0.5782
   99OSM    H8F 9947   7.417   3.766   9.486 -0.9839  0.5475 -0.9578
   99OSM    H8G 9948   7.297   3.892   9.493  1.3584  1.1466  1.1445
   99OSM    C9F 9949   7.229   3.706   9.577  0.5004  0.0865  0.1996
   99OSM    H9F 9950   7.131   3.753   9.593  0.3970  0.3756 -1.1847
   99OSM   C10F 9951   7.245   3.572   9.558 -0.2439  0.8508 -0.6264
   99OSM   H10F 9952   7.165   3.504   9.590  0.7259  0.6801  1.5755
   99OSM   C11F 9953   7.360   3.488   9.516 -0.1428  0.0278 -0.5884
   99OSM   H11F 9954   7.386   3.414   9.594  1.3042  0.6507 -0.4499
   99OSM   H11G 9955   7.449   3.553   9.506  0.4126 -0.4450  1.0850
   99OSM   C12F 9956   7.334   3.400   9.384 -0.8994  0.2192 -0.6337
   99OSM   H12F 9957   7.266   3.322   9.423  1.0013 -0.2361  2.0165
   99OSM   H12G 9958   7.436   3.368   9.353 -0.8961 -0.4595  0.0581
   99OSM   C13F 9959   7.284   3.488   9.269 -0.7607 -0.0375 -0.1174
   99OSM   H13F 9960   7.310   3.595   9.286 -0.2689 -0.4957  2.4210
   99OSM   H13G 9961   7.174   3.471   9.276 -1.1832  2.3779 -0.1797
   99OSM   C14F 9962   7.356   3.470   9.133 -0.5085  0.2150 -0.2434
   99OSM   H14F 9963   7.343   3.360   9.117 -0.9567  0.1631  0.4378
   99OSM   H14G 9964   7.462   3.496   9.151 -1.0948  0.8981  2.9009
   99OSM   C15F 9965   7.298   3.570   9.027  0.0150  0.1867 -0.1005
   99OSM   H15F 9966   7.282   3.672   9.070 -2.6816  0.2642 -1.1267
   99OSM   H15G 9967   7.194   3.534   9.011 -0.7763  1.0328  2.5061
   99OSM   C16F 9968   7.389   3.568   8.903  0.1409  0.0249  0.2157
   99OSM   H16F 9969   7.406   3.465   8.863  2.6635  0.5003 -0.0511
   99OSM   H16G 9970   7.490   3.599   8.937  0.5752 -1.3067  0.2033
   99OSM   C17F 9971   7.353   3.661   8.784  0.5055  0.5513  0.1642
   99OSM   H17F 9972   7.421   3.652   8.696 -0.2703 -0.8719 -0.3195
   99OSM   H17G 9973   7.350   3.762   8.830  0.3399  0.8415 -0.4638
   99OSM   C18F 9974   7.219   3.640   8.716 -0.2724  0.5917  0.5008
   99OSM   H18F 9975   7.215   3.716   8.636 -0.2720  0.0082 -0.0679
   99OSM   H18G 9976   7.143   3.662   8.793 -0.6604  0.0841  0.2682
   99OSM   H18H 9977   7.221   3.531   8.691  0.3461  0.4212  1.2357
  100OSM      N 9978   3.783   6.661  10.834  0.2624 -0.0742 -0.3966
  100OSM    C15 9979   3.846   6.535  10.877 -1.0043 -0.2009  0.6677
  100OSM   H15A 9980   3.898   6.555  10.970  0.7702  0.3841 -0.3915
  100OSM   H15B 9981   3.920   6.500  10.806  1.2964 -0.3030  2.9793
  100OSM   H15C 9982   3.776   6.454  10.890 -1.6663  0.2509 -0.0133
  100OSM    C14 9983   3.676   6.676  10.934  0.8257  0.5553 -0.1971
  100OSM   H14A 9984   3.609   6.594  10.915  1.2100 -0.4963  2.5070
  100OSM   H14B 9985   3.623   6.769  10.919  0.9497  0.4534 -1.2781
  100OSM   H14C 9986   3.712   6.668  11.036  1.6225 -0.8045 -0.5610
  100OSM    C13 9987   3.877   6.773  10.844 -0.5418 -0.1110  0.5367
  100OSM   H13A 9988   3.965   6.749  10.786 -1.4031 -0.9739 -0.4409
  100OSM   H13B 9989   3.913   6.787  10.945 -0.5402 -0.4237  0.5826
  100OSM   H13C 9990   3.840   6.865  10.802  0.1667 -0.0168  0.1013
  100OSM    C12 9991   3.741   6.652  10.690  0.4918  0.4102 -0.4566
  100OSM   H12A 9992   3.831   6.649  10.630  2.1728  1.4140  1.8822
  100OSM   H12B 9993   3.693   6.746  10.668  1.1228  0.7142 -0.5814
  100OSM    C11 9994   3.646   6.533  10.660  0.1010  0.8327 -1.2834
  100OSM   H11A 9995   3.691   6.433  10.677 -1.0187  0.4678 -0.3235
  100OSM   H11B 9996   3.618   6.542  10.553 -3.9837  1.2956 -0.3483
  100OSM      P 9997   3.404   6.457  10.693  0.0598 -0.0913 -0.2894
  100OSM    O13 9998   3.428   6.313  10.717  0.2692 -0.2236 -0.8726
  100OSM    O14 9999   3.287   6.512  10.766  0.0538  0.2818  0.4512
  100OSM    O1110000   3.388   6.482  10.538 -0.2964  0.1653  0.1587
  100OSM    O1210001   3.524   6.541  10.738  0.3824 -0.6970  0.4079
  100OSM    C1S10002   3.284   6.574  10.496 -0.8120  0.1722 -0.4611
  100OSM    H1S10003   3.321   6.675  10.523  0.1779 -0.5444  0.9884
  100OSM    H1T10004   3.183   6.549  10.535 -0.6756  1.3349  0.7089
  100OSM     NF10005   3.167   6.661  10.294  0.2903  0.0964  0.7334
  100OSM    HNF10006   3.075   6.626  10.281  0.1336  0.6901  0.2135
  100OSM    C2S10007   3.266   6.562  10.344  0.6055  0.4832  0.2413
  100OSM    H2S10008   3.367   6.585  10.303  1.3628 -1.0737  1.1812
  100OSM    C3S10009   3.224   6.421  10.295  0.7073  0.1844  0.6124
  100OSM    H3S10010   3.128   6.386  10.339  1.2607 -1.5011  0.5308
  100OSM     O310011   3.306   6.322  10.348 -0.0338 -0.7752 -0.2571
  100OSM    HO310012   3.354   6.364  10.420 -0.0631 -0.8530 -0.1920
  100OSM    C4S10013   3.223   6.422  10.140 -0.1546  0.1985 -0.2668
  100OSM    H4S10014   3.129   6.453  10.092 -1.8784 -2.4361  1.0995
  100OSM    C5S10015   3.328   6.393  10.059  0.4907  0.1728  0.4263
  100OSM    H5S10016   3.423   6.375  10.110 -1.0495 -1.2899  3.0040
  100OSM    C6S10017   3.328   6.375   9.909  0.4750 -0.3559  0.2382
  100OSM    H6S10018   3.344   6.270   9.878  1.1813 -0.4117  0.7853
  100OSM    H6T10019   3.416   6.435   9.876  1.6031 -1.4512  1.1483
  100OSM    C7S10020   3.205   6.421   9.833  0.1468 -0.3334 -0.9034
  100OSM    H7S10021   3.193   6.529   9.854  0.3743 -0.0434 -2.1491
  100OSM    H7T10022   3.106   6.378   9.858 -0.0031  1.2117  1.4137
  100OSM    C8S10023   3.234   6.420   9.682 -0.0952  0.0693 -0.3331
  100OSM    H8S10024   3.280   6.319   9.672  1.5095  0.9067 -1.8450
  100OSM    H8T10025   3.306   6.499   9.652 -1.5558  0.3047 -3.5749
  100OSM    C9S10026   3.103   6.429   9.598  0.4806 -0.2701  0.1271
  100OSM    H9S10027   3.073   6.534   9.617  1.8445  0.3766 -1.0701
  100OSM    H9T10028   3.023   6.362   9.634 -1.1587  1.0411 -0.9275
  100OSM   C10S10029   3.132   6.413   9.444 -0.2847 -0.0469  0.5651
  100OSM   H10S10030   3.165   6.307   9.430  1.2752  0.5642 -0.6077
  100OSM   H10T10031   3.218   6.480   9.422  1.0568 -1.7711  0.3063
  100OSM   C11S10032   3.007   6.449   9.360 -0.3249 -0.5232  0.2908
  100OSM   H11S10033   2.990   6.555   9.389  1.6287 -0.4806  1.4321
  100OSM   H11T10034   2.930   6.376   9.391  0.0527 -1.4491 -0.8694
  100OSM   C12S10035   3.019   6.439   9.198  0.0660 -0.4606 -1.1021
  100OSM   H12S10036   3.052   6.336   9.172  0.4939 -0.5183 -0.3565
  100OSM   H12T10037   3.105   6.507   9.181 -0.5261  1.1380  1.7407
  100OSM   C13S10038   2.893   6.492   9.138  0.3039 -0.7380 -0.3597
  100OSM   H13S10039   2.869   6.595   9.174 -0.0443 -1.4828  1.6981
  100OSM   H13T10040   2.812   6.426   9.176 -0.3746  0.4227  0.3128
  100OSM   C14S10041   2.898   6.490   8.983  0.8322  0.1804 -0.1151
  100OSM   H14S10042   2.883   6.389   8.938  0.0396  1.8118 -3.9259
  100OSM   H14T10043   2.999   6.521   8.949  0.3502  0.6368 -1.1949
  100OSM   C15S10044   2.787   6.563   8.902 -0.1693  0.5232  0.0534
  100OSM   H15S10045   2.807   6.668   8.933  0.7075  0.6335 -0.8285
  100OSM   H15T10046   2.685   6.525   8.921 -0.3599 -0.5738 -2.7288
  100OSM   C16S10047   2.819   6.550   8.751 -0.5640 -0.2539  0.1818
  100OSM   H16S10048   2.886   6.467   8.720 -0.1052  0.3622 -0.5318
  100OSM   H16T10049   2.871   6.644   8.724  0.6369 -1.1267 -0.6685
  100OSM   C17S10050   2.690   6.548   8.664 -0.0288  0.2647 -0.1713
  100OSM   H17S10051   2.623   6.635   8.679  0.9538  1.2050 -1.1290
  100OSM   H17T10052   2.647   6.449   8.691 -0.3397  0.7851  1.3408
  100OSM   C18S10053   2.726   6.521   8.512 -0.3194  0.2121 -0.4209
  100OSM   H18S10054   2.764   6.617   8.470  1.2427  0.2722  1.0286
  100OSM   H18T10055   2.638   6.496   8.449  1.0561 -1.0615 -1.9077
  100OSM   H18U10056   2.804   6.443   8.502 -0.4755 -0.0912  0.6103
  100OSM    C1F10057   3.182   6.792  10.298  0.0493  0.0037  0.5420
  100OSM     OF10058   3.292   6.840  10.316  0.1633  0.5796  0.0513
  100OSM    C2F10059   3.068   6.879  10.278 -0.3465 -0.4083  0.4154
  100OSM    H2F10060   3.052   6.927  10.377 -0.8301  1.3481 -0.4717
  100OSM    H2G10061   2.974   6.831  10.243 -2.4392  2.7339  1.2333
  100OSM    C3F10062   3.100   6.993  10.176  0.1063  0.1835  0.1045
  100OSM    H3F10063   3.196   7.038  10.210  0.5414 -0.9207  0.3627
  100OSM    H3G10064   3.021   7.071  10.181  0.1451  0.4676 -2.3740
  100OSM    C4F10065   3.111   6.952  10.031  0.0273  0.0295 -0.1196
  100OSM    H4F10066   3.031   6.880  10.004 -0.0223  0.2245 -0.5013
  100OSM    H4G10067   3.205   6.897  10.010 -0.0814 -0.3659  0.4057
  100OSM    C5F10068   3.111   7.073   9.934 -0.7290  0.2076 -0.0086
  100OSM    H5F10069   3.205   7.126   9.962  1.0105 -1.8074 -1.7021
  100OSM    H5G10070   3.030   7.142   9.965 -1.3067  0.1225 -1.2660
  100OSM    C6F10071   3.114   7.035   9.794  0.0783  1.0834 -0.2788
  100OSM    H6F10072   3.177   6.946   9.774 -0.7233  0.6101 -0.7535
  100OSM    H6G10073   3.155   7.118   9.732  0.7074  1.4231  0.5638
  100OSM    C7F10074   2.971   6.991   9.754  0.0692  0.1104 -0.0181
  100OSM    H7F10075   2.908   7.078   9.783  0.6176  0.1263  1.1747
  100OSM    H7G10076   2.937   6.901   9.808  0.6599  0.1629  0.4461
  100OSM    C8F10077   2.949   6.973   9.603 -0.8018  0.2089  0.7204
  100OSM    H8F10078   2.992   7.062   9.553  0.3856 -0.2034  0.9745
  100OSM    H8G10079   2.840   6.979   9.585 -0.8892  2.0757  1.6095
  100OSM    C9F10080   3.023   6.846   9.564 -0.1304  0.6354  0.8390
  100OSM    H9F10081   3.011   6.759   9.631  0.2984 -0.6573 -0.6909
  100OSM   C10F10082   3.098   6.815   9.452  0.0845 -0.6825  0.0867
  100OSM   H10F10083   3.150   6.718   9.446  1.9282  0.3110 -0.9566
  100OSM   C11F10084   3.125   6.904   9.339 -0.3579  0.0135  0.2759
  100OSM   H11F10085   3.223   6.882   9.292 -0.2880 -4.4838  1.9628
  100OSM   H11G10086   3.116   7.005   9.384 -0.8990  0.5920 -1.0859
  100OSM   C12F10087   3.011   6.878   9.233 -0.1823 -0.2583  0.4519
  100OSM   H12F10088   2.909   6.887   9.277 -0.7624 -0.0117 -0.8974
  100OSM   H12G10089   3.017   6.776   9.189  1.5092  0.7323 -1.8722
  100OSM   C13F10090   3.023   6.975   9.113  0.6538 -0.3657  0.0417
  100OSM   H13F10091   3.114   6.970   9.049  0.0771 -0.7349 -0.7576
  100OSM   H13G10092   3.034   7.078   9.154  1.4124 -1.0820  1.7718
  100OSM   C14F10093   2.890   6.978   9.027 -0.6381  0.5949  0.2204
  100OSM   H14F10094   2.806   6.987   9.099 -0.9847  0.0926 -0.1182
  100OSM   H14G10095   2.877   6.884   8.970 -3.4114  0.5724  0.7827
  100OSM   C15F10096   2.873   7.092   8.929  0.1315  0.0714 -0.5807
  100OSM   H15F10097   2.975   7.126   8.903  1.5668  0.4641  4.5059
  100OSM   H15G10098   2.817   7.168   8.987 -2.0765 -0.5974 -1.7104
  100OSM   C16F10099   2.781   7.053   8.811  0.1781  0.4576 -0.0884
  100OSM   H16F10100   2.682   7.019   8.846  1.3136 -1.6072  1.3068
  100OSM   H16G10101   2.823   6.962   8.762 -2.1659 -0.5224 -0.3889
  100OSM   C17F10102   2.752   7.159   8.711 -0.1940  0.2156 -0.0996
  100OSM   H17F10103   2.691   7.106   8.634  0.6855 -2.2209  0.7964
  100OSM   H17G10104   2.850   7.188   8.666 -0.0400 -2.3420 -1.6214
  100OSM   C18F10105   2.674   7.280   8.762  0.3271 -0.1213  0.2764
  100OSM   H18F10106   2.583   7.241   8.813 -1.6498  2.2791 -1.2091
  100OSM   H18G10107   2.634   7.346   8.682 -1.0392 -1.0472  0.1789
  100OSM   H18H10108   2.737   7.339   8.833  0.9046 -1.5195  0.9598
  101OSM      N10109   0.314   3.337  11.096 -0.5126 -0.7798 -0.1960
  101OSM    C1510110   0.283   3.259  11.222  0.4000 -0.1023 -0.9635
  101OSM   H15A10111   0.179   3.230  11.226  0.3996  0.0174  0.3386
  101OSM   H15B10112   0.296   3.319  11.311  1.1483  1.4847 -2.1038
  101OSM   H15C10113   0.337   3.168  11.244  1.1395  1.2749  4.3134
  101OSM    C1410114   0.465   3.331  11.063 -0.3679  0.2204  0.0032
  101OSM   H14A10115   0.497   3.231  11.037  0.4590 -0.1026  2.1235
  101OSM   H14B10116   0.509   3.389  11.142 -0.0774 -1.4512  1.1278
  101OSM   H14C10117   0.486   3.394  10.977  0.0655  0.0429 -0.0241
  101OSM    C1310118   0.230   3.270  10.993 -0.4219 -0.0804 -0.1258
  101OSM   H13A10119   0.233   3.326  10.900 -2.4645  0.9817  0.3735
  101OSM   H13B10120   0.126   3.252  11.016 -0.8786  3.2091  0.9697
  101OSM   H13C10121   0.279   3.177  10.972  1.7854  0.6012  1.6413
  101OSM    C1210122   0.278   3.482  11.130 -0.3949  0.4409  0.0766
  101OSM   H12A10123   0.325   3.507  11.224 -0.0026 -3.0457  0.9580
  101OSM   H12B10124   0.173   3.488  11.156 -0.2657  1.2335  0.4375
  101OSM    C1110125   0.305   3.593  11.028  0.0650 -0.0292  0.1426
  101OSM   H11A10126   0.414   3.610  11.021  0.4776 -2.5352 -0.4736
  101OSM   H11B10127   0.261   3.688  11.065  0.5595  0.5834 -0.8246
  101OSM      P10128   0.111   3.574  10.854  0.2155  0.2113  0.1860
  101OSM    O1310129   0.064   3.455  10.777  0.0216 -0.3536  0.0323
  101OSM    O1410130   0.021   3.641  10.957  0.1124 -0.2726 -0.3849
  101OSM    O1110131   0.148   3.683  10.755 -0.5101 -0.1475  0.3363
  101OSM    O1210132   0.253   3.545  10.905  0.5029  0.0925 -0.7814
  101OSM    C1S10133   0.255   3.686  10.666  0.0332 -0.4191 -0.0748
  101OSM    H1S10134   0.352   3.647  10.705 -0.3943  0.0825  1.5811
  101OSM    H1T10135   0.276   3.793  10.645  1.5875 -0.3030  1.7528
  101OSM     NF10136   0.353   3.647  10.445  0.0403  0.1397  0.2079
  101OSM    HNF10137   0.354   3.732  10.393 -0.5220  0.7734  1.2060
  101OSM    C2S10138   0.231   3.624  10.526 -0.0146  0.1992 -0.0679
  101OSM    H2S10139   0.226   3.514  10.545 -0.2946  0.2481  0.1355
  101OSM    C3S10140   0.095   3.672  10.466 -0.3524 -0.3223  0.4131
  101OSM    H3S10141   0.085   3.781  10.480 -1.2824 -0.2525 -0.6601
  101OSM     O310142  -0.025   3.607  10.521 -0.8917 -0.4983  0.1280
  101OSM    HO310143   0.016   3.563  10.596  0.8912  0.5663 -0.1654
  101OSM    C4S10144   0.094   3.654  10.314  0.7116 -0.2553  0.1494
  101OSM    H4S10145   0.111   3.747  10.258  2.8644 -0.7948 -0.1928
  101OSM    C5S10146   0.066   3.547  10.238 -0.5062 -0.1651 -0.0965
  101OSM    H5S10147   0.053   3.448  10.285 -1.4505 -0.4321 -0.8847
  101OSM    C6S10148   0.061   3.546  10.085  0.1679 -0.4251  0.3125
  101OSM    H6S10149  -0.044   3.520  10.059  0.0734 -0.4748  0.7318
  101OSM    H6T10150   0.122   3.463  10.043  3.0283  0.8053  1.7556
  101OSM    C7S10151   0.100   3.680  10.010  0.0455  1.2753 -0.2206
  101OSM    H7S10152   0.192   3.720  10.057 -0.9414  0.9074  2.1995
  101OSM    H7T10153   0.017   3.751  10.031  0.3339  0.5828  4.4300
  101OSM    C8S10154   0.116   3.658   9.858  0.6069 -0.1959  0.7087
  101OSM    H8S10155   0.193   3.581   9.838  1.4657  0.1432  2.5072
  101OSM    H8T10156   0.144   3.754   9.810  0.2316  1.6770  3.9338
  101OSM    C9S10157  -0.027   3.625   9.799 -0.5232 -0.9483 -0.4004
  101OSM    H9S10158  -0.090   3.715   9.814 -0.0698 -0.6608 -0.1935
  101OSM    H9T10159  -0.085   3.543   9.847  0.4262  0.2913  3.1179
  101OSM   C10S10160  -0.030   3.602   9.648 -0.2430 -0.0230 -0.7839
  101OSM   H10S10161   0.028   3.682   9.598  2.0055 -0.9092  0.2870
  101OSM   H10T10162  -0.137   3.617   9.620 -0.4067 -1.4562 -0.9642
  101OSM   C11S10163   0.032   3.465   9.623 -0.4143 -0.2389  0.2111
  101OSM   H11S10164  -0.030   3.387   9.672  1.3289 -1.5762  0.3935
  101OSM   H11T10165   0.130   3.455   9.674  0.1167 -2.5464 -1.1014
  101OSM   C12S10166   0.036   3.425   9.477 -0.4121 -0.1803  0.3648
  101OSM   H12S10167   0.054   3.316   9.473  0.3979 -0.1570  2.3749
  101OSM   H12T10168   0.117   3.468   9.414  0.0785 -0.6510  0.6624
  101OSM   C13S10169  -0.105   3.444   9.411 -0.1678 -0.0272 -0.0236
  101OSM   H13S10170  -0.132   3.551   9.397  0.4506  0.1210 -0.0946
  101OSM   H13T10171  -0.183   3.400   9.476  1.3747  0.1356  2.0088
  101OSM   C14S10172  -0.115   3.376   9.271  0.0645 -0.3636 -0.5500
  101OSM   H14S10173  -0.222   3.375   9.242 -0.0354  0.0946 -0.2163
  101OSM   H14T10174  -0.081   3.271   9.283  0.0344 -0.3383 -0.2267
  101OSM   C15S10175  -0.026   3.414   9.162 -0.8912 -0.2417  0.7386
  101OSM   H15S10176   0.082   3.397   9.181 -0.3608  2.0724  0.0904
  101OSM   H15T10177  -0.038   3.521   9.135 -1.3381 -0.5128 -0.2058
  101OSM   C16S10178  -0.058   3.343   9.032  0.4370  0.5780  1.0934
  101OSM   H16S10179  -0.168   3.348   9.021  0.5156  1.1253  0.5080
  101OSM   H16T10180  -0.040   3.233   9.042 -1.7072  0.0798 -0.0326
  101OSM   C17S10181   0.022   3.401   8.913 -0.1527  0.8829 -0.6380
  101OSM   H17S10182   0.125   3.360   8.919  0.0015  1.1240 -1.4863
  101OSM   H17T10183   0.015   3.512   8.917 -2.3760  0.7437  1.0169
  101OSM   C18S10184  -0.035   3.364   8.773  0.3725  0.2702 -0.1049
  101OSM   H18S10185   0.041   3.362   8.692  0.0246  0.3301 -0.4320
  101OSM   H18T10186  -0.109   3.438   8.735  1.0865  0.0971 -1.9464
  101OSM   H18U10187  -0.082   3.264   8.769  0.4598  0.2545 -0.9153
  101OSM    C1F10188   0.459   3.575  10.446  0.2488  0.6288 -0.1060
  101OSM     OF10189   0.466   3.487  10.532 -0.3997 -0.6344  0.0371
  101OSM    C2F10190   0.574   3.599  10.352 -0.0208  0.7397 -0.3703
  101OSM    H2F10191   0.662   3.571  10.414 -0.1022 -2.3144 -1.4563
  101OSM    H2G10192   0.571   3.703  10.314  5.0088  0.8513 -1.1095
  101OSM    C3F10193   0.579   3.512  10.223  0.4170 -0.2801 -0.5876
  101OSM    H3F10194   0.562   3.407  10.258 -0.1410  0.2859  0.9144
  101OSM    H3G10195   0.676   3.528  10.172 -0.0312  2.2897 -0.7672
  101OSM    C4F10196   0.474   3.553  10.119  0.2462 -0.4281  0.2791
  101OSM    H4F10197   0.476   3.657  10.080 -3.4978  0.3265  1.7206
  101OSM    H4G10198   0.373   3.550  10.163  0.7601 -1.3515  1.4543
  101OSM    C5F10199   0.479   3.441  10.013  0.8507 -0.1749 -0.0092
  101OSM    H5F10200   0.383   3.447   9.958 -0.8048 -0.1499  2.6838
  101OSM    H5G10201   0.469   3.346  10.069 -1.2625 -1.0356 -1.7221
  101OSM    C6F10202   0.591   3.446   9.909 -0.2110 -0.0579 -0.3096
  101OSM    H6F10203   0.554   3.514   9.829 -1.4019  1.8824  1.7617
  101OSM    H6G10204   0.673   3.502   9.958 -0.7556  0.5908 -0.1219
  101OSM    C7F10205   0.644   3.316   9.854 -0.3382  0.2914 -0.0452
  101OSM    H7F10206   0.733   3.353   9.798  0.8320 -1.1051  0.8324
  101OSM    H7G10207   0.565   3.268   9.793  0.0075  0.8972 -0.9912
  101OSM    C8F10208   0.704   3.217   9.956 -0.4864 -0.2496 -0.1331
  101OSM    H8F10209   0.620   3.154   9.992  2.8370 -4.0436  1.9173
  101OSM    H8G10210   0.729   3.272  10.050 -0.1357  3.3106 -2.1419
  101OSM    C9F10211   0.829   3.138   9.911  0.0903 -0.3188 -0.0124
  101OSM    H9F10212   0.922   3.194   9.900 -0.2128 -0.1735 -2.1892
  101OSM   C10F10213   0.832   3.004   9.887 -0.1429  0.2582 -0.3580
  101OSM   H10F10214   0.930   2.967   9.852  0.4697  0.5573  0.9550
  101OSM   C11F10215   0.719   2.907   9.896  0.2587 -0.5058 -0.0608
  101OSM   H11F10216   0.637   2.971   9.933  2.4524  2.3939  0.1294
  101OSM   H11G10217   0.729   2.828   9.974 -0.8056  0.6915  1.3542
  101OSM   C12F10218   0.701   2.833   9.766  0.5366 -0.3755 -1.0523
  101OSM   H12F10219   0.616   2.764   9.779 -0.7764  1.4718  0.7062
  101OSM   H12G10220   0.794   2.778   9.737  3.4506  0.9982  4.2706
  101OSM   C13F10221   0.669   2.925   9.654 -0.1705 -0.4356  0.0003
  101OSM   H13F10222   0.742   3.008   9.649 -0.0303 -0.5843 -0.5092
  101OSM   H13G10223   0.575   2.979   9.679 -0.1180  1.3535 -3.1613
  101OSM   C14F10224   0.662   2.849   9.527 -0.0827 -0.1397 -0.4270
  101OSM   H14F10225   0.561   2.803   9.523 -1.3824  2.5539 -0.4065
  101OSM   H14G10226   0.750   2.781   9.525  1.1961  1.4574 -2.6250
  101OSM   C15F10227   0.664   2.935   9.403 -0.7659 -0.3066 -0.0324
  101OSM   H15F10228   0.770   2.965   9.392 -1.0443  1.3640  1.3146
  101OSM   H15G10229   0.610   3.028   9.431 -0.8145  0.6406 -2.9482
  101OSM   C16F10230   0.618   2.867   9.276 -0.2864 -0.2340 -0.7109
  101OSM   H16F10231   0.509   2.852   9.265 -0.2009 -1.1185 -0.4629
  101OSM   H16G10232   0.651   2.760   9.278  0.5068 -0.0130 -1.2696
  101OSM   C17F10233   0.675   2.951   9.155  0.3957 -0.1315 -0.2787
  101OSM   H17F10234   0.644   2.894   9.066 -0.5182  1.1058 -0.7735
  101OSM   H17G10235   0.786   2.953   9.148  0.5465 -0.9433  1.3187
  101OSM   C18F10236   0.616   3.092   9.143  0.6350  0.1846  0.5616
  101OSM   H18F10237   0.650   3.146   9.051 -0.5765 -0.7902 -0.4969
  101OSM   H18G10238   0.631   3.153   9.234 -2.3344  0.6925  0.7982
  101OSM   H18H10239   0.507   3.080   9.129  0.9571 -1.9449 -0.4783
  102OSM      N10240   5.354   0.576  10.741  0.3626  0.2899  0.6206
  102OSM    C1510241   5.466   0.607  10.655 -0.4253 -0.4006 -0.0252
  102OSM   H15A10242   5.484   0.534  10.577  0.8291 -1.0162  0.8110
  102OSM   H15B10243   5.551   0.601  10.721 -0.1771  3.3643  0.2092
  102OSM   H15C10244   5.467   0.705  10.610 -1.2355 -0.2500  0.2600
  102OSM    C1410245   5.394   0.449  10.813 -0.0450  0.0299 -0.4593
  102OSM   H14A10246   5.482   0.456  10.875  0.3346 -1.2736 -0.8321
  102OSM   H14B10247   5.400   0.360  10.752  1.5805 -0.4900  0.4179
  102OSM   H14C10248   5.311   0.422  10.877  1.0462  1.2009  1.5740
  102OSM    C1310249   5.312   0.678  10.843 -0.1197 -1.0846 -0.2484
  102OSM   H13A10250   5.379   0.685  10.927 -0.1474 -2.7132 -0.0521
  102OSM   H13B10251   5.216   0.656  10.888 -0.7661  0.5387 -0.7804
  102OSM   H13C10252   5.325   0.773  10.794 -0.0926 -0.0097  1.7464
  102OSM    C1210253   5.231   0.546  10.653  0.3824  0.3543 -1.0516
  102OSM   H12A10254   5.183   0.635  10.616  0.7926  0.9456 -0.2155
  102OSM   H12B10255   5.156   0.493  10.710  0.4681 -0.3454 -1.5679
  102OSM    C1110256   5.251   0.440  10.541 -0.2181  0.3348  0.4839
  102OSM   H11A10257   5.337   0.477  10.481 -0.3964  3.0032  1.7215
  102OSM   H11B10258   5.159   0.428  10.480  0.4351  0.1782 -0.4913
  102OSM      P10259   5.208   0.201  10.626 -0.6582 -0.2462 -0.3866
  102OSM    O1310260   5.292   0.100  10.699  0.0982 -0.0058  0.0683
  102OSM    O1410261   5.086   0.252  10.693  0.0498  0.3944  0.0231
  102OSM    O1110262   5.173   0.138  10.493 -0.2979 -0.0537  0.0730
  102OSM    O1210263   5.299   0.316  10.590  0.7038 -0.2302 -0.2922
  102OSM    C1S10264   5.275   0.101  10.396  0.1347 -0.1179 -0.0451
  102OSM    H1S10265   5.328   0.010  10.429  1.8999  1.6195  2.1624
  102OSM    H1T10266   5.355   0.178  10.392  1.6642 -1.6651  0.0495
  102OSM     NF10267   5.328   0.040  10.162  0.2243 -0.2789 -0.3406
  102OSM    HNF10268   5.364   0.117  10.110 -2.0714  2.0453  1.3350
  102OSM    C2S10269   5.220   0.081  10.253  0.5089  0.2397 -0.2763
  102OSM    H2S10270   5.139   0.005  10.258 -1.7007  2.5570  1.3776
  102OSM    C3S10271   5.157   0.214  10.205  0.4116 -0.9351  0.1161
  102OSM    H3S10272   5.229   0.298  10.196 -1.2044  0.5920  0.8936
  102OSM     O310273   5.045   0.257  10.290  0.7235  0.2743 -0.4013
  102OSM    HO310274   5.041   0.197  10.365 -0.0808 -2.7195 -2.6740
  102OSM    C4S10275   5.106   0.183  10.063  0.8317 -1.0189 -0.3617
  102OSM    H4S10276   5.187   0.163   9.991 -1.1090 -1.5986 -2.4930
  102OSM    C5S10277   4.978   0.178  10.018 -0.5366  0.4608  0.7825
  102OSM    H5S10278   4.910   0.195  10.103 -0.7155  0.8856  0.5585
  102OSM    C6S10279   4.922   0.155   9.881 -0.8127 -0.1499 -0.1342
  102OSM    H6S10280   4.819   0.194   9.869 -0.6888  0.5098  0.7940
  102OSM    H6T10281   4.918   0.050   9.846 -1.2089  0.1657 -1.0455
  102OSM    C7S10282   5.002   0.233   9.772  0.4115 -0.1948  0.6178
  102OSM    H7S10283   5.113   0.225   9.762  0.7326  2.2195  1.5056
  102OSM    H7T10284   4.968   0.338   9.782  0.7067  0.4719 -3.4424
  102OSM    C8S10285   4.943   0.203   9.628  0.9107 -0.1246  0.1778
  102OSM    H8S10286   4.836   0.230   9.621  1.0589 -0.0480 -2.5817
  102OSM    H8T10287   4.941   0.092   9.620 -2.5778 -0.0438 -1.4278
  102OSM    C9S10288   5.022   0.266   9.514 -0.2802  0.0825 -0.0758
  102OSM    H9S10289   5.129   0.239   9.529 -0.3301  0.0594  0.2516
  102OSM    H9T10290   5.009   0.376   9.520 -1.6268  0.0239 -1.2444
  102OSM   C10S10291   4.976   0.207   9.375  0.0471  0.0060  0.2421
  102OSM   H10S10292   4.865   0.214   9.368  0.1116 -0.3293 -1.3597
  102OSM   H10T10293   4.995   0.098   9.381 -4.6836 -1.1177 -0.5869
  102OSM   C11S10294   5.041   0.276   9.249  0.6817  0.1320 -0.2131
  102OSM   H11S10295   5.147   0.244   9.244  0.8243  0.7866 -2.1898
  102OSM   H11T10296   5.035   0.386   9.266  3.5574 -0.0596  3.3765
  102OSM   C12S10297   4.959   0.236   9.120  0.3953  0.0362 -0.0785
  102OSM   H12S10298   4.851   0.238   9.147  0.3197 -0.5912 -0.3332
  102OSM   H12T10299   4.983   0.129   9.102  0.9988 -0.2329  2.0412
  102OSM   C13S10300   4.976   0.335   9.006 -0.5870 -0.0373  0.2386
  102OSM   H13S10301   5.083   0.336   8.973 -1.0257  2.5774 -1.4384
  102OSM   H13T10302   4.936   0.428   9.050 -1.2802  0.4277 -1.2859
  102OSM   C14S10303   4.904   0.311   8.871 -0.9882 -0.1694  0.4996
  102OSM   H14S10304   4.796   0.325   8.892 -0.8519  0.4534  0.8388
  102OSM   H14T10305   4.916   0.208   8.833 -0.7586  0.3020 -0.7680
  102OSM   C15S10306   4.944   0.393   8.747 -0.0128  0.0806  0.1778
  102OSM   H15S10307   5.030   0.353   8.688  1.1772  0.8855  1.2933
  102OSM   H15T10308   4.981   0.485   8.798  1.0178 -0.4487  0.4236
  102OSM   C16S10309   4.827   0.422   8.657 -0.4933  0.1238  0.6043
  102OSM   H16S10310   4.761   0.491   8.713 -0.2693  1.8022 -1.1229
  102OSM   H16T10311   4.782   0.325   8.624  2.2073 -0.4035 -1.9837
  102OSM   C17S10312   4.865   0.503   8.529 -0.3516  0.8099  0.1452
  102OSM   H17S10313   4.930   0.439   8.465 -1.5333  1.2534 -1.5967
  102OSM   H17T10314   4.930   0.588   8.562 -0.3343  0.9738 -0.3001
  102OSM   C18S10315   4.749   0.566   8.448 -0.4276 -0.7430 -0.4242
  102OSM   H18S10316   4.787   0.612   8.355 -1.1951  1.6484  0.3619
  102OSM   H18T10317   4.688   0.642   8.502 -0.8661  0.0927 -2.0539
  102OSM   H18U10318   4.670   0.493   8.419  0.1410 -0.6219 -2.3584
  102OSM    C1F10319   5.389  -0.078  10.164  0.4566 -0.3405 -0.2199
  102OSM     OF10320   5.355  -0.158  10.247  0.2199  0.0976  0.4347
  102OSM    C2F10321   5.496  -0.103  10.059  0.0763 -0.4773 -0.2427
  102OSM    H2F10322   5.547  -0.007  10.032  0.6566 -1.0169 -1.1039
  102OSM    H2G10323   5.450  -0.149   9.969  0.5027  3.3778 -2.6954
  102OSM    C3F10324   5.610  -0.195  10.095 -0.0341  0.1914 -0.5248
  102OSM    H3F10325   5.564  -0.293  10.120  0.7223 -1.0831 -3.7167
  102OSM    H3G10326   5.663  -0.152  10.183  0.1069  0.0927 -0.5620
  102OSM    C4F10327   5.702  -0.216   9.977  0.2719 -0.3718  0.1339
  102OSM    H4F10328   5.638  -0.213   9.885  0.0085 -0.5708  0.3102
  102OSM    H4G10329   5.753  -0.314   9.987 -1.0745 -1.1295 -0.1677
  102OSM    C5F10330   5.813  -0.108   9.969  0.0024  0.3517 -0.2246
  102OSM    H5F10331   5.868  -0.100  10.065  2.8459  0.1714 -1.7240
  102OSM    H5G10332   5.765  -0.010   9.948  0.6755  0.3624 -1.9582
  102OSM    C6F10333   5.925  -0.139   9.867  0.5764 -0.4671 -0.3857
  102OSM    H6F10334   5.942  -0.249   9.864 -1.0187 -0.7396 -0.4162
  102OSM    H6G10335   6.015  -0.079   9.891 -0.4069  1.3388 -1.0049
  102OSM    C7F10336   5.873  -0.080   9.732 -0.1238  0.1675 -0.6292
  102OSM    H7F10337   5.851   0.027   9.753  1.8938  0.2806  1.2712
  102OSM    H7G10338   5.776  -0.124   9.701 -0.0570  0.4791 -1.2945
  102OSM    C8F10339   5.982  -0.081   9.623  0.2294 -0.1393  0.1396
  102OSM    H8F10340   6.085  -0.054   9.655 -0.4260  3.3351 -0.3221
  102OSM    H8G10341   5.944  -0.001   9.556 -0.8544  0.1974  1.1268
  102OSM    C9F10342   5.986  -0.225   9.571  1.0999 -0.2436  0.6810
  102OSM    H9F10343   6.035  -0.306   9.627 -0.7856 -2.2726 -0.4807
  102OSM   C10F10344   5.925  -0.272   9.461  0.3078  0.6659  0.2124
  102OSM   H10F10345   5.928  -0.380   9.437 -2.4045  0.0926  1.9807
  102OSM   C11F10346   5.839  -0.186   9.370 -0.3479  0.2614 -1.2399
  102OSM   H11F10347   5.816  -0.089   9.419 -0.7703 -0.9359  1.0655
  102OSM   H11G10348   5.744  -0.242   9.356  0.5226 -1.0197 -2.2933
  102OSM   C12F10349   5.896  -0.169   9.230 -0.3965  0.6565  0.3175
  102OSM   H12F10350   6.004  -0.155   9.251 -0.4209 -0.0173  0.9512
  102OSM   H12G10351   5.867  -0.073   9.180 -0.4445  1.0852  1.1481
  102OSM   C13F10352   5.878  -0.288   9.138  0.0596  0.1353 -0.0935
  102OSM   H13F10353   5.892  -0.385   9.190  0.5154  1.3114  2.1174
  102OSM   H13G10354   5.957  -0.283   9.060  0.1536 -0.2365 -0.0196
  102OSM   C14F10355   5.746  -0.299   9.066  0.3484  0.1576  0.1289
  102OSM   H14F10356   5.720  -0.194   9.039  0.5759  0.1021 -0.3170
  102OSM   H14G10357   5.672  -0.332   9.142 -1.3790 -0.6668 -1.8002
  102OSM   C15F10358   5.740  -0.409   8.956 -0.4176 -0.3671 -0.8325
  102OSM   H15F10359   5.648  -0.384   8.898 -1.8852 -1.4818  0.8852
  102OSM   H15G10360   5.723  -0.509   9.003  2.3883 -1.0260 -1.0377
  102OSM   C16F10361   5.857  -0.409   8.855 -0.8222  0.0497  0.5556
  102OSM   H16F10362   5.941  -0.445   8.917  0.1968 -1.4431 -1.5856
  102OSM   H16G10363   5.862  -0.306   8.814  1.0132  0.1089  0.8674
  102OSM   C17F10364   5.842  -0.503   8.736 -0.2524  0.4584  0.5684
  102OSM   H17F10365   5.798  -0.600   8.765  1.7032 -0.6536 -0.0184
  102OSM   H17G10366   5.947  -0.523   8.706 -0.4222 -0.3175  0.4698
  102OSM   C18F10367   5.769  -0.455   8.610 -0.4177  0.0853  0.1874
  102OSM   H18F10368   5.661  -0.476   8.621 -0.7841 -0.4871 -3.3853
  102OSM   H18G10369   5.798  -0.519   8.524  1.7971 -1.4344  1.9404
  102OSM   H18H10370   5.793  -0.351   8.579  0.5612  0.3207  1.6121
  103OSM      N10371   1.234   3.588  10.907 -0.0529  0.0977  0.2342
  103OSM    C1510372   1.349   3.598  10.996 -0.3657 -0.3503  0.8017
  103OSM   H15A10373   1.327   3.683  11.060  0.7523  0.3827  0.2591
  103OSM   H15B10374   1.439   3.629  10.945 -0.1634 -1.5009  0.4363
  103OSM   H15C10375   1.367   3.504  11.045 -1.2378 -1.7342 -1.4047
  103OSM    C1410376   1.259   3.464  10.821  0.5971 -0.1058 -0.0084
  103OSM   H14A10377   1.164   3.448  10.772  0.6536 -0.4370 -0.0147
  103OSM   H14B10378   1.287   3.375  10.874  2.2963 -0.4355 -1.3545
  103OSM   H14C10379   1.326   3.482  10.738  0.5547 -1.5422 -0.3850
  103OSM    C1310380   1.110   3.558  10.977  0.5645 -0.0453  0.4142
  103OSM   H13A10381   1.025   3.564  10.911  0.3688 -0.3794  0.6348
  103OSM   H13B10382   1.080   3.622  11.059 -1.1246 -0.5602  0.2229
  103OSM   H13C10383   1.124   3.459  11.017  0.3103 -0.0908  0.3873
  103OSM    C1210384   1.226   3.708  10.813 -0.7733  0.6568  0.0994
  103OSM   H12A10385   1.311   3.710  10.746 -0.3859 -0.6325  0.5063
  103OSM   H12B10386   1.217   3.800  10.868 -0.6448 -0.4264  2.0566
  103OSM    C1110387   1.102   3.709  10.720 -0.4280 -0.4780 -0.5630
  103OSM   H11A10388   1.013   3.701  10.786 -0.9948 -0.0491 -1.2589
  103OSM   H11B10389   1.084   3.624  10.651  0.7684 -1.1047 -0.1371
  103OSM      P10390   1.044   3.968  10.705  0.2294 -0.0014  0.3761
  103OSM    O1310391   0.912   3.990  10.641  0.3105  0.3097 -0.1205
  103OSM    O1410392   1.060   3.977  10.852 -0.3845 -0.2096 -0.9288
  103OSM    O1110393   1.120   4.080  10.623  0.0507  0.2929 -0.9264
  103OSM    O1210394   1.108   3.827  10.642  0.1513 -0.0379 -0.3632
  103OSM    C1S10395   1.145   4.054  10.480  0.3473 -0.8290 -0.9201
  103OSM    H1S10396   1.065   4.001  10.425 -2.5256  2.0563  0.1611
  103OSM    H1T10397   1.239   3.995  10.481  1.8057  1.3474 -1.2691
  103OSM     NF10398   1.214   4.157  10.268 -0.3615 -0.1322 -0.6304
  103OSM    HNF10399   1.307   4.141  10.238 -0.1273 -2.0524  0.9062
  103OSM    C2S10400   1.190   4.186  10.408 -0.3879  0.0778  0.0745
  103OSM    H2S10401   1.105   4.257  10.414 -1.3622 -1.1146  0.6065
  103OSM    C3S10402   1.311   4.247  10.481 -0.0909 -0.1606  0.5269
  103OSM    H3S10403   1.399   4.180  10.488 -0.4483 -0.5061  2.8657
  103OSM     O310404   1.282   4.291  10.616  0.5697  0.0703 -0.2205
  103OSM    HO310405   1.186   4.300  10.621  0.7875  4.1182 -0.0887
  103OSM    C4S10406   1.356   4.374  10.424  0.2732  0.2541 -0.5971
  103OSM    H4S10407   1.282   4.455  10.417 -0.0913 -0.1365 -1.5209
  103OSM    C5S10408   1.477   4.415  10.383  0.5395  0.8923  0.3952
  103OSM    H5S10409   1.561   4.345  10.375  0.5585  1.0681 -1.3733
  103OSM    C6S10410   1.511   4.551  10.329 -0.1522  0.3540  0.0724
  103OSM    H6S10411   1.540   4.606  10.421 -3.4390 -1.5051  2.4408
  103OSM    H6T10412   1.431   4.613  10.284 -0.1925  2.2933  2.5788
  103OSM    C7S10413   1.645   4.565  10.261 -0.5905  1.0008  0.4829
  103OSM    H7S10414   1.732   4.522  10.315  1.0093  2.2593 -0.9583
  103OSM    H7T10415   1.680   4.670  10.246  0.7351  0.7152  1.3766
  103OSM    C8S10416   1.632   4.501  10.119 -0.3279  0.4226 -0.4485
  103OSM    H8S10417   1.578   4.569  10.049  0.9917  1.5072 -0.4498
  103OSM    H8T10418   1.582   4.401  10.116 -0.7911  0.6151 -4.1339
  103OSM    C9S10419   1.780   4.477  10.078 -0.3386  0.5502  0.4509
  103OSM    H9S10420   1.823   4.417  10.161  1.4792 -3.3311 -2.9756
  103OSM    H9T10421   1.838   4.572  10.086 -0.4770  0.5140  2.5373
  103OSM   C10S10422   1.792   4.401   9.943 -0.3303 -0.5268 -0.0340
  103OSM   H10S10423   1.896   4.404   9.903 -0.0961  0.4081  0.6160
  103OSM   H10T10424   1.722   4.448   9.871 -1.1454 -2.4689 -0.5562
  103OSM   C11S10425   1.749   4.249   9.944 -0.2939 -0.1492 -0.2887
  103OSM   H11S10426   1.661   4.233  10.009  0.3552 -2.9821  0.0553
  103OSM   H11T10427   1.836   4.198   9.991  0.3452 -0.4895 -1.7735
  103OSM   C12S10428   1.714   4.197   9.801 -0.0035 -0.0349 -0.2302
  103OSM   H12S10429   1.708   4.086   9.795 -1.1323 -0.0631  1.0586
  103OSM   H12T10430   1.788   4.230   9.725  1.6809  0.1896  1.4332
  103OSM   C13S10431   1.577   4.241   9.754  0.7163 -0.4895  0.3862
  103OSM   H13S10432   1.567   4.350   9.737 -2.0131 -0.5206  1.2934
  103OSM   H13T10433   1.501   4.225   9.834 -1.7950 -1.1487 -1.9500
  103OSM   C14S10434   1.526   4.162   9.631 -0.4483 -0.2386 -0.0990
  103OSM   H14S10435   1.415   4.153   9.628 -0.7494  2.0127  1.4799
  103OSM   H14T10436   1.551   4.054   9.635  0.1589 -0.1862 -1.7231
  103OSM   C15S10437   1.585   4.218   9.504 -0.1137  0.2923  0.0943
  103OSM   H15S10438   1.690   4.252   9.517  0.0391 -0.3505  0.6094
  103OSM   H15T10439   1.523   4.309   9.490  2.1992  1.6199 -2.4660
  103OSM   C16S10440   1.571   4.120   9.388 -0.5294  0.0987 -0.6281
  103OSM   H16S10441   1.466   4.083   9.385  0.6461 -4.0581  1.5305
  103OSM   H16T10442   1.637   4.033   9.410 -1.3551  0.1784  2.6940
  103OSM   C17S10443   1.607   4.178   9.244 -0.8315  0.4543  0.1751
  103OSM   H17S10444   1.716   4.163   9.226 -0.7983 -0.6656  1.1481
  103OSM   H17T10445   1.585   4.285   9.223 -0.3045  0.2546 -1.4991
  103OSM   C18S10446   1.532   4.092   9.137 -0.4048  0.7199 -0.5793
  103OSM   H18S10447   1.564   3.985   9.136 -1.5046  0.3394  0.9468
  103OSM   H18T10448   1.559   4.122   9.033  2.4732 -0.1445 -0.1971
  103OSM   H18U10449   1.424   4.105   9.155 -0.4964  0.3400 -0.8456
  103OSM    C1F10450   1.108   4.134  10.190 -0.6636 -0.0601 -0.2587
  103OSM     OF10451   0.992   4.161  10.224 -0.6981  0.5997 -0.2142
  103OSM    C2F10452   1.139   4.074  10.055  0.3148 -0.1494 -0.3042
  103OSM    H2F10453   1.173   3.970  10.073 -1.2602 -0.3703  1.7175
  103OSM    H2G10454   1.232   4.127  10.024  0.3877  0.8834  1.5177
  103OSM    C3F10455   1.025   4.080   9.955  0.3297  0.0896 -0.0018
  103OSM    H3F10456   1.002   4.183   9.921  1.9719  1.0873  1.7607
  103OSM    H3G10457   0.940   4.021   9.994 -0.1338 -0.2456 -1.4648
  103OSM    C4F10458   1.059   3.997   9.831  0.0614  0.3094 -0.2894
  103OSM    H4F10459   1.070   3.891   9.861 -0.5607  0.6522  1.2589
  103OSM    H4G10460   1.162   4.022   9.797  0.7391 -1.1406  0.6052
  103OSM    C5F10461   0.948   4.007   9.716  0.7579  0.2544 -0.0908
  103OSM    H5F10462   0.910   4.108   9.690  0.4099  0.7663  2.1632
  103OSM    H5G10463   0.857   3.957   9.755 -1.0682  2.1269 -1.7088
  103OSM    C6F10464   0.991   3.939   9.582  0.3336 -0.0503  0.5536
  103OSM    H6F10465   1.044   3.844   9.605 -1.0214 -0.6777  1.2539
  103OSM    H6G10466   1.069   3.989   9.520 -0.2754  0.8389  0.4829
  103OSM    C7F10467   0.871   3.914   9.489 -0.2871 -0.2681  0.0662
  103OSM    H7F10468   0.814   4.007   9.465  0.2742 -0.3686 -1.8567
  103OSM    H7G10469   0.800   3.833   9.514 -0.4337 -0.8173 -1.9541
  103OSM    C8F10470   0.939   3.872   9.351  0.4073  0.4920 -0.0530
  103OSM    H8F10471   1.020   3.799   9.370  1.1940  1.7822  1.8757
  103OSM    H8G10472   0.974   3.966   9.305 -1.1254  0.7143 -0.8300
  103OSM    C9F10473   0.849   3.805   9.251 -0.0063 -1.0325 -0.1888
  103OSM    H9F10474   0.791   3.717   9.283  1.1915 -1.2613  1.4670
  103OSM   C10F10475   0.828   3.852   9.122 -0.0258  0.4375 -0.0147
  103OSM   H10F10476   0.734   3.813   9.081 -0.4292  1.9721 -0.6001
  103OSM   C11F10477   0.888   3.974   9.060 -0.4479 -0.2717 -0.9354
  103OSM   H11F10478   0.999   3.968   9.056 -0.3581 -0.9533  1.3570
  103OSM   H11G10479   0.857   4.065   9.116  0.3555 -0.4801 -0.1344
  103OSM   C12F10480   0.850   3.998   8.912  0.7429  0.0176 -0.0935
  103OSM   H12F10481   0.897   4.093   8.881  0.0782  0.4886  0.3130
  103OSM   H12G10482   0.741   4.011   8.893  0.6852  0.6828  0.6496
  103OSM   C13F10483   0.894   3.897   8.808 -0.4003  0.9724 -0.5193
  103OSM   H13F10484   0.854   3.796   8.832  1.0051  0.2396 -1.1492
  103OSM   H13G10485   1.004   3.899   8.826 -0.4312  1.0784 -0.3393
  103OSM   C14F10486   0.865   3.919   8.657 -0.3118  0.0707 -0.0498
  103OSM   H14F10487   0.892   4.019   8.619  0.5136  0.2007  0.8465
  103OSM   H14G10488   0.757   3.891   8.646  0.1599 -1.1346 -2.0894
  103OSM   C15F10489   0.945   3.817   8.562 -0.3624 -0.0827 -0.3934
  103OSM   H15F10490   0.920   3.711   8.584 -1.4275 -0.9186 -4.6530
  103OSM   H15G10491   1.051   3.830   8.593 -0.2400  1.9571 -1.4651
  103OSM   C16F10492   0.924   3.842   8.412 -0.5708  0.0503  0.2316
  103OSM   H16F10493   0.821   3.809   8.388 -0.1872  0.5393 -2.4180
  103OSM   H16G10494   0.984   3.763   8.362  1.2506 -0.5937  3.1784
  103OSM   C17F10495   0.956   3.978   8.357 -0.4239 -0.6773  0.9832
  103OSM   H17F10496   1.061   4.011   8.373 -0.4913  1.0465 -1.4469
  103OSM   H17G10497   0.902   4.053   8.418  1.4389 -0.3403  2.3063
  103OSM   C18F10498   0.928   3.998   8.205 -0.3877  0.9627  0.0476
  103OSM   H18F10499   0.821   4.026   8.208 -0.2491  1.4863  0.1586
  103OSM   H18G10500   0.944   3.916   8.132  0.2670  1.4199 -0.3325
  103OSM   H18H10501   0.973   4.092   8.164 -0.3051  1.4030  1.1235
  104OSM      N10502   0.791   2.869  11.097  0.6387 -0.2246  0.1735
  104OSM    C1510503   0.821   2.945  10.968  0.9536 -0.7746 -0.5114
  104OSM   H15A10504   0.763   2.921  10.880 -0.0948 -1.0104  0.2192
  104OSM   H15B10505   0.923   2.945  10.933  0.8040  2.5438 -1.3669
  104OSM   H15C10506   0.809   3.050  10.992  1.1188 -0.6496 -0.9596
  104OSM    C1410507   0.832   2.727  11.079 -0.6616  0.3167 -0.3920
  104OSM   H14A10508   0.798   2.658  11.155 -1.3871  0.7591 -0.3025
  104OSM   H14B10509   0.940   2.722  11.074 -0.5654  2.6953 -2.4671
  104OSM   H14C10510   0.794   2.688  10.987  0.4020  1.9194 -1.5690
  104OSM    C1310511   0.875   2.927  11.201  0.0562 -0.3503 -0.2202
  104OSM   H13A10512   0.869   2.866  11.290  1.0874 -1.1937 -0.7071
  104OSM   H13B10513   0.853   3.030  11.225  1.7182  0.5118 -2.0868
  104OSM   H13C10514   0.976   2.921  11.163  0.5468  0.9189  0.7788
  104OSM    C1210515   0.646   2.877  11.133 -0.2824 -0.2736  0.1854
  104OSM   H12A10516   0.624   2.825  11.225 -0.6880 -1.3598 -0.5059
  104OSM   H12B10517   0.597   2.821  11.055 -0.2643 -1.2620  0.8744
  104OSM    C1110518   0.577   3.011  11.116  0.1899  0.6081  1.0936
  104OSM   H11A10519   0.656   3.081  11.151  0.5900  0.1077  1.2138
  104OSM   H11B10520   0.485   3.025  11.176  0.3712 -0.6525  1.7077
  104OSM      P10521   0.423   2.924  10.919 -0.0685 -0.1823 -0.5119
  104OSM    O1310522   0.462   2.782  10.918 -0.5234 -0.9915  0.3605
  104OSM    O1410523   0.296   2.971  10.981  0.7701  0.3699  0.0579
  104OSM    O1110524   0.425   2.968  10.771 -0.7614 -0.2308  0.0944
  104OSM    O1210525   0.547   3.022  10.978 -0.5207 -0.4594  0.3929
  104OSM    C1S10526   0.513   3.069  10.725 -0.1295 -0.2152  0.0250
  104OSM    H1S10527   0.617   3.035  10.709  0.3950  2.3934 -3.0567
  104OSM    H1T10528   0.494   3.162  10.783 -0.5645 -0.7215  0.7202
  104OSM     NF10529   0.566   3.167  10.496  0.2592 -0.7288 -0.5105
  104OSM    HNF10530   0.559   3.267  10.503  0.7755 -0.7793  1.0253
  104OSM    C2S10531   0.463   3.101  10.577 -0.4024  0.2628  0.1548
  104OSM    H2S10532   0.447   3.008  10.518 -0.6210  0.4948 -0.1501
  104OSM    C3S10533   0.322   3.173  10.576 -0.5889 -0.4145  0.1525
  104OSM    H3S10534   0.320   3.273  10.625 -3.0639 -0.0054 -0.6290
  104OSM     O310535   0.221   3.102  10.641 -0.3763  0.2534 -0.4904
  104OSM    HO310536   0.270   3.041  10.697  0.1199 -0.1800 -1.3800
  104OSM    C4S10537   0.282   3.208  10.430  0.7771  0.0058  1.0347
  104OSM    H4S10538   0.305   3.307  10.389  0.3587 -0.2230  0.2426
  104OSM    C5S10539   0.223   3.123  10.336  0.0458 -0.3086 -0.5084
  104OSM    H5S10540   0.201   3.018  10.357  2.0026 -0.9959 -1.6627
  104OSM    C6S10541   0.190   3.172  10.190 -0.4241  0.3872 -0.0066
  104OSM    H6S10542   0.227   3.276  10.173  0.0659 -0.0450 -1.7923
  104OSM    H6T10543   0.081   3.177  10.169 -0.3037 -0.2486 -0.8266
  104OSM    C7S10544   0.252   3.079  10.083 -0.5901 -0.3240  0.0864
  104OSM    H7S10545   0.224   2.975  10.108 -3.0542  0.2416 -0.0731
  104OSM    H7T10546   0.362   3.090  10.092 -0.5659 -0.7321  0.3236
  104OSM    C8S10547   0.212   3.119   9.944  0.1157  0.0537  0.3327
  104OSM    H8S10548   0.232   3.226   9.925 -0.6452  0.4987  1.8317
  104OSM    H8T10549   0.103   3.098   9.942  0.0771  0.2850 -1.2803
  104OSM    C9S10550   0.273   3.042   9.829 -0.5633 -0.0655  0.7693
  104OSM    H9S10551   0.275   2.934   9.857  2.9902  0.4292  3.0244
  104OSM    H9T10552   0.377   3.067   9.800  0.0761 -1.8332  1.4326
  104OSM   C10S10553   0.214   3.065   9.690  0.4478  0.0641 -0.3169
  104OSM   H10S10554   0.248   3.160   9.643  3.2492 -1.6308 -2.0190
  104OSM   H10T10555   0.105   3.059   9.711  0.4642 -1.2410 -0.5334
  104OSM   C11S10556   0.249   2.952   9.586 -1.0153 -0.6695 -0.8635
  104OSM   H11S10557   0.241   2.851   9.632  1.0293  0.1140  1.4165
  104OSM   H11T10558   0.356   2.948   9.557 -0.8121 -0.1252 -0.2173
  104OSM   C12S10559   0.153   2.962   9.474 -0.1448  0.4706 -0.2786
  104OSM   H12S10560   0.168   3.059   9.420  1.4124  1.2220  1.3993
  104OSM   H12T10561   0.046   2.972   9.500  0.2261  3.3327  0.4849
  104OSM   C13S10562   0.184   2.854   9.365 -0.4795  0.3488 -0.5348
  104OSM   H13S10563   0.145   2.755   9.396  0.2246 -0.5123 -2.2674
  104OSM   H13T10564   0.294   2.841   9.351 -0.7320 -0.0084 -2.4998
  104OSM   C14S10565   0.128   2.889   9.228  0.4608 -0.6103 -0.7657
  104OSM   H14S10566   0.154   2.994   9.202  1.4232 -0.3820  0.9687
  104OSM   H14T10567   0.017   2.881   9.229  0.3261  0.4869 -2.6347
  104OSM   C15S10568   0.193   2.799   9.124 -0.4856 -0.0655 -0.2434
  104OSM   H15S10569   0.169   2.692   9.140  0.6373 -0.3538 -0.3974
  104OSM   H15T10570   0.302   2.816   9.133 -0.1997 -2.2861  1.2234
  104OSM   C16S10571   0.129   2.848   8.990 -0.7953  0.0103 -0.2226
  104OSM   H16S10572   0.100   2.955   8.993  1.0571  0.5291  1.3690
  104OSM   H16T10573   0.035   2.790   8.983 -0.4385 -0.3933 -4.0423
  104OSM   C17S10574   0.195   2.813   8.855 -0.0630  0.2201  0.1888
  104OSM   H17S10575   0.184   2.705   8.831 -0.0369  0.3612 -0.4577
  104OSM   H17T10576   0.302   2.822   8.882 -0.1418  1.9606  0.0050
  104OSM   C18S10577   0.154   2.908   8.745 -0.6990 -0.6084  0.2392
  104OSM   H18S10578   0.045   2.888   8.737 -1.1262  1.1116  1.2622
  104OSM   H18T10579   0.209   2.877   8.654  0.0450 -0.2542  0.5677
  104OSM   H18U10580   0.171   3.013   8.776 -0.5425 -1.1318  2.0326
  104OSM    C1F10581   0.690   3.114  10.466 -0.6259 -0.3926 -0.8444
  104OSM     OF10582   0.716   3.000  10.500  0.0841 -0.4046 -0.4009
  104OSM    C2F10583   0.782   3.204  10.397 -0.4817 -0.4183  0.2217
  104OSM    H2F10584   0.846   3.261  10.468  0.4919 -1.2796  0.0545
  104OSM    H2G10585   0.735   3.287  10.338 -1.7523  0.2836  2.1213
  104OSM    C3F10586   0.879   3.127  10.299 -0.6694 -0.5745  0.4311
  104OSM    H3F10587   0.814   3.109  10.211 -1.8505 -0.2003  1.2094
  104OSM    H3G10588   0.915   3.031  10.342 -0.6861 -1.0552 -0.6030
  104OSM    C4F10589   0.999   3.218  10.253  0.1927  0.3372 -0.4082
  104OSM    H4F10590   1.046   3.265  10.342  2.8557  0.0029 -1.5540
  104OSM    H4G10591   0.968   3.299  10.183 -2.7437  0.7335  1.1737
  104OSM    C5F10592   1.103   3.132  10.182 -0.1918 -0.5811 -1.1597
  104OSM    H5F10593   1.061   3.081  10.092  0.1452  0.8533 -2.1616
  104OSM    H5G10594   1.121   3.046  10.251 -0.6402  0.2441  0.0143
  104OSM    C6F10595   1.247   3.192  10.150  0.7048 -0.1032 -0.5432
  104OSM    H6F10596   1.306   3.099  10.140  0.6819 -0.7584  3.5022
  104OSM    H6G10597   1.285   3.240  10.243 -1.9354 -1.5460  1.4622
  104OSM    C7F10598   1.253   3.282  10.024 -0.7790 -0.3810 -0.2233
  104OSM    H7F10599   1.207   3.378  10.056  0.9740  0.4617 -0.0900
  104OSM    H7G10600   1.190   3.237   9.944 -0.3104  1.3579 -1.6495
  104OSM    C8F10601   1.399   3.307   9.985  0.4759  0.2130 -0.7425
  104OSM    H8F10602   1.433   3.214   9.935  1.1637 -0.1782  0.4396
  104OSM    H8G10603   1.460   3.332  10.074  0.7699 -0.2100 -0.8252
  104OSM    C9F10604   1.393   3.429   9.897 -0.0367 -0.1939 -0.6251
  104OSM    H9F10605   1.414   3.524   9.949  2.6367 -1.8006  1.5474
  104OSM   C10F10606   1.399   3.436   9.765  0.9195  0.4685 -1.0432
  104OSM   H10F10607   1.397   3.534   9.715  2.2839  1.7373  1.2261
  104OSM   C11F10608   1.396   3.319   9.671 -0.0703  0.0557 -0.8022
  104OSM   H11F10609   1.319   3.331   9.592 -1.0750 -0.3957  0.0845
  104OSM   H11G10610   1.372   3.229   9.732  1.8726  0.0918  0.0846
  104OSM   C12F10611   1.534   3.278   9.603 -0.7330  0.1253 -0.1332
  104OSM   H12F10612   1.587   3.232   9.689  0.9156  1.1841 -0.5417
  104OSM   H12G10613   1.583   3.372   9.570  1.7888 -0.8260  0.6671
  104OSM   C13F10614   1.516   3.189   9.481 -0.8841 -0.0299 -0.6900
  104OSM   H13F10615   1.454   3.099   9.502  0.6332 -0.7945  0.8296
  104OSM   H13G10616   1.618   3.146   9.471  0.9675  3.5892  0.8150
  104OSM   C14F10617   1.481   3.264   9.352  0.3701 -0.0660  0.2116
  104OSM   H14F10618   1.550   3.344   9.321  0.0643 -0.7821 -2.5965
  104OSM   H14G10619   1.381   3.311   9.365  0.1199 -0.5156 -0.0577
  104OSM   C15F10620   1.478   3.168   9.232 -0.3962 -0.6436  0.2191
  104OSM   H15F10621   1.441   3.070   9.268 -0.0740 -1.0251 -0.4534
  104OSM   H15G10622   1.583   3.154   9.196  0.1754  1.2144  1.0229
  104OSM   C16F10623   1.392   3.223   9.109 -0.5762  0.2283 -0.3798
  104OSM   H16F10624   1.424   3.323   9.073  0.7591  0.2442  0.7862
  104OSM   H16G10625   1.286   3.231   9.143 -0.3660 -0.9663  0.6219
  104OSM   C17F10626   1.378   3.124   8.990 -0.1492 -0.9674 -0.0499
  104OSM   H17F10627   1.344   3.023   9.019  0.0694 -1.0791 -0.1756
  104OSM   H17G10628   1.476   3.123   8.937 -0.6835  2.3167 -1.3560
  104OSM   C18F10629   1.270   3.164   8.888  0.4866  0.2594  0.0114
  104OSM   H18F10630   1.289   3.260   8.835  0.8111  0.5525  0.6538
  104OSM   H18G10631   1.172   3.174   8.939 -0.0953  1.2193 -1.2168
  104OSM   H18H10632   1.253   3.086   8.811 -0.1102  0.5705 -0.1782
  105OSM      N10633   3.274   0.584  11.069  0.2657  0.6702 -0.2927
  105OSM    C1510634   3.266   0.493  11.188  0.5048 -0.3050 -0.7053
  105OSM   H15A10635   3.293   0.390  11.168 -0.1348 -0.7389  0.4908
  105OSM   H15B10636   3.167   0.497  11.231  1.1348  2.2053  0.6981
  105OSM   H15C10637   3.327   0.529  11.269  0.9011 -1.2428 -0.5727
  105OSM    C1410638   3.175   0.540  10.972 -0.1481  0.7402  0.6030
  105OSM   H14A10639   3.162   0.602  10.885 -0.5648 -1.1316 -0.7362
  105OSM   H14B10640   3.080   0.521  11.020  0.7814  0.5839  2.4708
  105OSM   H14C10641   3.197   0.445  10.926 -2.0970 -0.6141  2.2499
  105OSM    C1310642   3.241   0.720  11.104 -0.0145  0.2360 -0.0482
  105OSM   H13A10643   3.136   0.716  11.127  0.1748  0.3161  0.8745
  105OSM   H13B10644   3.265   0.787  11.022  1.4528 -0.1500  0.0321
  105OSM   H13C10645   3.291   0.768  11.187 -1.5910  0.7649  0.6423
  105OSM    C1210646   3.413   0.578  11.006  0.0222 -0.9838  0.1618
  105OSM   H12A10647   3.432   0.478  10.968  0.5345 -1.1035  0.7071
  105OSM   H12B10648   3.493   0.604  11.075  0.9351  1.2019 -1.5950
  105OSM    C1110649   3.430   0.679  10.888 -0.2514  0.1080  0.2837
  105OSM   H11A10650   3.350   0.658  10.814 -0.4560 -1.8465  1.0058
  105OSM   H11B10651   3.527   0.659  10.838  1.1744  0.3361  2.7947
  105OSM      P10652   3.557   0.906  10.966 -0.0449 -0.3783 -0.5133
  105OSM    O1310653   3.507   1.026  11.035 -0.3830  0.0620  0.4044
  105OSM    O1410654   3.661   0.831  11.038  0.6847 -0.2107 -0.6928
  105OSM    O1110655   3.609   0.941  10.819  0.6920  0.1788  0.0546
  105OSM    O1210656   3.431   0.821  10.935  0.6238  0.1824 -0.4241
  105OSM    C1S10657   3.514   0.987  10.726  0.3214 -0.1295  0.2949
  105OSM    H1S10658   3.474   1.089  10.744 -0.5629 -0.3924 -0.1394
  105OSM    H1T10659   3.431   0.914  10.717  0.5415 -0.2593 -0.8002
  105OSM     NF10660   3.479   1.022  10.479 -0.1445 -0.5010  0.2998
  105OSM    HNF10661   3.461   0.953  10.409 -1.3476  2.5189 -2.6285
  105OSM    C2S10662   3.578   0.988  10.575  0.0020  0.2883 -0.8606
  105OSM    H2S10663   3.655   1.068  10.572  1.2106 -0.7988 -0.0112
  105OSM    C3S10664   3.645   0.853  10.548  0.6578  0.1764 -1.0215
  105OSM    H3S10665   3.561   0.781  10.544 -1.0034  1.7840  1.8294
  105OSM     O310666   3.740   0.802  10.648 -0.4408  0.0112 -0.0195
  105OSM    HO310667   3.707   0.844  10.728 -1.1226 -2.3040  0.9812
  105OSM    C4S10668   3.717   0.853  10.415  0.5817 -0.0145  0.0998
  105OSM    H4S10669   3.649   0.819  10.336  0.1836  1.3014 -0.1574
  105OSM    C5S10670   3.855   0.860  10.389 -0.0910 -0.0350  1.2271
  105OSM    H5S10671   3.929   0.867  10.469  0.7951 -1.3819  0.5696
  105OSM    C6S10672   3.915   0.845  10.251 -0.3229 -0.5481 -0.2502
  105OSM    H6S10673   4.011   0.789  10.252  2.7411  4.1489  0.3129
  105OSM    H6T10674   3.950   0.945  10.219  0.5037 -0.9657 -0.6826
  105OSM    C7S10675   3.818   0.789  10.141  0.7047 -0.5309  0.0293
  105OSM    H7S10676   3.729   0.855  10.138  0.8601 -0.3505 -1.2159
  105OSM    H7T10677   3.786   0.685  10.163 -1.6168  0.1283  0.0455
  105OSM    C8S10678   3.883   0.791   9.998 -0.3644 -0.2196 -0.4954
  105OSM    H8S10679   3.967   0.719   9.999 -0.8394 -0.8977  3.1560
  105OSM    H8T10680   3.920   0.895   9.985  1.0087 -0.1008  3.1506
  105OSM    C9S10681   3.772   0.764   9.888 -0.1916 -0.3133 -0.7927
  105OSM    H9S10682   3.692   0.837   9.913  1.8840  1.0104  2.8201
  105OSM    H9T10683   3.714   0.670   9.900 -0.8368  0.1706  0.0238
  105OSM   C10S10684   3.837   0.779   9.750 -0.4695  0.2447 -0.2498
  105OSM   H10S10685   3.918   0.705   9.737 -0.4449 -0.4047  2.7911
  105OSM   H10T10686   3.894   0.874   9.750 -0.8537  0.5442  2.3000
  105OSM   C11S10687   3.743   0.750   9.632  0.2935  0.1260 -0.0422
  105OSM   H11S10688   3.664   0.827   9.621  0.5535  0.2450 -1.1777
  105OSM   H11T10689   3.691   0.655   9.657  3.1632 -1.1796  1.4112
  105OSM   C12S10690   3.817   0.751   9.495 -0.3882  1.1052 -0.6498
  105OSM   H12S10691   3.909   0.692   9.513 -0.1046  2.0644  1.2444
  105OSM   H12T10692   3.847   0.852   9.460  2.7993 -0.3075 -2.4125
  105OSM   C13S10693   3.736   0.674   9.386  0.1815 -0.8039 -0.1635
  105OSM   H13S10694   3.713   0.579   9.438  1.8053 -1.1159  0.0460
  105OSM   H13T10695   3.812   0.639   9.313 -0.3785 -0.2768 -1.0151
  105OSM   C14S10696   3.616   0.743   9.318 -0.8514  0.2545 -0.1500
  105OSM   H14S10697   3.542   0.764   9.398 -0.8209 -2.6161  0.7206
  105OSM   H14T10698   3.564   0.677   9.246  0.0997  0.5477 -1.1258
  105OSM   C15S10699   3.654   0.875   9.241 -0.4519  0.0867  0.0993
  105OSM   H15S10700   3.702   0.944   9.313 -1.8003  2.4612 -1.1627
  105OSM   H15T10701   3.558   0.927   9.218  0.1123  0.9775 -0.3043
  105OSM   C16S10702   3.738   0.844   9.122  0.2197 -0.3912 -0.1752
  105OSM   H16S10703   3.838   0.815   9.162 -0.5503 -0.9212  1.4385
  105OSM   H16T10704   3.743   0.938   9.063  0.5422 -0.7736 -0.7691
  105OSM   C17S10705   3.675   0.749   9.011 -0.0204 -0.4614 -0.3101
  105OSM   H17S10706   3.615   0.819   8.949  2.8064  1.0931 -1.5048
  105OSM   H17T10707   3.608   0.674   9.058 -1.2456  0.6577 -0.2222
  105OSM   C18S10708   3.778   0.686   8.912 -0.2485  0.3350 -0.2528
  105OSM   H18S10709   3.740   0.712   8.811  0.9388 -4.0566 -2.0614
  105OSM   H18T10710   3.786   0.576   8.919  2.1103  0.4529 -0.3062
  105OSM   H18U10711   3.881   0.723   8.930 -0.1934 -0.3574  0.9832
  105OSM    C1F10712   3.420   1.141  10.480  0.0531  0.0739 -0.5145
  105OSM     OF10713   3.456   1.233  10.552  0.4261  0.3905  0.6977
  105OSM    C2F10714   3.311   1.157  10.383 -0.6066 -0.1882 -0.4111
  105OSM    H2F10715   3.214   1.130  10.430 -1.5967  1.5099 -1.3871
  105OSM    H2G10716   3.329   1.084  10.300 -1.6552 -0.3136 -0.5419
  105OSM    C3F10717   3.290   1.292  10.330 -0.2093 -0.1613 -0.5869
  105OSM    H3F10718   3.364   1.329  10.256 -0.7588  1.9150 -0.1815
  105OSM    H3G10719   3.280   1.370  10.409 -0.9968 -0.1182 -0.7138
  105OSM    C4F10720   3.151   1.320  10.260  0.4493  0.6909 -0.2606
  105OSM    H4F10721   3.149   1.427  10.230  0.1224  1.5962  2.6017
  105OSM    H4G10722   3.060   1.298  10.319 -0.1325  1.3960 -0.8778
  105OSM    C5F10723   3.135   1.239  10.128 -0.2884  0.0404 -0.3503
  105OSM    H5F10724   3.125   1.129  10.142 -0.4200  0.0078 -0.6805
  105OSM    H5G10725   3.224   1.269  10.069  0.1300  1.5260  0.9905
  105OSM    C6F10726   3.003   1.269  10.049  0.2744 -0.2313  0.2770
  105OSM    H6F10727   3.019   1.370  10.006  1.8998 -0.6906 -0.2738
  105OSM    H6G10728   2.915   1.284  10.114 -0.3971  2.5870 -1.1313
  105OSM    C7F10729   2.966   1.178   9.929 -0.0067  0.5170  1.1206
  105OSM    H7F10730   2.860   1.208   9.915 -0.0588  0.2078  0.8477
  105OSM    H7G10731   2.962   1.072   9.961  0.5030  1.0001  2.8804
  105OSM    C8F10732   3.045   1.192   9.802  0.1715  0.3383 -0.7078
  105OSM    H8F10733   3.008   1.115   9.731  1.8805 -0.7569 -0.4699
  105OSM    H8G10734   3.151   1.162   9.816  0.6135  1.7991 -0.7603
  105OSM    C9F10735   3.048   1.320   9.739 -0.0209 -0.1516 -0.1122
  105OSM    H9F10736   3.047   1.408   9.806  2.6271  0.5022 -0.8108
  105OSM   C10F10737   3.033   1.349   9.609  0.3045  0.0059  0.6297
  105OSM   H10F10738   3.059   1.452   9.583 -0.3339 -0.7330 -3.5174
  105OSM   C11F10739   3.034   1.257   9.487  0.5411 -0.9606  0.6928
  105OSM   H11F10740   2.932   1.215   9.471  0.2101 -0.0437  0.3233
  105OSM   H11G10741   3.100   1.169   9.503 -0.8888 -1.9979  1.2288
  105OSM   C12F10742   3.083   1.332   9.362  0.0526 -0.1869 -0.0486
  105OSM   H12F10743   3.180   1.378   9.391  0.2639 -0.1201 -0.8519
  105OSM   H12G10744   3.020   1.422   9.351  1.6088  1.0499  0.7201
  105OSM   C13F10745   3.102   1.237   9.250 -0.3790  0.1762  1.3029
  105OSM   H13F10746   3.000   1.210   9.215 -0.1492 -0.1494  0.8753
  105OSM   H13G10747   3.151   1.146   9.289 -1.8885 -1.0217  0.4958
  105OSM   C14F10748   3.187   1.287   9.133 -0.0729  0.2147  0.4742
  105OSM   H14F10749   3.294   1.285   9.162 -0.5575 -0.7054  2.3243
  105OSM   H14G10750   3.164   1.392   9.103  1.6180  0.4535 -0.1091
  105OSM   C15F10751   3.157   1.201   9.006  0.6051  0.2861  0.8989
  105OSM   H15F10752   3.046   1.203   8.994  0.6290 -0.2466  0.5316
  105OSM   H15G10753   3.188   1.095   9.018  3.4710  1.0384  0.7638
  105OSM   C16F10754   3.211   1.264   8.877  0.7014  0.3681  0.0444
  105OSM   H16F10755   3.320   1.285   8.882  0.4294  2.0216 -0.6801
  105OSM   H16G10756   3.167   1.366   8.881 -0.6286 -0.1972  0.5055
  105OSM   C17F10757   3.188   1.194   8.740 -0.5629  0.1579 -0.5339
  105OSM   H17F10758   3.082   1.168   8.719 -0.0774 -0.6446 -2.2490
  105OSM   H17G10759   3.240   1.096   8.734  0.1662  0.2471  2.5530
  105OSM   C18F10760   3.243   1.278   8.628  0.4789  0.1287 -0.9438
  105OSM   H18F10761   3.205   1.382   8.622 -0.0147  0.2385  2.2351
  105OSM   H18G10762   3.237   1.230   8.528 -0.4831 -1.2756 -0.2440
  105OSM   H18H10763   3.348   1.303   8.653  0.4420 -1.1482  0.6642
  106OSM      N10764   3.290   5.211  10.854  0.2524  0.2684  0.0312
  106OSM    C1510765   3.358   5.334  10.900 -0.3159 -0.4567  0.3547
  106OSM   H15A10766   3.287   5.407  10.935 -0.5941 -0.5119 -0.0847
  106OSM   H15B10767   3.421   5.382  10.827 -1.8227  1.9213  0.4987
  106OSM   H15C10768   3.413   5.301  10.987  0.7801 -1.3158 -0.6318
  106OSM    C1410769   3.395   5.123  10.782 -0.8710 -0.7177  0.2436
  106OSM   H14A10770   3.429   5.175  10.694  0.9336 -2.1579  0.0399
  106OSM   H14B10771   3.361   5.026  10.749 -2.5554 -0.4112  0.9601
  106OSM   H14C10772   3.487   5.108  10.835  0.2591  1.4929 -0.9587
  106OSM    C1310773   3.229   5.136  10.973 -0.3335 -0.4065  0.4982
  106OSM   H13A10774   3.306   5.102  11.041  2.3427 -1.0873 -2.6110
  106OSM   H13B10775   3.171   5.050  10.943  0.3746 -0.6627 -0.1809
  106OSM   H13C10776   3.166   5.197  11.036 -0.4954 -1.1140  1.0348
  106OSM    C1210777   3.180   5.240  10.754  0.4542 -0.2576 -0.0644
  106OSM   H12A10778   3.105   5.305  10.796 -0.1292 -0.2083 -1.1375
  106OSM   H12B10779   3.135   5.145  10.730  1.9345 -1.0856  0.3282
  106OSM    C1110780   3.227   5.305  10.615  0.7193 -0.4252 -0.1287
  106OSM   H11A10781   3.141   5.293  10.545  1.6340  1.7770 -1.7537
  106OSM   H11B10782   3.310   5.247  10.570  0.0770 -1.3841 -0.1142
  106OSM      P10783   3.172   5.560  10.664 -0.2311 -0.0451 -0.1591
  106OSM    O1310784   3.038   5.504  10.706 -0.5164  0.0502 -0.3334
  106OSM    O1410785   3.236   5.651  10.762 -0.5040  0.0191  0.7259
  106OSM    O1110786   3.142   5.636  10.520 -0.0813  0.4255 -0.6603
  106OSM    O1210787   3.268   5.442  10.622 -0.0685 -0.6082  0.1737
  106OSM    C1S10788   3.252   5.689  10.456 -0.6683 -0.1723  0.6786
  106OSM    H1S10789   3.328   5.610  10.438 -0.5134  0.4284 -1.5318
  106OSM    H1T10790   3.306   5.760  10.522 -1.8854  1.3674  0.0653
  106OSM     NF10791   3.352   5.792  10.249  0.2695  0.4928 -0.1377
  106OSM    HNF10792   3.380   5.886  10.267 -0.0853  0.6716 -0.5114
  106OSM    C2S10793   3.225   5.756  10.314  0.2988 -0.1499 -0.0241
  106OSM    H2S10794   3.170   5.679  10.256 -2.9765 -0.4964  3.2017
  106OSM    C3S10795   3.132   5.877  10.341 -0.6274  0.1794  0.3027
  106OSM    H3S10796   3.185   5.949  10.407  0.4385 -0.6308  0.3508
  106OSM     O310797   3.012   5.844  10.409  0.3590  0.0422  0.2332
  106OSM    HO310798   3.035   5.764  10.457  0.3973 -0.4026 -0.4971
  106OSM    C4S10799   3.099   5.942  10.210 -0.5622  0.2231 -0.8106
  106OSM    H4S10800   3.015   5.893  10.158 -0.6475 -1.4418  0.7793
  106OSM    C5S10801   3.170   6.041  10.157 -0.1561 -0.4199  0.4706
  106OSM    H5S10802   3.258   6.086  10.206  1.0124  0.5159 -2.2804
  106OSM    C6S10803   3.152   6.104  10.020  0.5968  0.4559  0.3983
  106OSM    H6S10804   3.255   6.133   9.992  0.5857 -0.9927 -1.4193
  106OSM    H6T10805   3.106   6.203  10.040  2.2958  1.2467  0.5207
  106OSM    C7S10806   3.083   6.011   9.910  0.6261  0.1695  0.3304
  106OSM    H7S10807   2.977   6.025   9.939  0.7250 -0.6725  1.1174
  106OSM    H7T10808   3.108   5.903   9.912 -1.1028 -0.2504  1.1578
  106OSM    C8S10809   3.097   6.077   9.768 -0.5846  0.1439 -0.2056
  106OSM    H8S10810   3.205   6.100   9.754 -0.9596  0.9274 -2.1535
  106OSM    H8T10811   3.049   6.177   9.773  0.4224  0.7031 -1.2221
  106OSM    C9S10812   3.036   5.984   9.658  0.2041  0.5932  0.3144
  106OSM    H9S10813   2.933   6.023   9.650 -0.5858 -1.1180  1.5699
  106OSM    H9T10814   3.038   5.879   9.696  1.2291  0.3024 -0.4876
  106OSM   C10S10815   3.105   6.001   9.520  0.7232  0.2277 -0.3393
  106OSM   H10S10816   3.212   5.976   9.537  1.0624  0.9386 -1.2820
  106OSM   H10T10817   3.097   6.107   9.487 -0.0552  0.1378 -0.4584
  106OSM   C11S10818   3.051   5.917   9.400  0.0314 -0.5681 -0.0470
  106OSM   H11S10819   3.064   5.808   9.415 -2.9214 -1.0427 -0.5030
  106OSM   H11T10820   3.117   5.940   9.313 -1.5954 -1.7112 -1.6420
  106OSM   C12S10821   2.907   5.950   9.372 -0.0809  0.1603  0.1419
  106OSM   H12S10822   2.883   6.059   9.371  0.2218  0.2284 -0.4471
  106OSM   H12T10823   2.840   5.910   9.451  0.1018  2.1115  1.3535
  106OSM   C13S10824   2.846   5.895   9.236 -0.1283 -0.3005 -0.1660
  106OSM   H13S10825   2.738   5.921   9.237 -0.3320 -1.1249 -0.0441
  106OSM   H13T10826   2.844   5.784   9.232  1.2946 -0.3819  0.9280
  106OSM   C14S10827   2.913   5.943   9.107 -0.6447 -0.4898 -0.0115
  106OSM   H14S10828   3.023   5.940   9.123 -0.5356  1.1447 -0.2398
  106OSM   H14T10829   2.878   6.047   9.087 -0.4805 -0.8469 -2.4835
  106OSM   C15S10830   2.889   5.853   8.986  0.4670  0.2397 -0.6860
  106OSM   H15S10831   2.929   5.750   9.000 -1.2805 -0.5020 -0.7585
  106OSM   H15T10832   2.926   5.894   8.890  0.8184  2.7485  0.4466
  106OSM   C16S10833   2.741   5.821   8.959 -0.0827  0.2336 -0.1523
  106OSM   H16S10834   2.699   5.763   9.045  2.0205 -1.4595 -0.1840
  106OSM   H16T10835   2.736   5.764   8.864  0.4228  1.1431 -0.7288
  106OSM   C17S10836   2.657   5.941   8.937  0.2022 -0.1334  0.0224
  106OSM   H17S10837   2.651   6.001   9.030  1.3474  1.9430 -1.1765
  106OSM   H17T10838   2.552   5.904   8.928  0.5429 -0.9663 -0.7171
  106OSM   C18S10839   2.681   6.032   8.815  0.3920 -0.1200 -0.1395
  106OSM   H18S10840   2.607   6.110   8.787 -1.0789 -1.0140  1.0845
  106OSM   H18T10841   2.688   5.966   8.726 -1.2654  1.2429 -1.3408
  106OSM   H18U10842   2.781   6.077   8.833  0.2369  0.1139  0.1594
  106OSM    C1F10843   3.442   5.704  10.206  0.9728  0.7382 -0.0841
  106OSM     OF10844   3.411   5.585  10.195 -0.7036 -0.0799 -0.9615
  106OSM    C2F10845   3.573   5.757  10.165  0.2788  0.1521 -0.3861
  106OSM    H2F10846   3.628   5.669  10.125 -0.6905 -1.6335  1.9784
  106OSM    H2G10847   3.629   5.798  10.251  1.6594  2.1393 -2.1187
  106OSM    C3F10848   3.565   5.862  10.051  0.0210 -0.6030 -0.5520
  106OSM    H3F10849   3.662   5.873   9.998  0.3213 -0.1026  0.0960
  106OSM    H3G10850   3.535   5.964  10.084  2.7080  0.8760 -2.2722
  106OSM    C4F10851   3.487   5.827   9.927  0.2047 -0.2094  0.1204
  106OSM    H4F10852   3.386   5.785   9.945  0.0133  0.7207  1.3856
  106OSM    H4G10853   3.536   5.739   9.879  0.9439  0.0185  0.4399
  106OSM    C5F10854   3.471   5.944   9.835  0.2052  0.0412  0.2654
  106OSM    H5F10855   3.409   6.029   9.872  0.3856  0.2838  0.0140
  106OSM    H5G10856   3.407   5.890   9.762  1.9832  0.6403 -1.8385
  106OSM    C6F10857   3.595   6.007   9.772 -0.2845 -0.2016 -0.0914
  106OSM    H6F10858   3.669   5.929   9.744 -0.7619 -0.3491 -1.0037
  106OSM    H6G10859   3.644   6.074   9.846  1.1350 -0.6045 -0.6277
  106OSM    C7F10860   3.555   6.090   9.647  0.5733  0.3203 -1.0613
  106OSM    H7F10861   3.642   6.157   9.635  1.0448 -0.1692 -0.4473
  106OSM    H7G10862   3.468   6.141   9.695 -0.2668 -1.5152 -0.5264
  106OSM    C8F10863   3.521   6.029   9.507  0.3268  0.4538 -0.1384
  106OSM    H8F10864   3.491   6.113   9.441 -1.8817  0.8202  1.2568
  106OSM    H8G10865   3.434   5.961   9.517  0.8286  0.0034  1.5456
  106OSM    C9F10866   3.649   5.959   9.451 -0.4117  0.1594 -0.5376
  106OSM    H9F10867   3.695   5.875   9.504 -0.2898  1.5140  1.6236
  106OSM   C10F10868   3.711   5.995   9.341 -0.3894  0.2110  0.9610
  106OSM   H10F10869   3.799   5.932   9.321  0.1026  1.2605 -0.3677
  106OSM   C11F10870   3.670   6.099   9.240  0.2847  0.0880 -0.4107
  106OSM   H11F10871   3.739   6.185   9.252 -0.4084  0.4295  1.6085
  106OSM   H11G10872   3.564   6.127   9.262 -0.0190 -1.7214  0.6502
  106OSM   C12F10873   3.685   6.053   9.106 -0.2983  0.2117  0.0395
  106OSM   H12F10874   3.619   6.114   9.040  0.4118 -0.2208 -1.1084
  106OSM   H12G10875   3.657   5.945   9.097 -3.5095  0.9935 -0.5799
  106OSM   C13F10876   3.832   6.071   9.052 -0.0129 -0.2517 -0.1693
  106OSM   H13F10877   3.907   6.013   9.110  1.7598  0.6693 -1.4742
  106OSM   H13G10878   3.848   6.180   9.060 -2.2361  0.0696  0.7126
  106OSM   C14F10879   3.842   6.013   8.908 -0.1433 -0.1523  0.3780
  106OSM   H14F10880   3.821   5.904   8.917  1.4214 -0.4626  0.4703
  106OSM   H14G10881   3.945   6.024   8.868  0.1925 -0.1788  1.2138
  106OSM   C15F10882   3.741   6.079   8.807  0.5852  0.7990 -0.3117
  106OSM   H15F10883   3.762   6.188   8.803 -0.1486  0.9150 -1.4773
  106OSM   H15G10884   3.634   6.066   8.833  0.4941 -2.5212 -1.8698
  106OSM   C16F10885   3.769   6.034   8.666  0.5315  0.1409  0.2883
  106OSM   H16F10886   3.775   5.924   8.660  3.0917  0.2644 -0.8912
  106OSM   H16G10887   3.873   6.058   8.635 -0.8574 -0.0487 -5.7429
  106OSM   C17F10888   3.674   6.084   8.559  0.0274  0.1061 -0.0511
  106OSM   H17F10889   3.668   6.194   8.566 -0.6423  0.0922 -0.2476
  106OSM   H17G10890   3.571   6.045   8.579 -0.5116  0.8324 -1.3121
  106OSM   C18F10891   3.711   6.028   8.423 -0.1086  0.2573  0.4779
  106OSM   H18F10892   3.810   6.062   8.385  0.2125 -1.3795 -0.2292
  106OSM   H18G10893   3.638   6.070   8.350 -0.4863  1.2113  1.3695
  106OSM   H18H10894   3.716   5.917   8.422  0.0441  0.2642 -0.5806
  107OSM      N10895   5.776   2.116  11.177 -0.2453 -0.7052  0.3327
  107OSM    C1510896   5.865   2.125  11.297  0.0574  0.0672 -0.2423
  107OSM   H15A10897   5.957   2.071  11.282  0.9772  1.3586  0.6071
  107OSM   H15B10898   5.825   2.074  11.383 -1.2734  1.2486 -0.1136
  107OSM   H15C10899   5.889   2.228  11.318 -0.6039  0.6270 -2.0402
  107OSM    C1410900   5.736   1.972  11.172 -0.0678 -0.3428  0.1288
  107OSM   H14A10901   5.694   1.942  11.266 -1.2525 -0.4935 -0.4288
  107OSM   H14B10902   5.816   1.901  11.158  1.4663  1.3648 -0.1790
  107OSM   H14C10903   5.661   1.956  11.096  0.6233  1.6074 -1.0727
  107OSM    C1310904   5.655   2.210  11.193 -0.1590 -0.1754 -0.1484
  107OSM   H13A10905   5.687   2.314  11.193  0.6238 -0.3512  2.2559
  107OSM   H13B10906   5.606   2.192  11.287  0.6236 -1.4203  0.0449
  107OSM   H13C10907   5.592   2.195  11.107  1.7798 -5.4451 -1.0061
  107OSM    C1210908   5.853   2.147  11.047 -0.1133  0.2902  0.3580
  107OSM   H12A10909   5.946   2.093  11.050  0.6038  1.5275  1.1578
  107OSM   H12B10910   5.874   2.253  11.036 -1.2639  0.5436  0.4686
  107OSM    C1110911   5.774   2.118  10.922 -0.1082  0.4116  0.3114
  107OSM   H11A10912   5.729   2.016  10.916 -1.1508  0.9256 -1.5703
  107OSM   H11B10913   5.849   2.121  10.841 -1.1314 -0.8702 -0.7336
  107OSM      P10914   5.707   2.346  10.838 -0.2053 -0.0775 -0.0571
  107OSM    O1310915   5.610   2.449  10.876 -0.3618 -0.0416 -0.1945
  107OSM    O1410916   5.842   2.383  10.884  0.1659  0.1049  0.1335
  107OSM    O1110917   5.718   2.318  10.687  0.0868 -0.2213 -0.5444
  107OSM    O1210918   5.664   2.212  10.904 -0.3909  0.2228  0.2353
  107OSM    C1S10919   5.603   2.304  10.602 -0.0406 -0.1400 -0.2839
  107OSM    H1S10920   5.507   2.319  10.656  0.6964  1.3719  0.6611
  107OSM    H1T10921   5.594   2.201  10.561 -0.6292 -0.0032 -0.5176
  107OSM     NF10922   5.491   2.404  10.411  0.3964 -0.3738  0.0851
  107OSM    HNF10923   5.476   2.345  10.333 -2.3011 -0.1368  0.3159
  107OSM    C2S10924   5.617   2.392  10.475  0.5121 -0.1771 -0.1063
  107OSM    H2S10925   5.653   2.492  10.505 -1.7331  0.2011  1.4908
  107OSM    C3S10926   5.733   2.329  10.387  0.4964  0.3341  1.0455
  107OSM    H3S10927   5.687   2.231  10.361  1.4300 -0.8781  3.6099
  107OSM     O310928   5.859   2.310  10.454  0.3707 -0.0168  0.2123
  107OSM    HO310929   5.849   2.344  10.543  0.1348 -0.5101  0.3766
  107OSM    C4S10930   5.754   2.395  10.251 -0.2802  0.5502  0.2173
  107OSM    H4S10931   5.734   2.330  10.165 -3.5227  1.5020  0.1006
  107OSM    C5S10932   5.826   2.511  10.231  0.3437  0.2412 -0.2270
  107OSM    H5S10933   5.871   2.568  10.314 -1.4675  1.7273 -0.2162
  107OSM    C6S10934   5.856   2.587  10.106  1.0585 -0.3091  0.2637
  107OSM    H6S10935   5.965   2.599  10.088  1.6312 -1.1980  2.8299
  107OSM    H6T10936   5.821   2.690  10.126 -0.6669 -1.0085  0.9930
  107OSM    C7S10937   5.775   2.545   9.977 -0.9797 -0.2741  0.9432
  107OSM    H7S10938   5.669   2.540  10.008 -1.2228 -0.2667  0.1564
  107OSM    H7T10939   5.825   2.455   9.934  0.4608  0.4202  1.1045
  107OSM    C8S10940   5.791   2.642   9.861  0.7122  0.1698 -0.3774
  107OSM    H8S10941   5.892   2.639   9.815  0.1831 -2.4055 -1.4800
  107OSM    H8T10942   5.767   2.749   9.881  1.8548  0.8875 -2.5028
  107OSM    C9S10943   5.716   2.595   9.729 -0.2127 -0.4854  0.0291
  107OSM    H9S10944   5.618   2.649   9.727  0.3145  0.4830 -1.4562
  107OSM    H9T10945   5.697   2.486   9.724 -1.7190 -0.2069 -1.0732
  107OSM   C10S10946   5.782   2.652   9.601 -0.3958  0.3157 -0.0533
  107OSM   H10S10947   5.877   2.595   9.605 -0.4161  0.2440 -0.4941
  107OSM   H10T10948   5.801   2.760   9.621 -0.6548  0.2471  0.5603
  107OSM   C11S10949   5.678   2.624   9.482  0.4488  0.6986  0.0369
  107OSM   H11S10950   5.588   2.686   9.503 -0.8376 -1.0406 -0.1453
  107OSM   H11T10951   5.649   2.517   9.486  1.9937  0.1522 -1.7297
  107OSM   C12S10952   5.737   2.659   9.348  0.3842 -0.1396  0.6806
  107OSM   H12S10953   5.826   2.594   9.341 -0.2439 -1.0711  1.1706
  107OSM   H12T10954   5.763   2.767   9.357 -0.3482 -0.0844  2.7726
  107OSM   C13S10955   5.624   2.654   9.241 -0.4721  0.6451 -0.7564
  107OSM   H13S10956   5.543   2.725   9.267 -0.5490  0.1637  0.3678
  107OSM   H13T10957   5.580   2.552   9.251  1.9640 -0.4951 -0.8330
  107OSM   C14S10958   5.680   2.662   9.098 -0.2704 -0.1751 -0.1899
  107OSM   H14S10959   5.742   2.572   9.074  0.2578  0.3145 -0.6964
  107OSM   H14T10960   5.748   2.748   9.081 -0.0911 -0.4937 -1.1353
  107OSM   C15S10961   5.562   2.670   8.999  0.7135 -0.2443  0.2408
  107OSM   H15S10962   5.488   2.742   9.039  1.1104  0.4476 -0.2406
  107OSM   H15T10963   5.517   2.569   9.007 -2.6050  0.9513 -1.4154
  107OSM   C16S10964   5.592   2.700   8.846 -0.4267 -0.6722 -0.3429
  107OSM   H16S10965   5.672   2.631   8.810  1.7118  0.8197  1.3194
  107OSM   H16T10966   5.638   2.802   8.844 -2.7691  0.4993  1.2067
  107OSM   C17S10967   5.466   2.688   8.756 -0.5205 -0.6175  0.2873
  107OSM   H17S10968   5.491   2.728   8.655 -0.7934  2.8084  1.4376
  107OSM   H17T10969   5.385   2.761   8.779 -0.3755 -0.7281  1.1762
  107OSM   C18S10970   5.417   2.547   8.734  0.2033  0.5079  0.2853
  107OSM   H18S10971   5.497   2.489   8.682  1.2565 -0.5250  2.8754
  107OSM   H18T10972   5.327   2.537   8.671 -0.0030 -2.2927  0.9083
  107OSM   H18U10973   5.391   2.496   8.829 -1.6068 -0.0509 -0.4731
  107OSM    C1F10974   5.398   2.485  10.455  0.3257  0.1425 -0.1677
  107OSM     OF10975   5.415   2.549  10.557 -0.5677 -0.4830  0.3476
  107OSM    C2F10976   5.268   2.499  10.382 -0.0691 -0.2655  0.2184
  107OSM    H2F10977   5.268   2.425  10.299 -3.3924 -0.6738  0.4663
  107OSM    H2G10978   5.256   2.601  10.339  0.8735 -0.6895 -1.1154
  107OSM    C3F10979   5.143   2.475  10.472 -0.4909 -0.0521 -0.1847
  107OSM    H3F10980   5.126   2.537  10.563  0.5161 -2.0472  1.4781
  107OSM    H3G10981   5.168   2.373  10.509  0.1005 -1.3346 -3.7401
  107OSM    C4F10982   5.007   2.455  10.397 -0.5890 -0.4657  0.7591
  107OSM    H4F10983   4.986   2.550  10.341 -0.4918 -2.7679 -3.6489
  107OSM    H4G10984   4.928   2.430  10.471 -0.9496 -2.8173 -0.3340
  107OSM    C5F10985   4.994   2.339  10.291 -1.0226 -0.1595  0.3733
  107OSM    H5F10986   5.036   2.245  10.334 -0.5823 -0.9423 -1.6478
  107OSM    H5G10987   5.063   2.375  10.213  0.4791 -0.1971  1.6319
  107OSM    C6F10988   4.850   2.296  10.249 -0.6000  0.4325  0.0225
  107OSM    H6F10989   4.789   2.387  10.228 -0.5697  0.5762  0.5357
  107OSM    H6G10990   4.812   2.241  10.338  1.1378 -1.1974 -0.1902
  107OSM    C7F10991   4.845   2.205  10.128 -0.3926  0.7562  0.2727
  107OSM    H7F10992   4.914   2.118  10.132 -2.7278 -1.1930  0.7179
  107OSM    H7G10993   4.893   2.254  10.041  1.0999 -1.1058 -0.0469
  107OSM    C8F10994   4.698   2.156  10.106  0.2656  0.4477  0.3427
  107OSM    H8F10995   4.657   2.120  10.203  0.5154 -1.4206 -0.2036
  107OSM    H8G10996   4.714   2.061  10.051  0.0962 -0.5382  1.9274
  107OSM    C9F10997   4.623   2.256  10.037 -0.0363  0.4148  0.1657
  107OSM    H9F10998   4.607   2.349  10.094  1.1145  0.0478  1.1271
  107OSM   C10F10999   4.573   2.244   9.914  0.5211 -0.6879  0.4441
  107OSM   H10F11000   4.522   2.334   9.875 -0.8907 -0.5505  2.4773
  107OSM   C11F11001   4.576   2.130   9.820 -1.0076 -0.6085  0.0866
  107OSM   H11F11002   4.478   2.078   9.816 -1.8551  0.6830  2.4101
  107OSM   H11G11003   4.652   2.060   9.861 -0.7027  0.3530  1.2153
  107OSM   C12F11004   4.627   2.183   9.684  0.2853  0.2802 -0.1347
  107OSM   H12F11005   4.736   2.201   9.670 -0.6635  4.0793 -5.2035
  107OSM   H12G11006   4.590   2.286   9.667 -1.5097 -0.4345 -0.7238
  107OSM   C13F11007   4.582   2.103   9.563  0.0747 -0.1159  0.1637
  107OSM   H13F11008   4.473   2.122   9.550  0.5985  3.1234 -0.3247
  107OSM   H13G11009   4.611   1.997   9.578 -2.1661 -0.4376  3.1892
  107OSM   C14F11010   4.651   2.139   9.427 -0.1410 -0.0708 -0.3847
  107OSM   H14F11011   4.762   2.139   9.431 -0.1604  0.7516  1.5970
  107OSM   H14G11012   4.628   2.247   9.415  0.5287 -0.2509 -5.0397
  107OSM   C15F11013   4.603   2.057   9.304 -0.1113 -0.1079  0.2916
  107OSM   H15F11014   4.502   2.101   9.291 -1.1196 -2.7504 -1.3978
  107OSM   H15G11015   4.581   1.950   9.323 -2.6695  0.7761  3.1042
  107OSM   C16F11016   4.704   2.065   9.180 -0.0033  0.1842 -0.5857
  107OSM   H16F11017   4.806   2.032   9.207 -0.7248 -2.2103 -0.4930
  107OSM   H16G11018   4.713   2.172   9.153 -0.7609  0.1018 -1.2211
  107OSM   C17F11019   4.643   1.975   9.072 -0.4188 -0.3127  0.1882
  107OSM   H17F11020   4.534   1.991   9.056 -0.2106 -0.1930 -1.2131
  107OSM   H17G11021   4.654   1.870   9.107  1.0904 -0.2409 -0.0071
  107OSM   C18F11022   4.709   1.997   8.931 -0.5838  0.1387  0.3007
  107OSM   H18F11023   4.815   1.968   8.941 -0.5102  0.3416  0.1158
  107OSM   H18G11024   4.692   2.101   8.895 -0.5895  0.7372  1.9712
  107OSM   H18H11025   4.667   1.922   8.859  1.0218  0.1022 -0.6403
  108OSM      N11026   2.431   5.628  10.974  0.5567 -0.4165 -0.8219
  108OSM    C1511027   2.303   5.695  11.007  0.5420 -0.6127  0.0264
  108OSM   H15A11028   2.220   5.629  10.990  1.0313 -1.8887  2.2375
  108OSM   H15B11029   2.297   5.785  10.946  0.0822 -1.2782 -0.9317
  108OSM   H15C11030   2.309   5.736  11.106  0.9761  2.1267 -1.0292
  108OSM    C1411031   2.538   5.725  11.015  0.0758  0.4153  0.3547
  108OSM   H14A11032   2.536   5.810  10.949 -3.9413  0.6061  0.4536
  108OSM   H14B11033   2.635   5.678  11.006  0.1992  0.7674 -0.1648
  108OSM   H14C11034   2.520   5.765  11.114  1.0147  1.7042  0.0310
  108OSM    C1311035   2.438   5.514  11.075 -0.1890 -0.3605  0.3119
  108OSM   H13A11036   2.441   5.550  11.176  1.2752 -1.0887  0.5485
  108OSM   H13B11037   2.525   5.453  11.056  0.9225  0.3609  2.7758
  108OSM   H13C11038   2.348   5.455  11.060 -1.1968  0.6011  2.2926
  108OSM    C1211039   2.440   5.576  10.835  0.3086  0.5128 -0.7085
  108OSM   H12A11040   2.366   5.500  10.817  2.1339 -1.3384 -0.6690
  108OSM   H12B11041   2.538   5.535  10.816 -0.3812 -1.6997  0.1961
  108OSM    C1111042   2.420   5.691  10.722  0.1469  0.0200 -0.3741
  108OSM   H11A11043   2.429   5.642  10.623  0.0366  0.2831 -0.5158
  108OSM   H11B11044   2.509   5.757  10.728  0.9730 -1.0502 -0.7197
  108OSM      P11045   2.170   5.725  10.664 -0.0907 -0.2356  0.3268
  108OSM    O1311046   2.165   5.575  10.654 -0.4162  0.1135  0.0420
  108OSM    O1411047   2.058   5.793  10.730  0.0843 -0.6373 -0.0257
  108OSM    O1111048   2.167   5.769  10.512  0.8648 -0.0025  0.3812
  108OSM    O1211049   2.302   5.779  10.720 -0.2576 -0.4412 -0.1635
  108OSM    C1S11050   2.271   5.846  10.459 -1.0783 -1.2431 -0.5269
  108OSM    H1S11051   2.364   5.784  10.464 -1.0439 -1.0863  1.1576
  108OSM    H1T11052   2.295   5.933  10.523 -0.8202 -0.6968 -1.3457
  108OSM     NF11053   2.376   5.931  10.243  0.2451  0.3391  0.1805
  108OSM    HNF11054   2.381   6.030  10.234  1.9186  0.2003 -0.8144
  108OSM    C2S11055   2.253   5.877  10.308  0.2672  0.6170 -0.0919
  108OSM    H2S11056   2.228   5.777  10.267  1.6090 -0.6674  2.0310
  108OSM    C3S11057   2.129   5.970  10.289  0.3299 -0.8466  0.5759
  108OSM    H3S11058   2.167   6.074  10.295  0.5506 -0.9917  2.2250
  108OSM     O311059   2.028   5.954  10.388 -0.3899  0.5584  0.2685
  108OSM    HO311060   2.063   5.891  10.451  1.7706  0.2313 -1.1415
  108OSM    C4S11061   2.059   5.965  10.151  0.0878 -1.1554  0.1616
  108OSM    H4S11062   2.002   5.873  10.133 -1.0336 -0.1039 -1.9816
  108OSM    C5S11063   2.063   6.054  10.046 -0.0537 -0.3229 -0.1749
  108OSM    H5S11064   2.121   6.148  10.045 -0.8005  0.1653 -2.4499
  108OSM    C6S11065   1.989   6.030   9.914  0.4579 -0.2867 -0.5802
  108OSM    H6S11066   2.020   6.104   9.837  1.0215 -1.1814 -1.2359
  108OSM    H6T11067   1.878   6.036   9.918  0.3319 -1.6904 -1.4620
  108OSM    C7S11068   2.002   5.888   9.846 -0.9029  0.0888 -0.1655
  108OSM    H7S11069   1.957   5.811   9.912  0.5966  1.5390  2.7636
  108OSM    H7T11070   2.111   5.869   9.835 -0.6867  0.7414  0.6725
  108OSM    C8S11071   1.939   5.884   9.705 -0.4363 -0.1899 -0.0760
  108OSM    H8S11072   1.969   5.973   9.646  2.0310  0.1372  1.5003
  108OSM    H8T11073   1.828   5.876   9.709 -0.3832 -1.3077 -0.3881
  108OSM    C9S11074   1.993   5.757   9.636  0.6345 -0.2504 -0.3169
  108OSM    H9S11075   2.018   5.674   9.705  1.9265 -0.4628 -1.0000
  108OSM    H9T11076   2.087   5.774   9.578 -0.2055 -0.7157 -1.8869
  108OSM   C10S11077   1.901   5.697   9.534  0.5445  0.6811 -0.5069
  108OSM   H10S11078   1.798   5.687   9.574  0.8327 -0.3294  0.0014
  108OSM   H10T11079   1.945   5.599   9.509 -0.5517  0.0264  0.0654
  108OSM   C11S11080   1.883   5.775   9.406 -0.5349  0.1758 -0.0224
  108OSM   H11S11081   1.981   5.781   9.356 -1.1378 -2.3490 -1.6537
  108OSM   H11T11082   1.832   5.874   9.416  0.9994  0.9939 -0.0395
  108OSM   C12S11083   1.784   5.700   9.305 -1.2032 -0.6448 -0.2449
  108OSM   H12S11084   1.753   5.771   9.226  2.7314  1.1718 -0.3748
  108OSM   H12T11085   1.707   5.657   9.372  0.2418 -2.3496  0.4057
  108OSM   C13S11086   1.854   5.599   9.218  0.0639  0.4584 -0.2307
  108OSM   H13S11087   1.871   5.508   9.279  1.5104 -0.6120 -2.1120
  108OSM   H13T11088   1.946   5.643   9.173  1.7081 -0.6680  1.8649
  108OSM   C14S11089   1.757   5.547   9.105 -0.6059 -0.5502  0.0016
  108OSM   H14S11090   1.754   5.610   9.014  1.0480 -2.9687 -1.8996
  108OSM   H14T11091   1.659   5.569   9.151  0.2007  0.0995  1.5091
  108OSM   C15S11092   1.776   5.402   9.068 -0.3419 -0.2974 -0.3611
  108OSM   H15S11093   1.688   5.363   9.013 -0.6517  1.8803 -1.5036
  108OSM   H15T11094   1.776   5.337   9.158 -0.7761 -2.7332 -2.0201
  108OSM   C16S11095   1.889   5.366   8.976 -0.0535  0.5242 -0.2086
  108OSM   H16S11096   1.979   5.418   9.015 -1.0243  3.0367 -1.0761
  108OSM   H16T11097   1.870   5.416   8.879  1.2708  0.3001 -0.6031
  108OSM   C17S11098   1.911   5.219   8.964 -0.1125 -0.1071  0.1731
  108OSM   H17S11099   1.822   5.164   8.927  0.3173 -1.4684  1.0963
  108OSM   H17T11100   1.935   5.184   9.066 -2.4141  3.5787  2.1919
  108OSM   C18S11101   2.032   5.189   8.866  0.4718 -0.1889 -0.4532
  108OSM   H18S11102   2.006   5.230   8.766 -0.5528 -2.1909 -1.0484
  108OSM   H18T11103   2.052   5.080   8.855  0.8059 -0.2661  0.8109
  108OSM   H18U11104   2.128   5.232   8.902  0.4781 -0.6312  0.0639
  108OSM    C1F11105   2.479   5.854  10.217  0.7918  0.1963 -0.2497
  108OSM     OF11106   2.471   5.736  10.230 -0.1876 -0.4005 -0.0092
  108OSM    C2F11107   2.597   5.918  10.145 -0.2187 -0.4381 -0.3230
  108OSM    H2F11108   2.687   5.901  10.207 -0.0190  1.1475 -0.1262
  108OSM    H2G11109   2.582   6.028  10.146  0.0306 -0.4063  0.3558
  108OSM    C3F11110   2.622   5.861  10.005  0.8430  0.1740 -0.3670
  108OSM    H3F11111   2.634   5.751  10.013  1.7707  0.3199  0.5860
  108OSM    H3G11112   2.714   5.900   9.955  0.7609  0.0112 -0.6495
  108OSM    C4F11113   2.503   5.898   9.912  0.6714 -0.7021  0.5703
  108OSM    H4F11114   2.490   6.006   9.935  1.8190 -0.3605 -0.2453
  108OSM    H4G11115   2.409   5.847   9.940 -0.1601  0.2827 -0.3392
  108OSM    C5F11116   2.532   5.865   9.771  0.8299  0.5838  0.4286
  108OSM    H5F11117   2.542   5.755   9.773 -0.5457  0.4547  1.8870
  108OSM    H5G11118   2.625   5.916   9.737  1.5240 -1.7904 -1.4189
  108OSM    C6F11119   2.420   5.905   9.671 -0.7681  0.1546 -0.0115
  108OSM    H6F11120   2.412   6.016   9.662 -0.6522  0.0397 -2.3050
  108OSM    H6G11121   2.325   5.852   9.692 -0.9577 -0.3728 -1.9747
  108OSM    C7F11122   2.454   5.858   9.525  1.0544  0.1216 -0.3182
  108OSM    H7F11123   2.463   5.748   9.513  2.2917  0.1827 -0.0303
  108OSM    H7G11124   2.556   5.900   9.516  1.3666 -0.6317 -0.3332
  108OSM    C8F11125   2.357   5.898   9.421 -0.3891  0.3361  0.2697
  108OSM    H8F11126   2.319   6.003   9.419  0.7315  0.8292 -3.1755
  108OSM    H8G11127   2.262   5.843   9.438 -1.1335  2.2501  3.0522
  108OSM    C9F11128   2.415   5.877   9.281  0.3093  0.5165 -0.1716
  108OSM    H9F11129   2.509   5.932   9.266 -0.2987  1.9950  1.1209
  108OSM   C10F11130   2.377   5.789   9.186 -0.1864 -0.4742  0.1703
  108OSM   H10F11131   2.433   5.795   9.091 -0.2729 -0.2100  0.1333
  108OSM   C11F11132   2.258   5.689   9.200  0.1335 -0.1389  0.2142
  108OSM   H11F11133   2.195   5.684   9.109 -1.0397  0.3263  0.9740
  108OSM   H11G11134   2.184   5.725   9.276  0.1604  1.4610 -0.4706
  108OSM   C12F11135   2.309   5.545   9.235 -0.1076 -0.0204 -0.2547
  108OSM   H12F11136   2.387   5.559   9.313  0.7687 -2.4709 -0.5790
  108OSM   H12G11137   2.356   5.508   9.142  3.4721  0.5741  1.1412
  108OSM   C13F11138   2.192   5.458   9.283 -0.0219  0.7167  0.6157
  108OSM   H13F11139   2.122   5.431   9.202  0.1672 -2.5478  1.4027
  108OSM   H13G11140   2.137   5.517   9.359  0.1191  1.0581  0.4556
  108OSM   C14F11141   2.235   5.330   9.351 -0.3443 -0.2010  0.8415
  108OSM   H14F11142   2.311   5.284   9.284  0.6050  2.2823  0.0793
  108OSM   H14G11143   2.144   5.269   9.371 -0.2992 -0.0325  1.5645
  108OSM   C15F11144   2.308   5.348   9.485 -0.5701  0.1522  0.0174
  108OSM   H15F11145   2.381   5.431   9.476  0.0004 -0.3607 -0.1729
  108OSM   H15G11146   2.366   5.256   9.505 -1.2717 -0.0632  1.1900
  108OSM   C16F11147   2.216   5.382   9.609 -0.0961 -0.2354  0.4428
  108OSM   H16F11148   2.141   5.301   9.614 -1.3309  0.8583  0.3488
  108OSM   H16G11149   2.155   5.475   9.598 -1.5826 -1.3337 -1.0228
  108OSM   C17F11150   2.303   5.407   9.726 -0.0086 -0.4195  0.1922
  108OSM   H17F11151   2.381   5.328   9.724 -0.5532 -0.9716  0.2645
  108OSM   H17G11152   2.239   5.395   9.816  2.0004 -0.8823  1.6261
  108OSM   C18F11153   2.366   5.543   9.725 -0.2393 -0.5645 -0.2841
  108OSM   H18F11154   2.290   5.620   9.701 -0.7227 -1.6379 -2.3796
  108OSM   H18G11155   2.434   5.547   9.638 -0.8470  0.2180 -0.7313
  108OSM   H18H11156   2.429   5.565   9.814  1.8914 -1.2972 -1.5294
  109OSM      N11157   5.695   2.846  10.949  0.5304 -0.2830 -0.5287
  109OSM    C1511158   5.645   2.729  10.879  0.3514 -0.0715 -0.1017
  109OSM   H15A11159   5.575   2.749  10.800 -0.6297  0.1410  0.7936
  109OSM   H15B11160   5.593   2.666  10.951  0.5058  0.1752  0.2280
  109OSM   H15C11161   5.717   2.663  10.833 -2.3029 -2.4574 -1.1229
  109OSM    C1411162   5.576   2.935  10.982 -0.4172 -0.9139  0.4051
  109OSM   H14A11163   5.520   2.873  11.050  0.3808 -1.1950  0.8170
  109OSM   H14B11164   5.522   2.963  10.893  1.0980  0.6800 -0.0932
  109OSM   H14C11165   5.598   3.025  11.038  0.4567 -1.3913  0.8394
  109OSM    C1311166   5.760   2.793  11.077 -0.1165  0.0941 -0.3939
  109OSM   H13A11167   5.749   2.869  11.153 -1.5764 -0.8590  0.3924
  109OSM   H13B11168   5.865   2.769  11.074 -0.1662 -0.1167 -0.4463
  109OSM   H13C11169   5.703   2.709  11.114  0.7667 -0.1172  0.5335
  109OSM    C1211170   5.803   2.925  10.876 -0.7256 -0.9085  0.4081
  109OSM   H12A11171   5.839   3.005  10.938  3.7077 -3.3156  1.3361
  109OSM   H12B11172   5.768   2.969  10.784 -1.5278 -0.8427  0.7319
  109OSM    C1111173   5.939   2.854  10.841 -0.1347  0.2204 -0.1382
  109OSM   H11A11174   5.985   2.903  10.753 -0.1681 -1.5430 -1.1834
  109OSM   H11B11175   5.905   2.758  10.796 -0.4338 -0.7264  2.0053
  109OSM      P11176   6.185   2.801  10.925  0.1227  0.4557  0.4381
  109OSM    O1311177   6.253   2.806  11.057  0.3057 -0.3300 -0.6506
  109OSM    O1411178   6.190   2.673  10.846  0.3581 -0.0125  0.3124
  109OSM    O1111179   6.237   2.924  10.839 -0.2328 -0.3238 -0.0284
  109OSM    O1211180   6.029   2.836  10.952 -0.4063 -0.0030 -0.0561
  109OSM    C1S11181   6.366   2.905  10.782 -0.2897 -0.6507 -0.3667
  109OSM    H1S11182   6.434   2.849  10.850 -0.5740 -0.6653 -0.0961
  109OSM    H1T11183   6.398   3.011  10.773 -2.2000  0.0515  0.7757
  109OSM     NF11184   6.522   2.856  10.601 -0.1268  0.1213  0.4683
  109OSM    HNF11185   6.534   2.920  10.525 -1.7942  0.1533  0.2032
  109OSM    C2S11186   6.384   2.839  10.640 -0.7167  0.7242  0.5238
  109OSM    H2S11187   6.371   2.731  10.663  2.3860  0.5946  2.1851
  109OSM    C3S11188   6.291   2.893  10.532 -0.0070 -0.3780  0.0048
  109OSM    H3S11189   6.317   2.997  10.500 -1.3640 -0.3542 -1.1411
  109OSM     O311190   6.161   2.921  10.583  0.0788  0.0193 -0.4093
  109OSM    HO311191   6.174   2.942  10.676 -0.1978 -1.7511  0.0620
  109OSM    C4S11192   6.284   2.800  10.413  1.0422  0.6265 -0.2230
  109OSM    H4S11193   6.242   2.700  10.429  3.7690 -0.3881  1.0507
  109OSM    C5S11194   6.313   2.836  10.284  0.0255 -0.4120  0.1014
  109OSM    H5S11195   6.355   2.936  10.266  0.5414 -0.0867  2.6507
  109OSM    C6S11196   6.311   2.740  10.172  0.3399  0.3591  0.3155
  109OSM    H6S11197   6.259   2.644  10.196  0.6337  0.1754  0.2153
  109OSM    H6T11198   6.411   2.719  10.129 -0.1680  1.1384 -1.3136
  109OSM    C7S11199   6.229   2.795  10.055  0.6753  0.2165 -0.0652
  109OSM    H7S11200   6.281   2.891  10.032  1.8007 -0.5593 -0.9058
  109OSM    H7T11201   6.127   2.818  10.091  0.8191  0.2743  0.3069
  109OSM    C8S11202   6.226   2.694   9.936 -0.2473  0.6705 -0.8262
  109OSM    H8S11203   6.187   2.600   9.979  0.5493  0.7901  0.1862
  109OSM    H8T11204   6.331   2.667   9.916 -0.6570 -1.4244 -0.3368
  109OSM    C9S11205   6.156   2.752   9.810 -0.2859  0.8957  0.4866
  109OSM    H9S11206   6.212   2.848   9.797  0.9388  0.2756  0.9812
  109OSM    H9T11207   6.049   2.778   9.824 -0.9758  0.3948 -2.9087
  109OSM   C10S11208   6.167   2.656   9.684 -0.6666 -1.1762 -0.0850
  109OSM   H10S11209   6.093   2.581   9.719  0.7542 -2.0832  1.0712
  109OSM   H10T11210   6.272   2.622   9.678 -0.4542 -0.5307 -0.1340
  109OSM   C11S11211   6.125   2.724   9.552 -0.9125 -0.2393  0.4301
  109OSM   H11S11212   6.183   2.818   9.540 -1.3087 -0.1088 -0.5076
  109OSM   H11T11213   6.027   2.769   9.580 -0.6318  0.1027  0.8792
  109OSM   C12S11214   6.141   2.665   9.417  0.0197 -0.0849  0.6349
  109OSM   H12S11215   6.091   2.565   9.411 -0.0906 -0.1266  1.9173
  109OSM   H12T11216   6.249   2.655   9.391 -0.1486  1.2244 -0.6605
  109OSM   C13S11217   6.103   2.760   9.297 -0.3526 -0.0946  0.1885
  109OSM   H13S11218   6.148   2.861   9.292 -2.2828  0.8256  0.7447
  109OSM   H13T11219   5.993   2.772   9.295 -0.3791 -0.4345 -0.5620
  109OSM   C14S11220   6.148   2.700   9.163  0.1091  0.0497 -0.1058
  109OSM   H14S11221   6.087   2.608   9.151 -1.4570  1.3078 -2.9551
  109OSM   H14T11222   6.255   2.675   9.156  0.0747  0.2462 -1.7322
  109OSM   C15S11223   6.098   2.784   9.051  0.7671  0.0710 -0.1236
  109OSM   H15S11224   6.151   2.879   9.030  1.2204 -0.0379  0.4909
  109OSM   H15T11225   5.988   2.801   9.055  0.5548 -1.2361  0.1752
  109OSM   C16S11226   6.115   2.702   8.918  0.0841 -0.3282 -0.4998
  109OSM   H16S11227   6.029   2.631   8.926 -1.9310  2.1938  3.2669
  109OSM   H16T11228   6.216   2.657   8.922  0.0247 -0.5222 -1.0704
  109OSM   C17S11229   6.095   2.783   8.790  0.1864 -0.2481 -0.2337
  109OSM   H17S11230   6.096   2.724   8.696  0.4739  0.3553 -0.6152
  109OSM   H17T11231   6.181   2.854   8.793 -0.7409  1.0167 -1.8731
  109OSM   C18S11232   5.971   2.870   8.778 -0.9709 -0.0124  0.2722
  109OSM   H18S11233   5.982   2.955   8.847 -3.1345  0.9016 -0.4300
  109OSM   H18T11234   5.884   2.816   8.821 -2.1791  1.8325  0.2176
  109OSM   H18U11235   5.944   2.901   8.675  0.2097 -2.1020 -0.7423
  109OSM    C1F11236   6.638   2.808  10.647  0.1846  0.5223 -0.4643
  109OSM     OF11237   6.633   2.703  10.711 -0.1101 -0.7461  0.3235
  109OSM    C2F11238   6.768   2.882  10.619  0.1868  1.0818 -0.1445
  109OSM    H2F11239   6.776   2.944  10.711 -0.8756  0.4600  0.3860
  109OSM    H2G11240   6.748   2.939  10.526  1.1734  0.8828 -0.4866
  109OSM    C3F11241   6.884   2.780  10.616  0.0190  0.4228  0.3769
  109OSM    H3F11242   6.904   2.734  10.715  0.8310  0.4301  0.2243
  109OSM    H3G11243   6.976   2.840  10.598  2.2032 -1.9798  2.7005
  109OSM    C4F11244   6.874   2.675  10.504  0.1319 -0.1842  0.1934
  109OSM    H4F11245   6.776   2.624  10.508 -0.0194 -0.1592 -1.9246
  109OSM    H4G11246   6.957   2.603  10.521  0.9247 -0.1467 -2.7888
  109OSM    C5F11247   6.897   2.724  10.352 -1.0753  0.2282 -0.2414
  109OSM    H5F11248   6.951   2.639  10.304  0.9338  1.3278 -0.0299
  109OSM    H5G11249   6.960   2.814  10.340 -0.2836 -0.2856 -0.0097
  109OSM    C6F11250   6.776   2.721  10.278 -0.1883 -1.0526  0.0293
  109OSM    H6F11251   6.724   2.816  10.304  1.6875 -0.0245  0.2381
  109OSM    H6G11252   6.702   2.639  10.293 -2.2947  0.2990 -2.2023
  109OSM    C7F11253   6.794   2.729  10.128  0.1661 -0.5439 -0.0021
  109OSM    H7F11254   6.852   2.643  10.090 -0.4495 -0.3204 -1.5248
  109OSM    H7G11255   6.862   2.817  10.125  1.4852 -1.5549 -0.4436
  109OSM    C8F11256   6.668   2.758  10.059  0.1254  0.6119  0.5494
  109OSM    H8F11257   6.612   2.836  10.114 -1.1867  0.6757 -0.8041
  109OSM    H8G11258   6.594   2.675  10.051  0.3376  0.6184 -3.3944
  109OSM    C9F11259   6.698   2.813   9.917 -0.2615  0.3191  0.0271
  109OSM    H9F11260   6.742   2.914   9.919  0.8210 -0.1293 -0.3448
  109OSM   C10F11261   6.674   2.744   9.803 -0.1103  0.1210  0.2553
  109OSM   H10F11262   6.699   2.806   9.715  0.0966  2.0342  1.6105
  109OSM   C11F11263   6.629   2.601   9.783 -0.0071  0.3077  0.2097
  109OSM   H11F11264   6.518   2.607   9.788  0.0076 -0.1359  4.7877
  109OSM   H11G11265   6.657   2.552   9.879 -1.3567  1.0831  1.0283
  109OSM   C12F11266   6.692   2.543   9.658 -0.1211 -0.0813 -0.2717
  109OSM   H12F11267   6.628   2.457   9.629 -1.5436  1.4681 -1.9550
  109OSM   H12G11268   6.799   2.517   9.671  0.0203  0.6827  0.1743
  109OSM   C13F11269   6.666   2.631   9.535  0.5742 -0.2871 -0.3214
  109OSM   H13F11270   6.736   2.717   9.534  0.5091 -0.2054  0.6750
  109OSM   H13G11271   6.575   2.692   9.553  0.6574  0.4450 -2.2047
  109OSM   C14F11272   6.650   2.552   9.409  0.4472  0.4962  0.2944
  109OSM   H14F11273   6.574   2.472   9.424  1.1273 -0.1799  0.2150
  109OSM   H14G11274   6.747   2.500   9.392 -0.0255 -1.4488  2.9539
  109OSM   C15F11275   6.608   2.648   9.297 -0.1812 -0.6665 -0.3111
  109OSM   H15F11276   6.689   2.719   9.274  0.3753 -1.5610 -1.1625
  109OSM   H15G11277   6.516   2.696   9.338 -1.9417 -3.4122 -0.7513
  109OSM   C16F11278   6.572   2.592   9.157  0.1580  0.5159 -0.5598
  109OSM   H16F11279   6.560   2.677   9.086 -0.6067  0.2131 -0.8037
  109OSM   H16G11280   6.474   2.540   9.151  0.6093 -0.4978  0.5462
  109OSM   C17F11281   6.682   2.500   9.107 -0.5898 -0.2559  0.7692
  109OSM   H17F11282   6.691   2.403   9.161  4.0280 -2.1439 -2.6581
  109OSM   H17G11283   6.782   2.548   9.106 -0.0065 -1.4161  0.1831
  109OSM   C18F11284   6.662   2.471   8.954  0.2094 -0.1019  0.6781
  109OSM   H18F11285   6.685   2.567   8.903  1.3570  0.1092  1.5548
  109OSM   H18G11286   6.562   2.432   8.927  0.4372  0.6426 -1.5002
  109OSM   H18H11287   6.732   2.390   8.924  0.7748  0.8339 -0.6633
  110OSM      N11288   2.349   3.111  10.876  0.1219  0.1260  0.7133
  110OSM    C1511289   2.218   3.063  10.815 -0.0866  0.3367  0.6139
  110OSM   H15A11290   2.189   3.122  10.729  2.0419  1.5762  0.6927
  110OSM   H15B11291   2.139   3.077  10.887 -0.2389  0.9999  0.3305
  110OSM   H15C11292   2.223   2.956  10.799 -1.8987 -0.0900  2.4399
  110OSM    C1411293   2.390   3.039  11.002  0.3307 -0.4206 -0.1456
  110OSM   H14A11294   2.332   3.084  11.081 -0.4293  2.0592 -1.9771
  110OSM   H14B11295   2.494   3.052  11.025  0.0704  1.6052  0.0491
  110OSM   H14C11296   2.355   2.937  10.993  0.7092 -0.4590 -1.5319
  110OSM    C1311297   2.458   3.097  10.773 -0.5086  0.3295  0.2891
  110OSM   H13A11298   2.552   3.131  10.816 -0.5694  2.5603 -1.1746
  110OSM   H13B11299   2.445   3.162  10.688 -0.6202 -0.1721 -0.0850
  110OSM   H13C11300   2.470   2.996  10.736  0.3006 -0.2108  1.9238
  110OSM    C1211301   2.337   3.261  10.905 -0.3979 -0.2070  0.5347
  110OSM   H12A11302   2.325   3.310  10.809  0.0514 -1.5735 -0.2461
  110OSM   H12B11303   2.429   3.301  10.945  1.5872 -2.2015 -1.6838
  110OSM    C1111304   2.212   3.307  10.979 -0.6639 -0.4998 -0.1157
  110OSM   H11A11305   2.183   3.249  11.069  0.8575  0.6948  1.1984
  110OSM   H11B11306   2.129   3.295  10.906 -2.4697  0.6891  1.6490
  110OSM      P11307   2.124   3.541  11.040 -0.1395 -0.2339  0.1542
  110OSM    O1311308   2.023   3.473  11.123 -0.3202  0.2267  0.1058
  110OSM    O1411309   2.187   3.665  11.088  0.3968 -0.1725 -0.1855
  110OSM    O1111310   2.062   3.574  10.899 -0.3790  0.0643  0.6816
  110OSM    O1211311   2.242   3.442  11.009 -0.1549  0.4945  0.4983
  110OSM    C1S11312   2.119   3.680  10.822  0.5141  0.0288 -0.2322
  110OSM    H1S11313   2.230   3.683  10.830  0.5093 -2.5844  2.4155
  110OSM    H1T11314   2.080   3.781  10.848  0.6376  0.7813 -2.6701
  110OSM     NF11315   2.142   3.781  10.590  0.3117  0.2248 -0.3053
  110OSM    HNF11316   2.092   3.852  10.542  0.4969  1.9408  1.8696
  110OSM    C2S11317   2.075   3.676  10.673  0.5949 -0.5079  0.1346
  110OSM    H2S11318   2.101   3.576  10.632 -2.2006 -0.4207 -2.0822
  110OSM    C3S11319   1.915   3.680  10.660 -0.2625  0.2224  0.1603
  110OSM    H3S11320   1.892   3.784  10.693  2.2644  1.0601 -0.4534
  110OSM     O311321   1.844   3.589  10.749  0.1886  0.2739 -0.1087
  110OSM    HO311322   1.916   3.567  10.810 -1.3434 -1.9074  1.0600
  110OSM    C4S11323   1.871   3.658  10.517 -0.0292 -0.5297 -0.3792
  110OSM    H4S11324   1.838   3.751  10.469 -3.3628 -2.1949 -1.5544
  110OSM    C5S11325   1.852   3.548  10.452  0.4491 -0.1420 -0.4177
  110OSM    H5S11326   1.847   3.450  10.501 -2.9503  0.9911  1.8600
  110OSM    C6S11327   1.810   3.540  10.308 -0.4794  0.2655  0.3779
  110OSM    H6S11328   1.699   3.547  10.304 -0.4610 -0.0088 -2.3171
  110OSM    H6T11329   1.839   3.439  10.271  0.3886 -0.2753  2.3701
  110OSM    C7S11330   1.870   3.622  10.191  0.0948 -1.5854 -0.5709
  110OSM    H7S11331   1.980   3.605  10.180 -0.3866 -3.3399 -5.9123
  110OSM    H7T11332   1.856   3.728  10.221  1.3490 -1.8246  1.0040
  110OSM    C8S11333   1.803   3.580  10.060  0.2592 -0.1730 -0.0931
  110OSM    H8S11334   1.694   3.569  10.077  0.1642 -1.2160 -1.2108
  110OSM    H8T11335   1.829   3.472  10.047 -1.1055 -0.9990  3.1029
  110OSM    C9S11336   1.847   3.657   9.932 -0.0218 -0.0208 -0.3057
  110OSM    H9S11337   1.957   3.641   9.926  0.1565 -0.5447  2.6600
  110OSM    H9T11338   1.820   3.765   9.937 -2.2940 -0.5280 -0.4381
  110OSM   C10S11339   1.782   3.588   9.815 -0.1368  0.2372 -0.1380
  110OSM   H10S11340   1.672   3.580   9.828 -0.0173  0.1669  0.8904
  110OSM   H10T11341   1.814   3.482   9.799 -0.5998  0.2804 -1.4875
  110OSM   C11S11342   1.820   3.647   9.682 -0.0588 -0.2566 -0.5877
  110OSM   H11S11343   1.930   3.663   9.674  0.0830  0.2278  1.6340
  110OSM   H11T11344   1.783   3.752   9.676  3.5513  1.3087  1.2444
  110OSM   C12S11345   1.764   3.586   9.556  0.7091 -0.0583  0.9057
  110OSM   H12S11346   1.657   3.569   9.580  0.3069 -0.4631 -0.9986
  110OSM   H12T11347   1.797   3.482   9.534  0.4523  0.4264 -2.1633
  110OSM   C13S11348   1.797   3.670   9.436 -0.1255  0.1600 -0.0377
  110OSM   H13S11349   1.906   3.688   9.441  0.1578 -1.3870 -0.1237
  110OSM   H13T11350   1.742   3.767   9.437 -1.5897 -0.5858 -1.9673
  110OSM   C14S11351   1.759   3.605   9.300  0.3849 -0.0633 -0.2109
  110OSM   H14S11352   1.654   3.571   9.299  1.1464 -2.8127 -2.6587
  110OSM   H14T11353   1.822   3.514   9.286  0.7038 -0.0930  1.3138
  110OSM   C15S11354   1.786   3.708   9.190 -0.1656 -0.2142  0.5753
  110OSM   H15S11355   1.896   3.722   9.201 -0.2995  0.2637  1.3794
  110OSM   H15T11356   1.744   3.809   9.208  4.3382  1.5284  3.1964
  110OSM   C16S11357   1.759   3.651   9.046  0.6197  0.6126  0.9886
  110OSM   H16S11358   1.662   3.597   9.047  1.2010 -0.4665  2.2977
  110OSM   H16T11359   1.830   3.567   9.029 -2.2282 -1.8423  0.5188
  110OSM   C17S11360   1.772   3.760   8.939 -0.0248  0.2105 -0.0863
  110OSM   H17S11361   1.690   3.833   8.955 -1.3533 -0.2186 -3.8529
  110OSM   H17T11362   1.749   3.707   8.844 -1.6369 -2.5481  1.6778
  110OSM   C18S11363   1.901   3.828   8.936  0.5590 -0.9606 -0.0161
  110OSM   H18S11364   1.908   3.897   8.849  1.8094 -0.6281  0.3203
  110OSM   H18T11365   1.989   3.761   8.920  0.3521 -0.7500 -2.3881
  110OSM   H18U11366   1.908   3.893   9.025  0.8341  0.9617 -1.3722
  110OSM    C1F11367   2.279   3.776  10.577  0.1709 -0.1540  0.6054
  110OSM     OF11368   2.351   3.680  10.618 -0.1476 -0.2046 -0.2669
  110OSM    C2F11369   2.336   3.888  10.502  0.9869 -0.6459 -0.0456
  110OSM    H2F11370   2.331   3.976  10.569 -3.8625 -1.7836  1.4362
  110OSM    H2G11371   2.274   3.916  10.414 -0.8280 -0.4096  1.2633
  110OSM    C3F11372   2.480   3.851  10.436  0.2372 -0.4332  0.2119
  110OSM    H3F11373   2.543   3.795  10.508  0.1228 -0.9311 -0.0690
  110OSM    H3G11374   2.537   3.941  10.406 -0.6168 -0.0773 -0.3796
  110OSM    C4F11375   2.465   3.748  10.321 -0.1203  0.0327  0.3771
  110OSM    H4F11376   2.443   3.793  10.222  1.3218 -0.5991 -0.2525
  110OSM    H4G11377   2.392   3.669  10.349  0.0835  0.5724  2.6361
  110OSM    C5F11378   2.606   3.693  10.293 -0.1045  0.3524  0.5690
  110OSM    H5F11379   2.639   3.637  10.383 -1.7534  0.9272  1.5885
  110OSM    H5G11380   2.677   3.777  10.280 -0.4835  0.4573 -0.9626
  110OSM    C6F11381   2.624   3.606  10.163 -0.0457  0.2211 -0.6999
  110OSM    H6F11382   2.523   3.606  10.117 -1.8719 -2.1335  2.7968
  110OSM    H6G11383   2.651   3.501  10.187 -2.8191 -0.3660  0.1794
  110OSM    C7F11384   2.738   3.652  10.067  0.1405 -0.6733  1.1686
  110OSM    H7F11385   2.837   3.628  10.110  0.4820  1.2175  1.5225
  110OSM    H7G11386   2.742   3.762  10.078 -2.7290 -0.2918 -0.4463
  110OSM    C8F11387   2.720   3.610   9.915  0.3081  0.3106 -0.5037
  110OSM    H8F11388   2.784   3.681   9.858  0.3858 -0.5228 -1.4801
  110OSM    H8G11389   2.615   3.638   9.895  0.6663  2.5205  0.4870
  110OSM    C9F11390   2.742   3.463   9.883 -0.2946  0.3628  0.2483
  110OSM    H9F11391   2.751   3.397   9.969 -3.2448  0.9704  1.1502
  110OSM   C10F11392   2.743   3.406   9.760 -0.0372 -0.1008 -0.2027
  110OSM   H10F11393   2.762   3.299   9.748 -1.0674 -0.0496 -2.9420
  110OSM   C11F11394   2.728   3.471   9.632 -0.8343 -0.4494  0.2500
  110OSM   H11F11395   2.728   3.582   9.623  0.9810 -0.4718 -0.3245
  110OSM   H11G11396   2.625   3.458   9.593 -0.6630  1.0729 -0.7780
  110OSM   C12F11397   2.811   3.403   9.523  0.3688 -0.1384  0.0174
  110OSM   H12F11398   2.798   3.293   9.526 -0.4793 -0.0280  1.1975
  110OSM   H12G11399   2.917   3.425   9.550  0.6233 -0.6719 -0.5251
  110OSM   C13F11400   2.786   3.453   9.382 -0.4287  0.0792  0.2140
  110OSM   H13F11401   2.810   3.560   9.366 -1.3259  0.0422 -1.7329
  110OSM   H13G11402   2.683   3.430   9.348 -0.4397  0.6118 -0.1268
  110OSM   C14F11403   2.876   3.371   9.278 -0.1671 -0.5122  0.7060
  110OSM   H14F11404   2.848   3.264   9.265 -1.4060 -0.1937  0.7167
  110OSM   H14G11405   2.982   3.364   9.313  0.0002 -0.7591  0.1562
  110OSM   C15F11406   2.891   3.460   9.154  1.4888  0.6101  0.3017
  110OSM   H15F11407   2.927   3.562   9.181 -0.8636  1.9590 -1.3119
  110OSM   H15G11408   2.792   3.455   9.104  1.8323  0.2120 -0.3544
  110OSM   C16F11409   2.983   3.397   9.048 -0.0148  0.1636  0.2045
  110OSM   H16F11410   3.086   3.383   9.086  0.8038 -0.9638 -2.2528
  110OSM   H16G11411   2.981   3.469   8.963  0.0111 -0.4488 -0.3238
  110OSM   C17F11412   2.947   3.254   9.001  0.2175  0.2234  1.2071
  110OSM   H17F11413   2.943   3.188   9.091  0.2411 -1.1610  0.2362
  110OSM   H17G11414   3.012   3.198   8.930 -3.2023 -0.8782 -1.3326
  110OSM   C18F11415   2.805   3.254   8.920 -0.5950  0.7630  0.3511
  110OSM   H18F11416   2.814   3.341   8.851  0.0542  1.8456  1.7491
  110OSM   H18G11417   2.722   3.265   8.993  0.1490  1.0242  1.1776
  110OSM   H18H11418   2.798   3.160   8.862 -0.6207  0.4093  0.9193
  111OSM      N11419   2.645   1.602  10.674  0.2970  1.0235 -0.3629
  111OSM    C1511420   2.574   1.723  10.739 -0.7586 -0.2691  0.2276
  111OSM   H15A11421   2.540   1.693  10.836  1.9312  1.7565  1.9517
  111OSM   H15B11422   2.492   1.761  10.680 -0.0454  1.0673  0.0399
  111OSM   H15C11423   2.646   1.801  10.761 -0.5247 -0.2503 -0.5654
  111OSM    C1411424   2.722   1.634  10.548  0.1752 -0.1152  0.2131
  111OSM   H14A11425   2.649   1.673  10.478 -1.0229 -2.8694 -0.2146
  111OSM   H14B11426   2.766   1.542  10.514  1.6790  0.5942  0.1572
  111OSM   H14C11427   2.796   1.706  10.579 -0.2412  0.0887  0.7608
  111OSM    C1311428   2.741   1.536  10.773  0.9231 -0.9527  0.4244
  111OSM   H13A11429   2.698   1.501  10.866 -1.8926  1.2688  0.0903
  111OSM   H13B11430   2.827   1.594  10.803 -0.6349  0.1479  3.1703
  111OSM   H13C11431   2.787   1.449  10.729 -0.4469 -2.5891  2.0399
  111OSM    C1211432   2.533   1.504  10.641  0.0865  0.3757  0.0148
  111OSM   H12A11433   2.586   1.420  10.598  0.2885  0.6724 -0.3257
  111OSM   H12B11434   2.487   1.569  10.568 -0.0732 -0.9779 -1.1410
  111OSM    C1111435   2.418   1.458  10.739 -0.2075 -0.1859 -0.3245
  111OSM   H11A11436   2.469   1.390  10.811 -2.0982 -0.5772  0.7089
  111OSM   H11B11437   2.341   1.399  10.684 -1.0812  0.5136  0.1390
  111OSM      P11438   2.208   1.611  10.796 -0.3441 -0.4675 -0.1523
  111OSM    O1311439   2.106   1.507  10.829  0.1308 -0.1817  0.1559
  111OSM    O1411440   2.197   1.748  10.842 -0.5064  0.1847  0.0774
  111OSM    O1111441   2.201   1.622  10.638  0.2335  0.1112  0.1405
  111OSM    O1211442   2.357   1.560  10.821  0.2037  0.1434 -0.1278
  111OSM    C1S11443   2.241   1.741  10.555 -0.7075  0.4953 -0.4175
  111OSM    H1S11444   2.350   1.756  10.564 -0.8214  1.5929 -0.7628
  111OSM    H1T11445   2.194   1.840  10.576  0.0437  0.4383  1.7406
  111OSM     NF11446   2.248   1.808  10.318 -0.3660 -0.0325  0.2190
  111OSM    HNF11447   2.178   1.865  10.275  0.3220 -0.7361 -1.9234
  111OSM    C2S11448   2.188   1.711  10.408 -0.4110 -0.4460 -0.3225
  111OSM    H2S11449   2.224   1.608  10.387  2.0661  0.2337  0.1929
  111OSM    C3S11450   2.035   1.702  10.406 -0.3728 -0.1490 -0.7210
  111OSM    H3S11451   1.994   1.805  10.407 -1.0583 -0.4192 -0.9927
  111OSM     O311452   1.970   1.638  10.517 -0.4024  0.5043 -0.2689
  111OSM    HO311453   2.042   1.611  10.573 -2.2819 -1.7949  1.2316
  111OSM    C4S11454   1.995   1.638  10.278 -0.1945  0.1488 -0.0532
  111OSM    H4S11455   1.968   1.712  10.201 -0.5955 -0.0027 -0.0609
  111OSM    C5S11456   1.968   1.507  10.255  0.1546  0.1049  0.2208
  111OSM    H5S11457   1.983   1.430  10.332 -3.0196 -0.7595  0.1494
  111OSM    C6S11458   1.921   1.448  10.121  0.0171  0.0255  0.0061
  111OSM    H6S11459   1.819   1.406  10.127  0.5665 -1.4478 -0.4909
  111OSM    H6T11460   1.981   1.355  10.109 -1.9969 -2.2645  4.9264
  111OSM    C7S11461   1.926   1.546   9.997  0.0856 -0.1776 -0.5167
  111OSM    H7S11462   2.027   1.591   9.990  0.5908 -0.9403  1.1808
  111OSM    H7T11463   1.851   1.628  10.008  2.0044  1.9370 -2.2695
  111OSM    C8S11464   1.911   1.477   9.861 -0.2547  0.3009  0.3279
  111OSM    H8S11465   1.832   1.401   9.878  0.1135  0.3741  2.6011
  111OSM    H8T11466   1.997   1.407   9.852 -2.4143 -2.5603  0.2014
  111OSM    C9S11467   1.908   1.573   9.746 -0.0297 -0.1165  0.7064
  111OSM    H9S11468   2.004   1.628   9.745  0.1322 -0.3651 -1.7361
  111OSM    H9T11469   1.825   1.644   9.770 -0.5707 -0.6573  0.4556
  111OSM   C10S11470   1.888   1.503   9.609 -0.4686 -0.0448  0.2181
  111OSM   H10S11471   1.789   1.453   9.611 -1.3466  1.6177 -0.1469
  111OSM   H10T11472   1.964   1.422   9.615 -1.1403 -0.5916  2.3553
  111OSM   C11S11473   1.900   1.587   9.480  0.6984  0.2520 -0.4303
  111OSM   H11S11474   1.990   1.651   9.488  1.3429 -0.8557  2.2988
  111OSM   H11T11475   1.824   1.667   9.469  0.9813  0.8894  1.7376
  111OSM   C12S11476   1.889   1.491   9.363  0.0706 -0.2749  0.3801
  111OSM   H12S11477   1.794   1.433   9.370 -0.2907  0.3258  0.5140
  111OSM   H12T11478   1.973   1.420   9.377 -0.2694 -1.4977 -2.9558
  111OSM   C13S11479   1.916   1.562   9.221  0.0842 -0.0194 -0.3463
  111OSM   H13S11480   2.016   1.611   9.221  0.0369  0.0997  0.6321
  111OSM   H13T11481   1.841   1.643   9.208 -0.5146 -0.0780  2.2455
  111OSM   C14S11482   1.918   1.467   9.100 -0.5665  0.0042 -0.0837
  111OSM   H14S11483   1.967   1.369   9.122 -0.7550 -0.4902 -1.7440
  111OSM   H14T11484   1.978   1.503   9.014  0.3253 -1.0987  0.0469
  111OSM   C15S11485   1.780   1.440   9.035 -0.0036 -0.4137  0.3375
  111OSM   H15S11486   1.717   1.528   9.009 -0.5827 -0.7031  0.7386
  111OSM   H15T11487   1.718   1.379   9.104 -0.8315  0.4941  0.4248
  111OSM   C16S11488   1.808   1.351   8.902  0.0162 -0.9976 -0.1715
  111OSM   H16S11489   1.706   1.321   8.871 -0.1258 -0.7395  0.0377
  111OSM   H16T11490   1.872   1.262   8.921  0.0761 -1.0294 -0.5167
  111OSM   C17S11491   1.871   1.437   8.785  1.0672 -0.0725 -0.1356
  111OSM   H17S11492   1.976   1.467   8.804  0.5311  0.0850  2.9964
  111OSM   H17T11493   1.812   1.531   8.786  0.6509 -0.3206 -0.5237
  111OSM   C18S11494   1.871   1.372   8.638  0.1077 -0.2826  0.1767
  111OSM   H18S11495   1.780   1.313   8.613  0.5993 -0.6538 -0.8022
  111OSM   H18T11496   1.961   1.307   8.634  2.1015  2.3485 -1.4138
  111OSM   H18U11497   1.892   1.458   8.571  1.1896  0.5961  1.5800
  111OSM    C1F11498   2.379   1.832  10.302  0.7744 -0.0089  0.8587
  111OSM     OF11499   2.457   1.748  10.323  0.1525  0.4805 -0.1936
  111OSM    C2F11500   2.405   1.966  10.243  0.5959  0.6580 -0.1571
  111OSM    H2F11501   2.419   2.037  10.327 -0.7055  0.2207  0.4630
  111OSM    H2G11502   2.315   1.994  10.183  1.1217  2.1042 -0.3097
  111OSM    C3F11503   2.537   1.961  10.159 -0.4794 -0.1856 -0.3867
  111OSM    H3F11504   2.531   1.900  10.066 -2.2376 -1.8640  0.7616
  111OSM    H3G11505   2.629   1.922  10.207  0.6762  1.1713 -1.4046
  111OSM    C4F11506   2.584   2.102  10.118  0.7883  0.2216 -0.4476
  111OSM    H4F11507   2.687   2.125  10.082  0.3283  2.7074 -0.3371
  111OSM    H4G11508   2.575   2.168  10.207 -1.0057 -0.5874  0.0140
  111OSM    C5F11509   2.499   2.158  10.006  0.0709 -0.3021 -0.4186
  111OSM    H5F11510   2.508   2.268  10.016 -2.6717  0.2752 -2.8217
  111OSM    H5G11511   2.396   2.123  10.027 -0.7630  2.3546  0.4054
  111OSM    C6F11512   2.531   2.114   9.870 -0.3749  0.2596  0.5489
  111OSM    H6F11513   2.515   2.005   9.881 -1.3355  0.1784 -1.1964
  111OSM    H6G11514   2.635   2.149   9.849  0.0497 -2.6360 -3.0812
  111OSM    C7F11515   2.442   2.186   9.767  0.0106  0.0563  0.6668
  111OSM    H7F11516   2.422   2.285   9.815  0.7767  0.4463  0.1998
  111OSM    H7G11517   2.348   2.127   9.759  0.7870 -0.9383 -2.5372
  111OSM    C8F11518   2.501   2.195   9.623 -0.1276  0.5391 -0.6021
  111OSM    H8F11519   2.537   2.092   9.602  0.3789 -0.1018  2.8501
  111OSM    H8G11520   2.582   2.271   9.619  0.0280  0.3245 -1.7804
  111OSM    C9F11521   2.388   2.238   9.529 -1.7343  0.0390 -0.1614
  111OSM    H9F11522   2.344   2.337   9.547 -0.6966  0.3622  0.6620
  111OSM   C10F11523   2.347   2.172   9.416  0.6550  0.2068  0.2324
  111OSM   H10F11524   2.263   2.204   9.352  0.1179 -1.7413 -0.1147
  111OSM   C11F11525   2.414   2.051   9.357 -0.2528  0.7289 -0.2697
  111OSM   H11F11526   2.341   1.968   9.368  2.0899 -1.6109 -1.3601
  111OSM   H11G11527   2.512   2.021   9.400 -0.1620 -0.1470 -1.0406
  111OSM   C12F11528   2.454   2.061   9.208 -0.8534 -0.2060 -0.1137
  111OSM   H12F11529   2.514   1.972   9.179  1.3200  0.4407  1.9894
  111OSM   H12G11530   2.510   2.157   9.209 -0.0791 -0.6447 -0.2717
  111OSM   C13F11531   2.339   2.066   9.108  0.6259 -0.1412 -0.0240
  111OSM   H13F11532   2.276   2.152   9.138  0.7362 -0.4463  1.1380
  111OSM   H13G11533   2.272   1.980   9.134 -2.1403  1.4401 -1.4418
  111OSM   C14F11534   2.367   2.066   8.959  0.4788  0.1329 -0.5707
  111OSM   H14F11535   2.445   2.143   8.940 -1.2414  1.6490 -1.8411
  111OSM   H14G11536   2.274   2.113   8.920  0.1041  0.9755  1.2457
  111OSM   C15F11537   2.406   1.929   8.899 -0.4421 -0.6257 -0.7922
  111OSM   H15F11538   2.476   1.882   8.971  0.7347  2.1378  0.0131
  111OSM   H15G11539   2.459   1.944   8.803  0.0636  0.0015 -0.4222
  111OSM   C16F11540   2.283   1.843   8.863 -0.0219 -0.4558  0.1648
  111OSM   H16F11541   2.233   1.833   8.962  0.7530  1.7984  0.8521
  111OSM   H16G11542   2.318   1.739   8.847 -2.1932 -1.0341 -1.2590
  111OSM   C17F11543   2.193   1.899   8.752  0.1348  0.3303  0.2073
  111OSM   H17F11544   2.265   1.904   8.668  2.2831  0.2418  1.9421
  111OSM   H17G11545   2.155   2.002   8.772 -0.2647  0.6249 -1.9151
  111OSM   C18F11546   2.076   1.813   8.709 -0.0823  0.0872 -0.0442
  111OSM   H18F11547   2.022   1.864   8.626  0.0255  0.8632  0.3552
  111OSM   H18G11548   2.003   1.805   8.792 -0.2108  1.3319 -0.0135
  111OSM   H18H11549   2.118   1.716   8.675 -0.4131  0.3312 -1.1857
  112OSM      N11550   2.892   4.472  10.746 -0.0466  0.3051 -0.0213
  112OSM    C1511551   2.915   4.355  10.651  0.0946 -0.6726 -0.1468
  112OSM   H15A11552   3.013   4.350  10.606 -0.5948 -2.3519 -1.6042
  112OSM   H15B11553   2.848   4.364  10.566  0.4279  1.9332 -0.2127
  112OSM   H15C11554   2.893   4.269  10.712 -1.4904  0.2714  0.6895
  112OSM    C1411555   2.748   4.460  10.796  0.1598 -0.6966  0.3513
  112OSM   H14A11556   2.717   4.358  10.812 -1.3374  0.0018  2.3674
  112OSM   H14B11557   2.682   4.515  10.730  2.7609  0.3798 -1.5289
  112OSM   H14C11558   2.736   4.506  10.894 -2.2085  1.6383 -0.8791
  112OSM    C1311559   2.989   4.450  10.858 -1.0338  0.2387 -0.5129
  112OSM   H13A11560   3.088   4.425  10.822 -0.1333  2.6048  0.1502
  112OSM   H13B11561   2.963   4.364  10.918  1.4950 -0.0881  0.2445
  112OSM   H13C11562   3.007   4.530  10.929  2.4298 -2.2082  1.7051
  112OSM    C1211563   2.916   4.599  10.668 -0.5212  0.3712 -0.3563
  112OSM   H12A11564   2.932   4.675  10.743 -0.4386 -1.8215  1.9945
  112OSM   H12B11565   2.824   4.627  10.619 -2.0933 -0.4539  1.9915
  112OSM    C1111566   3.028   4.606  10.561 -0.2512  0.0282 -0.0470
  112OSM   H11A11567   3.008   4.704  10.512  1.2873  0.8713  0.9205
  112OSM   H11B11568   3.004   4.519  10.498 -1.7942 -1.1217  2.0161
  112OSM      P11569   3.267   4.504  10.594  0.2378 -0.1686 -0.2951
  112OSM    O1311570   3.399   4.559  10.628  0.3020 -0.5059 -0.4213
  112OSM    O1411571   3.229   4.378  10.660  0.1480 -0.6126 -0.4976
  112OSM    O1111572   3.250   4.493  10.438  0.3344  0.5282 -0.1865
  112OSM    O1211573   3.156   4.611  10.620  0.0874  0.5710 -0.1929
  112OSM    C1S11574   3.279   4.604  10.348  0.2147 -0.6690 -0.7214
  112OSM    H1S11575   3.388   4.623  10.354  0.0624 -0.1190  2.6681
  112OSM    H1T11576   3.230   4.698  10.383  1.0223  1.1795 -4.1239
  112OSM     NF11577   3.280   4.682  10.112 -0.2521 -0.3719 -0.0380
  112OSM    HNF11578   3.202   4.721  10.064 -0.7471 -2.6600 -1.2231
  112OSM    C2S11579   3.248   4.574  10.199 -0.0107 -1.0101  0.2992
  112OSM    H2S11580   3.309   4.486  10.168 -1.1842 -1.7063 -0.1117
  112OSM    C3S11581   3.100   4.530  10.172 -0.0127  0.0750  0.1853
  112OSM    H3S11582   3.028   4.610  10.200 -1.0132 -0.6532 -0.2820
  112OSM     O311583   3.064   4.417  10.253  0.9849 -0.1529 -0.3110
  112OSM    HO311584   3.132   4.423  10.321 -1.1436 -2.1001  2.1722
  112OSM    C4S11585   3.089   4.488  10.020 -0.3045  0.6821  0.3254
  112OSM    H4S11586   3.042   4.566   9.959  0.7493  0.1770 -1.1853
  112OSM    C5S11587   3.112   4.366   9.963  0.1154  0.0380  0.2709
  112OSM    H5S11588   3.162   4.291  10.025 -1.3009  0.3929  1.9009
  112OSM    C6S11589   3.080   4.359   9.816  0.1520 -0.5528  0.3146
  112OSM    H6S11590   3.157   4.309   9.754 -1.3223  0.8913 -2.9515
  112OSM    H6T11591   3.094   4.461   9.773 -0.6581 -0.2944  0.6482
  112OSM    C7S11592   2.934   4.324   9.780 -0.1563 -0.2066  0.1877
  112OSM    H7S11593   2.872   4.404   9.827 -0.7080 -0.6165  0.1717
  112OSM    H7T11594   2.900   4.226   9.820  0.3609  0.0160  1.2095
  112OSM    C8S11595   2.891   4.353   9.633 -0.5251 -0.3634  0.3860
  112OSM    H8S11596   2.908   4.460   9.609  1.1205 -0.7112 -0.1117
  112OSM    H8T11597   2.781   4.337   9.632 -0.6959  0.4156  2.0376
  112OSM    C9S11598   2.967   4.272   9.532 -0.6893  0.4129  0.3084
  112OSM    H9S11599   2.937   4.165   9.534 -0.6551  0.3817 -0.7072
  112OSM    H9T11600   3.077   4.276   9.548 -0.4729 -0.3214 -0.8810
  112OSM   C10S11601   2.940   4.334   9.393 -0.2127 -0.5501 -0.7644
  112OSM   H10S11602   2.974   4.439   9.407 -2.1527  0.1023 -0.6714
  112OSM   H10T11603   2.831   4.339   9.373 -0.2978  1.1301 -0.0348
  112OSM   C11S11604   3.010   4.255   9.277  0.6369 -0.0715  0.6144
  112OSM   H11S11605   2.992   4.147   9.293  0.2104 -0.0790  0.1152
  112OSM   H11T11606   3.120   4.251   9.289  0.5747 -0.0474  1.2659
  112OSM   C12S11607   2.952   4.298   9.149 -0.5413  0.3949  1.2809
  112OSM   H12S11608   3.006   4.386   9.106 -0.6369 -0.5165 -0.8628
  112OSM   H12T11609   2.842   4.315   9.139 -1.0880 -3.5708 -3.6778
  112OSM   C13S11610   2.983   4.192   9.038  0.3126  0.7040  0.9501
  112OSM   H13S11611   2.918   4.102   9.040 -1.5249  1.6853 -3.2574
  112OSM   H13T11612   3.088   4.158   9.028 -0.0906 -0.2160 -0.6237
  112OSM   C14S11613   2.970   4.257   8.895  0.0605  0.5114 -0.2542
  112OSM   H14S11614   3.052   4.330   8.877  1.0186 -1.0780 -2.8787
  112OSM   H14T11615   2.870   4.304   8.885 -0.5046 -0.8469 -1.1648
  112OSM   C15S11616   2.995   4.148   8.785  0.3171 -0.3764 -0.3472
  112OSM   H15S11617   2.915   4.073   8.800 -0.5754  0.6657  0.2619
  112OSM   H15T11618   3.094   4.103   8.805  0.2658 -0.1006  0.5826
  112OSM   C16S11619   2.983   4.202   8.647  0.3697 -0.4252 -0.4912
  112OSM   H16S11620   3.048   4.286   8.614 -1.2116 -0.1587 -3.2966
  112OSM   H16T11621   2.879   4.239   8.640  0.1545 -0.2920  2.2587
  112OSM   C17S11622   2.998   4.083   8.545  0.7959  0.0543 -0.0339
  112OSM   H17S11623   2.913   4.012   8.551 -0.2802  1.1021 -2.0424
  112OSM   H17T11624   3.079   4.015   8.579  0.6089 -0.4652 -0.6270
  112OSM   C18S11625   2.996   4.141   8.404 -0.8077 -0.6998  0.7793
  112OSM   H18S11626   3.087   4.201   8.383 -1.1476 -0.2562  0.5570
  112OSM   H18T11627   2.908   4.205   8.379 -0.4711 -0.6167 -0.2292
  112OSM   H18U11628   3.005   4.060   8.329  0.2093 -1.2675  1.5084
  112OSM    C1F11629   3.408   4.717  10.088  0.6098  0.6774 -0.3954
  112OSM     OF11630   3.500   4.646  10.130 -0.1919  0.2780  0.2942
  112OSM    C2F11631   3.430   4.854  10.029 -0.1571  0.0616 -0.2498
  112OSM    H2F11632   3.462   4.921  10.111 -0.6114 -1.0961  0.9062
  112OSM    H2G11633   3.333   4.900  10.001 -1.8200 -2.5432  0.8009
  112OSM    C3F11634   3.535   4.842   9.910 -0.0937 -0.0508 -0.0731
  112OSM    H3F11635   3.587   4.743   9.912  0.1571  0.0686 -0.4768
  112OSM    H3G11636   3.613   4.915   9.939  0.1988 -1.0508  1.8050
  112OSM    C4F11637   3.496   4.867   9.767  0.6100 -0.1060 -0.0920
  112OSM    H4F11638   3.438   4.962   9.767  2.1586  0.8925  0.5511
  112OSM    H4G11639   3.438   4.779   9.732 -0.9942  1.6868 -2.2837
  112OSM    C5F11640   3.621   4.881   9.679  0.0495  0.2563  0.0225
  112OSM    H5F11641   3.681   4.789   9.697  1.0462  0.9548  0.3394
  112OSM    H5G11642   3.677   4.971   9.710  0.0339  0.0635  0.6202
  112OSM    C6F11643   3.600   4.898   9.527  1.0036 -0.7713 -0.1148
  112OSM    H6F11644   3.684   4.956   9.484 -1.3984  1.4137 -2.2313
  112OSM    H6G11645   3.504   4.953   9.516  0.6642 -1.1221  0.9575
  112OSM    C7F11646   3.594   4.773   9.434  0.0132 -0.1382 -0.0797
  112OSM    H7F11647   3.518   4.704   9.474 -0.4324  1.0175  1.1451
  112OSM    H7G11648   3.693   4.723   9.438  0.3799  0.6393  1.0130
  112OSM    C8F11649   3.582   4.799   9.281 -0.4812  1.0693  0.5699
  112OSM    H8F11650   3.636   4.715   9.230  1.0184  1.2557  1.7654
  112OSM    H8G11651   3.620   4.898   9.248  2.5119  0.1113  0.8305
  112OSM    C9F11652   3.436   4.790   9.240 -0.5861  0.0527  0.0446
  112OSM    H9F11653   3.407   4.892   9.210 -0.4368  0.6198  1.7258
  112OSM   C10F11654   3.354   4.685   9.219 -0.7517 -0.5114 -0.5403
  112OSM   H10F11655   3.256   4.708   9.174 -0.4495 -1.9151 -2.0272
  112OSM   C11F11656   3.383   4.537   9.241  0.3433  0.1619  0.2861
  112OSM   H11F11657   3.349   4.523   9.346 -0.3507 -1.3728 -0.1181
  112OSM   H11G11658   3.493   4.523   9.246  0.5907  1.8465  0.1627
  112OSM   C12F11659   3.316   4.444   9.147  0.2467  0.2035 -0.3133
  112OSM   H12F11660   3.211   4.474   9.128 -0.4748 -2.3324 -0.7183
  112OSM   H12G11661   3.318   4.340   9.186  0.2242  0.4289  0.2963
  112OSM   C13F11662   3.398   4.432   9.016 -1.2469  0.3594  0.2119
  112OSM   H13F11663   3.503   4.455   9.040 -0.5732  0.4543 -2.4816
  112OSM   H13G11664   3.379   4.522   8.952 -0.5240  0.2425 -0.1727
  112OSM   C14F11665   3.384   4.302   8.929  0.6255 -0.6537 -0.9928
  112OSM   H14F11666   3.290   4.247   8.950  0.0102  0.0481 -1.8409
  112OSM   H14G11667   3.473   4.241   8.954  0.2146  0.1110  3.0522
  112OSM   C15F11668   3.381   4.341   8.781  0.4474 -0.1463 -0.3742
  112OSM   H15F11669   3.483   4.376   8.752 -0.3263  2.5431 -0.1635
  112OSM   H15G11670   3.299   4.411   8.754  1.9843  1.5968 -0.7384
  112OSM   C16F11671   3.367   4.215   8.683  0.2501 -0.4472  0.9590
  112OSM   H16F11672   3.408   4.254   8.587 -0.9126 -1.6955 -0.0799
  112OSM   H16G11673   3.268   4.171   8.661  1.6003 -2.2023 -2.3345
  112OSM   C17F11674   3.465   4.108   8.725 -0.3434  0.6651  0.1972
  112OSM   H17F11675   3.429   4.078   8.826 -1.5278 -0.2556 -0.4788
  112OSM   H17G11676   3.567   4.150   8.740 -0.7817  1.2059  2.0117
  112OSM   C18F11677   3.462   3.994   8.623  0.0281  0.3128 -0.2992
  112OSM   H18F11678   3.374   3.926   8.623 -0.0193  0.3122  1.4116
  112OSM   H18G11679   3.548   3.926   8.645 -1.6800 -1.7423  0.4572
  112OSM   H18H11680   3.483   4.051   8.530  0.5795 -0.2072 -0.5032
  113OSM      N11681   2.129   4.469  10.963 -0.3658 -0.0819 -0.0888
  113OSM    C1511682   2.002   4.537  10.964 -0.8356  0.1066  0.5533
  113OSM   H15A11683   1.938   4.507  11.046  1.5863 -0.8408  2.1816
  113OSM   H15B11684   1.946   4.506  10.878 -2.1300  0.0268  1.3937
  113OSM   H15C11685   2.015   4.645  10.969  2.5854 -0.2010  0.4646
  113OSM    C1411686   2.207   4.491  11.087  0.0200  0.6832  0.2585
  113OSM   H14A11687   2.287   4.419  11.097 -1.1601 -0.7246 -0.1197
  113OSM   H14B11688   2.145   4.495  11.176  0.4928 -0.6971  0.6834
  113OSM   H14C11689   2.245   4.592  11.092  1.0190  0.2932  3.9870
  113OSM    C1311690   2.099   4.328  10.941 -0.0720 -0.1040 -0.0454
  113OSM   H13A11691   2.189   4.269  10.931 -0.2550 -0.9254  2.4098
  113OSM   H13B11692   2.043   4.305  10.852 -2.5938 -0.3352  1.4979
  113OSM   H13C11693   2.039   4.282  11.019  0.7128 -0.8267  0.1516
  113OSM    C1211694   2.218   4.521  10.846  0.1139  0.5956  0.2195
  113OSM   H12A11695   2.211   4.625  10.874 -0.1361  0.5272  0.4061
  113OSM   H12B11696   2.171   4.499  10.751 -0.8210  0.7641  0.6345
  113OSM    C1111697   2.365   4.489  10.844 -0.7227  0.4991  0.7314
  113OSM   H11A11698   2.410   4.520  10.941  0.0318 -0.8964  0.8620
  113OSM   H11B11699   2.425   4.547  10.771  0.9809  1.2475  2.6435
  113OSM      P11700   2.394   4.272  10.697  0.1703 -0.2786  0.0889
  113OSM    O1311701   2.434   4.140  10.739 -0.6573 -0.3263 -0.0636
  113OSM    O1411702   2.266   4.289  10.624  0.9359  0.0098  0.0929
  113OSM    O1111703   2.510   4.332  10.606 -0.6487 -0.6126  0.5698
  113OSM    O1211704   2.394   4.352  10.831  0.2850  0.2539  0.4040
  113OSM    C1S11705   2.573   4.266  10.499 -0.1297 -0.0575 -0.3093
  113OSM    H1S11706   2.543   4.159  10.490 -3.3824  0.8273 -1.3916
  113OSM    H1T11707   2.684   4.271  10.510  0.0474 -0.0196 -1.8792
  113OSM     NF11708   2.587   4.255  10.258  0.1981 -0.1592  0.1546
  113OSM    HNF11709   2.684   4.252  10.233  0.4138  1.8423  0.6109
  113OSM    C2S11710   2.554   4.341  10.364  0.1093 -0.7614 -0.5528
  113OSM    H2S11711   2.445   4.363  10.360  0.5311  1.7889  0.2198
  113OSM    C3S11712   2.640   4.467  10.356 -0.1549 -0.0224 -0.3404
  113OSM    H3S11713   2.743   4.436  10.382 -0.0890  1.6149  1.5938
  113OSM     O311714   2.605   4.561  10.456  0.2953 -0.2418 -0.4471
  113OSM    HO311715   2.544   4.513  10.513  1.3797 -1.3527 -0.1939
  113OSM    C4S11716   2.629   4.537  10.228  0.0024 -0.9286  0.3990
  113OSM    H4S11717   2.542   4.602  10.216 -0.2783 -1.0182  1.7128
  113OSM    C5S11718   2.718   4.526  10.123  0.0367  0.2137  0.3285
  113OSM    H5S11719   2.804   4.457  10.123 -1.8400 -2.2921 -0.6434
  113OSM    C6S11720   2.708   4.593   9.986  0.3798 -0.2273 -0.3704
  113OSM    H6S11721   2.712   4.510   9.912 -0.4440 -1.4611  0.9026
  113OSM    H6T11722   2.795   4.660   9.970 -0.0779  0.0625 -1.7677
  113OSM    C7S11723   2.581   4.673   9.960 -0.7264  0.6116 -0.0047
  113OSM    H7S11724   2.572   4.756  10.033  0.5905  1.0690 -0.3405
  113OSM    H7T11725   2.492   4.607   9.970  1.4854 -2.5399  0.4058
  113OSM    C8S11726   2.593   4.735   9.823  0.2833  0.1018  0.1981
  113OSM    H8S11727   2.603   4.662   9.740 -0.2914  0.6426 -0.3655
  113OSM    H8T11728   2.675   4.810   9.824  0.1636  0.2478  1.5436
  113OSM    C9S11729   2.464   4.817   9.786 -0.2966 -0.4861 -0.1769
  113OSM    H9S11730   2.451   4.915   9.836 -0.5855 -0.5884 -0.0452
  113OSM    H9T11731   2.382   4.748   9.816 -1.8063  0.9208 -0.8884
  113OSM   C10S11732   2.462   4.849   9.637 -0.4816 -0.0153  0.2296
  113OSM   H10S11733   2.477   4.756   9.579 -1.6969  0.5269 -1.0032
  113OSM   H10T11734   2.555   4.900   9.605 -0.2802 -0.8611 -0.5478
  113OSM   C11S11735   2.336   4.920   9.596  0.3071  0.8081 -0.0908
  113OSM   H11S11736   2.318   5.009   9.659 -1.5463 -0.6482  1.5568
  113OSM   H11T11737   2.248   4.854   9.612  0.1253  0.8145 -0.9864
  113OSM   C12S11738   2.334   4.982   9.449 -0.5053 -0.0364 -0.2168
  113OSM   H12S11739   2.430   5.037   9.454  2.0782 -3.6289 -3.7774
  113OSM   H12T11740   2.246   5.050   9.446 -1.3522 -1.1140 -0.9672
  113OSM   C13S11741   2.340   4.885   9.326  0.0453 -0.1152  0.4298
  113OSM   H13S11742   2.257   4.812   9.340  0.2499 -0.6123 -0.7848
  113OSM   H13T11743   2.436   4.831   9.316 -0.2384 -0.8259  1.3598
  113OSM   C14S11744   2.317   4.964   9.193  0.3503  0.9908 -0.0262
  113OSM   H14S11745   2.377   5.057   9.189 -1.1003  1.9377 -0.6853
  113OSM   H14T11746   2.210   4.994   9.193  0.3994  1.4510  2.8904
  113OSM   C15S11747   2.340   4.875   9.059 -0.2853 -0.2377 -0.0047
  113OSM   H15S11748   2.446   4.840   9.058 -0.8516 -2.1008 -1.4011
  113OSM   H15T11749   2.334   4.944   8.972  0.1535  0.1744  0.2858
  113OSM   C16S11750   2.237   4.763   9.036  0.4788  0.0160  0.2423
  113OSM   H16S11751   2.135   4.803   9.055  0.8216  0.2842  1.5813
  113OSM   H16T11752   2.249   4.693   9.121 -1.5188 -0.8427 -0.1194
  113OSM   C17S11753   2.246   4.688   8.906 -0.1615  0.2147 -1.1384
  113OSM   H17S11754   2.333   4.621   8.924 -0.4327  0.7677  3.1158
  113OSM   H17T11755   2.272   4.760   8.825  1.1690 -1.3544 -2.1788
  113OSM   C18S11756   2.118   4.610   8.867  0.0888 -0.4539 -0.1170
  113OSM   H18S11757   2.140   4.571   8.765 -0.3435  0.4313 -0.5670
  113OSM   H18T11758   2.030   4.677   8.859 -0.8772 -1.7195 -0.4334
  113OSM   H18U11759   2.099   4.528   8.939  1.1889  0.7426  1.6127
  113OSM    C1F11760   2.518   4.161  10.208  0.5424 -0.0694  0.0688
  113OSM     OF11761   2.408   4.133  10.262 -0.1464  0.1002  0.3372
  113OSM    C2F11762   2.574   4.071  10.100  0.0559 -0.0723  0.2070
  113OSM    H2F11763   2.626   3.988  10.152 -0.0579  0.3515  1.0164
  113OSM    H2G11764   2.654   4.126  10.045 -1.4783  1.8462 -0.2255
  113OSM    C3F11765   2.467   4.024   9.995  0.2518  0.0888 -0.1303
  113OSM    H3F11766   2.413   4.110   9.950 -1.3711  0.5801  2.5536
  113OSM    H3G11767   2.396   3.958  10.047  0.1573  1.0485  1.0062
  113OSM    C4F11768   2.530   3.943   9.877  0.5416 -1.1387  0.5219
  113OSM    H4F11769   2.454   3.884   9.821 -1.1662  0.4835  1.0364
  113OSM    H4G11770   2.597   3.865   9.919  1.0159 -0.0117  1.9298
  113OSM    C5F11771   2.605   4.041   9.776  0.2135  0.8919  0.5132
  113OSM    H5F11772   2.687   4.092   9.831  0.9282 -1.2422  1.5785
  113OSM    H5G11773   2.526   4.107   9.734 -0.5252 -1.2082 -1.6442
  113OSM    C6F11774   2.675   3.966   9.661  0.4639  0.6283  0.1353
  113OSM    H6F11775   2.756   3.905   9.705 -0.6879 -0.8659  0.2479
  113OSM    H6G11776   2.732   4.049   9.613  1.1502 -0.0940 -0.3199
  113OSM    C7F11777   2.579   3.883   9.568 -0.2163  0.0723 -0.5581
  113OSM    H7F11778   2.482   3.937   9.566 -0.0617  0.3863  0.2500
  113OSM    H7G11779   2.568   3.786   9.621  1.6444  0.9990  1.7180
  113OSM    C8F11780   2.632   3.853   9.426  0.1916  0.4974 -0.7328
  113OSM    H8F11781   2.554   3.806   9.361  0.2450  1.0207 -1.1806
  113OSM    H8G11782   2.705   3.771   9.437 -0.4566 -0.0731 -0.5905
  113OSM    C9F11783   2.679   3.974   9.358  0.3514 -0.9517 -0.8878
  113OSM    H9F11784   2.680   4.064   9.421  0.8029 -1.3687 -0.2929
  113OSM   C10F11785   2.718   3.998   9.237 -0.5433  0.0611  0.9243
  113OSM   H10F11786   2.728   4.104   9.207 -0.8060  0.2077  1.3545
  113OSM   C11F11787   2.732   3.895   9.133 -0.5615 -0.5617  0.3640
  113OSM   H11F11788   2.717   3.793   9.173 -1.3815 -0.6082 -0.0410
  113OSM   H11G11789   2.837   3.899   9.099  0.0631  2.0028  2.2747
  113OSM   C12F11790   2.635   3.929   9.015 -0.6551 -0.8900 -0.5097
  113OSM   H12F11791   2.668   4.016   8.953 -1.2307 -0.1161  0.2466
  113OSM   H12G11792   2.528   3.940   9.043 -1.2515 -0.1795 -2.8515
  113OSM   C13F11793   2.651   3.812   8.914  0.1405 -0.8656  0.4962
  113OSM   H13F11794   2.758   3.782   8.915  0.8213  1.3575  1.2868
  113OSM   H13G11795   2.610   3.859   8.822  0.4494 -0.5304  0.5259
  113OSM   C14F11796   2.569   3.693   8.962 -0.1448  0.8765  0.6164
  113OSM   H14F11797   2.460   3.714   8.950 -0.2974  0.0349  0.5247
  113OSM   H14G11798   2.592   3.685   9.071  0.1667  0.5028  0.5219
  113OSM   C15F11799   2.602   3.566   8.886  0.5102  0.2640  0.0338
  113OSM   H15F11800   2.550   3.483   8.939 -0.7061  1.1506  0.2928
  113OSM   H15G11801   2.712   3.553   8.879  0.3729 -0.6988 -0.4708
  113OSM   C16F11802   2.535   3.568   8.756  0.6226  0.1404  0.4067
  113OSM   H16F11803   2.578   3.658   8.707  0.0428  0.7244  0.9559
  113OSM   H16G11804   2.425   3.582   8.766  0.6706 -0.6920  2.5309
  113OSM   C17F11805   2.559   3.450   8.667  0.2391  0.3482  0.0203
  113OSM   H17F11806   2.479   3.377   8.687  0.5232  0.2259  0.7351
  113OSM   H17G11807   2.654   3.394   8.681 -0.2719 -0.1064  1.9497
  113OSM   C18F11808   2.536   3.490   8.517 -0.7930 -0.2201 -0.9723
  113OSM   H18F11809   2.512   3.406   8.449 -1.0223 -1.2584  0.3513
  113OSM   H18G11810   2.633   3.535   8.485 -1.0233  1.0890  0.0689
  113OSM   H18H11811   2.466   3.576   8.507 -0.4083  0.4276  1.2440
  114OSM      N11812   5.253   3.518  11.500 -0.0674 -0.4799  0.6294
  114OSM    C1511813   5.262   3.401  11.582 -0.3624  0.1928 -0.9184
  114OSM   H15A11814   5.169   3.366  11.624  0.2407 -1.9477 -1.2813
  114OSM   H15B11815   5.325   3.423  11.667  0.2507 -0.5497 -1.1752
  114OSM   H15C11816   5.305   3.317  11.530  2.8695  1.0237  0.1967
  114OSM    C1411817   5.219   3.643  11.574 -0.0634  0.0970  0.5804
  114OSM   H14A11818   5.131   3.632  11.636  0.8669 -0.1505  1.8971
  114OSM   H14B11819   5.201   3.725  11.506 -4.4949 -1.3745 -0.3789
  114OSM   H14C11820   5.296   3.677  11.642  0.0958 -1.0091  0.9647
  114OSM    C1311821   5.379   3.545  11.426  0.5963 -0.0806 -0.0138
  114OSM   H13A11822   5.402   3.455  11.370 -2.3466 -1.5593  0.9163
  114OSM   H13B11823   5.449   3.580  11.500  1.6689 -0.2197 -0.9333
  114OSM   H13C11824   5.362   3.624  11.355  0.1091  0.8171  1.0813
  114OSM    C1211825   5.138   3.500  11.396 -1.1188 -0.3801 -0.0831
  114OSM   H12A11826   5.134   3.597  11.347 -0.2063  0.8496  2.1053
  114OSM   H12B11827   5.042   3.492  11.445 -2.3966  2.8740 -1.6887
  114OSM    C1111828   5.159   3.394  11.290 -0.2433  0.2475 -0.3622
  114OSM   H11A11829   5.255   3.418  11.239  0.1459 -0.3194  0.0917
  114OSM   H11B11830   5.069   3.417  11.229 -1.0699  1.8108  1.3808
  114OSM      P11831   5.183   3.141  11.264  0.3350  0.0271  0.1802
  114OSM    O1311832   5.328   3.112  11.279 -0.1135  0.6176 -0.0057
  114OSM    O1411833   5.085   3.031  11.293 -0.0029 -0.3846  0.7885
  114OSM    O1111834   5.167   3.183  11.108  0.1679 -0.5366 -0.1749
  114OSM    O1211835   5.142   3.266  11.349 -0.2081 -0.3294 -0.3295
  114OSM    C1S11836   5.184   3.086  11.000 -0.9704 -0.2543 -0.7176
  114OSM    H1S11837   5.090   3.030  10.980 -1.3047 -1.5031  3.3173
  114OSM    H1T11838   5.280   3.031  11.006 -0.1767  1.2397  2.3978
  114OSM     NF11839   5.220   3.078  10.756 -0.4114 -0.7043  1.1842
  114OSM    HNF11840   5.307   3.079  10.706 -0.8553 -0.6047  0.4060
  114OSM    C2S11841   5.208   3.170  10.865  0.3797 -0.1957  0.2529
  114OSM    H2S11842   5.107   3.216  10.852  0.3098 -0.9531 -2.3404
  114OSM    C3S11843   5.320   3.273  10.871  0.4772  0.1015  0.3590
  114OSM    H3S11844   5.421   3.234  10.894 -0.6147 -2.0789  1.8167
  114OSM     O311845   5.296   3.364  10.975 -0.9310  0.4318  0.5581
  114OSM    HO311846   5.256   3.309  11.044 -0.0050 -1.0067 -0.0095
  114OSM    C4S11847   5.319   3.354  10.744 -0.2226  0.0429 -0.1318
  114OSM    H4S11848   5.230   3.418  10.733 -0.9557 -1.0087 -0.4194
  114OSM    C5S11849   5.420   3.373  10.661 -0.6007  0.4281 -0.1014
  114OSM    H5S11850   5.516   3.324  10.682 -0.3901  1.5256  1.7307
  114OSM    C6S11851   5.410   3.464  10.542 -0.9071  0.8318  0.1466
  114OSM    H6S11852   5.433   3.567  10.575  0.9873  1.1940 -2.0535
  114OSM    H6T11853   5.303   3.471  10.512 -0.8066  2.8750  0.1235
  114OSM    C7S11854   5.492   3.421  10.423 -1.0967 -0.1139  0.0718
  114OSM    H7S11855   5.443   3.324  10.405 -1.1087 -0.0770 -0.0975
  114OSM    H7T11856   5.602   3.407  10.433 -0.9703  1.4460  1.4079
  114OSM    C8S11857   5.477   3.499  10.288 -1.0832 -0.0907  0.0368
  114OSM    H8S11858   5.516   3.603  10.288  2.1407 -1.1823 -1.7892
  114OSM    H8T11859   5.367   3.503  10.269 -0.8409 -1.4157 -1.9953
  114OSM    C9S11860   5.543   3.422  10.179 -0.4205  0.2562 -0.2757
  114OSM    H9S11861   5.499   3.320  10.176 -0.0529  0.0767  0.3194
  114OSM    H9T11862   5.654   3.420  10.188 -0.3372 -0.9588 -1.3264
  114OSM   C10S11863   5.503   3.484  10.049 -0.5178 -1.0467 -0.6034
  114OSM   H10S11864   5.577   3.567  10.040  0.4703 -1.5450  1.8865
  114OSM   H10T11865   5.399   3.521  10.059 -0.4235 -1.2889  2.1294
  114OSM   C11S11866   5.521   3.398   9.922  0.2576  0.0698  0.2367
  114OSM   H11S11867   5.458   3.307   9.931 -0.3803  0.3595 -1.0677
  114OSM   H11T11868   5.623   3.354   9.919 -0.6539 -2.1272 -1.8510
  114OSM   C12S11869   5.496   3.483   9.799 -0.0076 -0.6863 -0.8563
  114OSM   H12S11870   5.566   3.569   9.789 -2.1023  1.0174 -1.6566
  114OSM   H12T11871   5.397   3.533   9.810  0.2542 -0.0090 -1.4475
  114OSM   C13S11872   5.506   3.403   9.670 -0.1752  0.6874 -0.1766
  114OSM   H13S11873   5.444   3.311   9.676 -0.2007  0.6706 -0.6828
  114OSM   H13T11874   5.609   3.362   9.665 -0.9246 -1.6131  1.3416
  114OSM   C14S11875   5.460   3.485   9.548 -0.8838 -0.3510  0.2349
  114OSM   H14S11876   5.475   3.413   9.465 -0.5111  1.0946 -0.9901
  114OSM   H14T11877   5.532   3.568   9.532 -1.4185  0.6185  2.4541
  114OSM   C15S11878   5.319   3.534   9.541 -0.6629  0.4516 -0.3378
  114OSM   H15S11879   5.301   3.605   9.624  0.2375 -0.0052  0.2660
  114OSM   H15T11880   5.246   3.450   9.546 -0.7747  0.4070 -2.0672
  114OSM   C16S11881   5.283   3.596   9.413 -0.0561 -0.6765  0.4085
  114OSM   H16S11882   5.360   3.670   9.385  0.4339 -2.4745 -3.6838
  114OSM   H16T11883   5.186   3.649   9.428  0.5630  0.9129 -0.9960
  114OSM   C17S11884   5.292   3.504   9.294  0.6453  0.3311  0.5744
  114OSM   H17S11885   5.199   3.444   9.286  0.6919  0.0590  1.9691
  114OSM   H17T11886   5.380   3.437   9.301  0.2534 -0.4818 -1.5204
  114OSM   C18S11887   5.300   3.590   9.163  0.0410  0.2251 -0.2728
  114OSM   H18S11888   5.216   3.662   9.169  0.4650  0.5758  2.6432
  114OSM   H18T11889   5.291   3.532   9.068  1.3823  1.9566 -1.5183
  114OSM   H18U11890   5.399   3.639   9.156  0.7944 -0.9883  1.3852
  114OSM    C1F11891   5.128   2.999  10.712  0.8678  0.5719 -0.4028
  114OSM     OF11892   5.021   3.009  10.761  0.4210  0.6770 -0.1946
  114OSM    C2F11893   5.166   2.898  10.615 -0.1680  0.0109  0.7048
  114OSM    H2F11894   5.196   2.805  10.668  1.4226  0.8658  1.3509
  114OSM    H2G11895   5.248   2.935  10.551 -1.9046  0.4024 -1.4419
  114OSM    C3F11896   5.043   2.873  10.516 -0.2170  0.8093 -0.2152
  114OSM    H3F11897   4.956   2.831  10.572 -0.1547  0.9740  0.0078
  114OSM    H3G11898   5.068   2.800  10.437 -4.2895  0.0633 -1.0441
  114OSM    C4F11899   5.002   3.003  10.450  0.0367 -0.3789  0.1681
  114OSM    H4F11900   5.094   3.063  10.431  1.0734 -1.7251  0.7666
  114OSM    H4G11901   4.940   3.063  10.520 -0.9634 -1.1415 -0.0403
  114OSM    C5F11902   4.920   2.985  10.317 -0.1559 -0.1292 -0.1256
  114OSM    H5F11903   4.868   3.076  10.280  1.4812  0.4276 -1.1297
  114OSM    H5G11904   4.841   2.913  10.348 -0.9607  1.5040  1.8561
  114OSM    C6F11905   5.021   2.959  10.203  0.3142  0.0844  1.1818
  114OSM    H6F11906   5.077   2.869  10.235 -0.9391 -0.5677  1.6175
  114OSM    H6G11907   5.086   3.047  10.186  1.4567 -1.0514 -0.6472
  114OSM    C7F11908   4.954   2.934  10.068  0.3662 -0.0232  0.0795
  114OSM    H7F11909   5.026   2.933   9.984 -0.1721  1.8353 -0.4394
  114OSM    H7G11910   4.887   3.019  10.044  0.8178  0.3779  0.2383
  114OSM    C8F11911   4.850   2.817  10.068 -0.0819  0.0834  0.3436
  114OSM    H8F11912   4.800   2.825   9.969  0.1260 -3.1867 -0.1679
  114OSM    H8G11913   4.776   2.829  10.149  1.4223  2.0091  1.5216
  114OSM    C9F11914   4.904   2.680  10.087  0.1688  0.5437  1.3032
  114OSM    H9F11915   4.892   2.639  10.188  2.8696  1.8548  2.2580
  114OSM   C10F11916   4.976   2.603  10.004  0.0141 -0.5597  0.5159
  114OSM   H10F11917   4.998   2.497  10.021  0.6331 -0.8880 -1.9022
  114OSM   C11F11918   5.000   2.646   9.867  0.5029  0.3399  0.2643
  114OSM   H11F11919   5.098   2.604   9.836  0.0562  0.3296 -1.2171
  114OSM   H11G11920   5.003   2.753   9.839  0.6546  0.0527 -0.8838
  114OSM   C12F11921   4.894   2.583   9.759 -0.0860 -0.8284  1.1010
  114OSM   H12F11922   4.797   2.636   9.770 -0.0747  0.0093 -1.8046
  114OSM   H12G11923   4.868   2.477   9.775 -1.5730 -0.3402  2.0304
  114OSM   C13F11924   4.950   2.609   9.611 -0.2938  0.0792 -0.0537
  114OSM   H13F11925   5.029   2.534   9.589 -0.5712  0.0723 -1.0478
  114OSM   H13G11926   4.983   2.715   9.602  0.3216 -0.0234  0.8580
  114OSM   C14F11927   4.835   2.588   9.506  1.3337  0.5361 -0.6051
  114OSM   H14F11928   4.760   2.661   9.544  1.5396  1.0648 -1.1909
  114OSM   H14G11929   4.805   2.482   9.513 -4.8796  1.7540 -2.5384
  114OSM   C15F11930   4.844   2.611   9.357 -0.5697  0.2745  0.4036
  114OSM   H15F11931   4.926   2.544   9.322 -0.4331  2.0302 -3.0379
  114OSM   H15G11932   4.863   2.720   9.345  0.4006  0.0263 -0.5090
  114OSM   C16F11933   4.704   2.580   9.295  0.0547 -0.5664  0.5684
  114OSM   H16F11934   4.646   2.673   9.276  0.0898 -0.4620  0.9743
  114OSM   H16G11935   4.640   2.527   9.369  0.0514  0.0571  1.0163
  114OSM   C17F11936   4.710   2.489   9.174 -0.2430  0.8921  0.2571
  114OSM   H17F11937   4.767   2.398   9.203  0.0695  0.6699 -0.9982
  114OSM   H17G11938   4.786   2.540   9.110  0.0512  1.5925  1.1508
  114OSM   C18F11939   4.581   2.458   9.097  0.0114  0.2572  0.2483
  114OSM   H18F11940   4.512   2.410   9.170  0.8666  2.3359  2.5938
  114OSM   H18G11941   4.605   2.387   9.016  2.5639 -1.0878  2.0475
  114OSM   H18H11942   4.541   2.554   9.058  0.6234  0.4553  0.1067
  115OSM      N11943   1.380   1.959   6.080  0.4998 -0.8984 -0.6813
  115OSM    C1511944   1.316   1.825   6.051  0.3619 -0.0340 -0.1086
  115OSM   H15A11945   1.210   1.846   6.049  0.6063  1.2804 -1.6761
  115OSM   H15B11946   1.336   1.753   6.129 -0.3462 -0.4153 -0.2703
  115OSM   H15C11947   1.327   1.779   5.954 -0.6991  0.2890 -0.4006
  115OSM    C1411948   1.524   1.963   6.027  1.0876 -0.1483 -0.0133
  115OSM   H14A11949   1.514   1.945   5.921  0.0748 -2.8388  0.4753
  115OSM   H14B11950   1.592   1.884   6.056  3.2459  1.2638 -0.9509
  115OSM   H14C11951   1.563   2.062   6.047 -1.3188  0.4612  2.2269
  115OSM    C1311952   1.299   2.064   6.012  0.1365 -0.2768  0.6605
  115OSM   H13A11953   1.312   2.082   5.906 -1.0315 -1.0238  0.3721
  115OSM   H13B11954   1.324   2.159   6.055  0.3560  1.0545 -2.1631
  115OSM   H13C11955   1.193   2.056   6.028 -0.0862  1.0827 -0.0110
  115OSM    C1211956   1.372   1.980   6.229  0.9284 -0.0113 -0.3288
  115OSM   H12A11957   1.422   1.897   6.277  3.0414  1.3737  0.0217
  115OSM   H12B11958   1.267   1.982   6.251  1.0519 -2.2927  0.7095
  115OSM    C1111959   1.429   2.107   6.295 -0.3335 -0.1296  0.2984
  115OSM   H11A11960   1.442   2.082   6.402 -1.2038 -1.8469  0.0404
  115OSM   H11B11961   1.353   2.188   6.296 -1.2110 -0.8947  3.3121
  115OSM      P11962   1.587   2.294   6.234  0.0494  0.2421 -0.7937
  115OSM    O1311963   1.713   2.314   6.169  0.2116 -0.1360  0.2528
  115OSM    O1411964   1.482   2.380   6.181  0.1540  0.1882 -0.4811
  115OSM    O1111965   1.589   2.320   6.388 -0.6589  0.6867 -0.4648
  115OSM    O1211966   1.554   2.146   6.236  0.2357  0.5205 -0.1043
  115OSM    C1S11967   1.672   2.264   6.488 -0.0033 -0.3965  0.2693
  115OSM    H1S11968   1.779   2.278   6.461  0.6836 -1.3023  2.3442
  115OSM    H1T11969   1.645   2.158   6.506 -0.5068 -0.4799 -0.9090
  115OSM     NF11970   1.755   2.271   6.711  0.7951 -0.4904  0.0297
  115OSM    HNF11971   1.712   2.194   6.757 -2.6672  0.8971 -0.5703
  115OSM    C2S11972   1.668   2.336   6.623  0.1699  0.1347 -0.1084
  115OSM    H2S11973   1.697   2.440   6.595 -0.2792 -0.0960 -1.5426
  115OSM    C3S11974   1.524   2.335   6.678 -0.5964  0.6571 -0.3932
  115OSM    H3S11975   1.503   2.228   6.703  0.9316  0.3188 -0.4570
  115OSM     O311976   1.431   2.380   6.591  0.0819 -0.1864  0.3615
  115OSM    HO311977   1.482   2.379   6.509 -2.6036  2.3422 -1.5160
  115OSM    C4S11978   1.507   2.412   6.808  0.1610  0.0348 -0.5759
  115OSM    H4S11979   1.512   2.360   6.905 -1.9587 -0.5350 -0.7257
  115OSM    C5S11980   1.501   2.547   6.815  0.2346 -0.3580 -0.6494
  115OSM    H5S11981   1.519   2.615   6.730  1.5218 -0.0738 -0.1726
  115OSM    C6S11982   1.473   2.620   6.944  0.3125 -0.4572  0.0458
  115OSM    H6S11983   1.385   2.684   6.924 -0.4487 -0.8790  1.8716
  115OSM    H6T11984   1.557   2.690   6.962  2.2465 -2.3182 -1.1060
  115OSM    C7S11985   1.460   2.535   7.074 -0.2194 -0.2606  0.6830
  115OSM    H7S11986   1.555   2.481   7.093 -0.5765 -0.7928  0.9837
  115OSM    H7T11987   1.389   2.454   7.048  2.3335 -2.3531 -0.1104
  115OSM    C8S11988   1.409   2.624   7.187 -0.4749 -0.3161 -0.4124
  115OSM    H8S11989   1.488   2.699   7.207 -0.3904 -0.0324 -1.7115
  115OSM    H8T11990   1.408   2.567   7.282  0.5447  0.4713  0.0919
  115OSM    C9S11991   1.265   2.701   7.173  0.2525  0.4098 -0.1718
  115OSM    H9S11992   1.200   2.646   7.101 -0.7453  0.6907  0.4983
  115OSM    H9T11993   1.284   2.799   7.124 -0.7883  0.5848 -0.2484
  115OSM   C10S11994   1.188   2.704   7.312 -0.1626 -0.3309 -0.0691
  115OSM   H10S11995   1.171   2.596   7.331 -0.7000 -0.8333 -2.9410
  115OSM   H10T11996   1.086   2.745   7.297  0.3343  1.3147  0.7490
  115OSM   C11S11997   1.258   2.766   7.431 -0.8775 -0.0745 -0.6175
  115OSM   H11S11998   1.286   2.869   7.399 -0.8459  0.0845 -0.0827
  115OSM   H11T11999   1.350   2.711   7.461 -0.9213  0.3496  0.3207
  115OSM   C12S12000   1.178   2.789   7.554 -0.0010 -0.3318 -0.4075
  115OSM   H12S12001   1.097   2.862   7.534 -1.1977 -1.1393  1.2455
  115OSM   H12T12002   1.245   2.845   7.623  1.2653  0.1368 -1.9571
  115OSM   C13S12003   1.115   2.669   7.615  0.0284  0.3365 -0.1073
  115OSM   H13S12004   1.190   2.588   7.622  0.2066  0.4752 -0.3715
  115OSM   H13T12005   1.027   2.647   7.551 -0.6920 -0.9492  1.2612
  115OSM   C14S12006   1.053   2.707   7.749  0.4028 -0.4851 -1.1890
  115OSM   H14S12007   0.983   2.790   7.725 -2.7243 -2.6919 -0.4491
  115OSM   H14T12008   1.123   2.752   7.823 -1.1212  3.3170 -1.8109
  115OSM   C15S12009   0.973   2.594   7.819 -0.0356  0.5694  0.4134
  115OSM   H15S12010   1.036   2.503   7.814  0.3639  0.9117 -1.3472
  115OSM   H15T12011   0.879   2.579   7.762  0.8162 -1.3464 -0.5561
  115OSM   C16S12012   0.934   2.639   7.961  0.0858 -0.7051 -0.4452
  115OSM   H16S12013   0.858   2.719   7.958  1.4668  0.6432 -2.2440
  115OSM   H16T12014   1.020   2.682   8.017 -0.5432  2.4689 -1.7135
  115OSM   C17S12015   0.871   2.532   8.047  0.2248 -0.0869  0.3077
  115OSM   H17S12016   0.943   2.449   8.060 -1.1146 -1.1975  0.9536
  115OSM   H17T12017   0.787   2.490   7.987 -0.6852  0.5112  1.1235
  115OSM   C18S12018   0.821   2.573   8.194  0.2103 -0.2350  0.7126
  115OSM   H18S12019   0.759   2.664   8.186  1.5502  0.6530 -0.0524
  115OSM   H18T12020   0.910   2.596   8.257  1.8375 -1.8887 -0.8385
  115OSM   H18U12021   0.770   2.490   8.247 -0.6762  0.4941  1.0230
  115OSM    C1F12022   1.878   2.292   6.717 -0.3339  0.6888  0.3058
  115OSM     OF12023   1.939   2.380   6.654  0.8171 -0.8316 -0.0255
  115OSM    C2F12024   1.949   2.192   6.798 -1.0391 -0.2953  0.6635
  115OSM    H2F12025   1.982   2.105   6.737 -0.2509  0.0814  0.5453
  115OSM    H2G12026   1.882   2.148   6.875 -0.6269  0.1431  1.2790
  115OSM    C3F12027   2.080   2.239   6.854 -0.2713  0.0667  0.1723
  115OSM    H3F12028   2.068   2.323   6.926 -0.6459  0.0108  0.1800
  115OSM    H3G12029   2.141   2.282   6.772 -1.8428  1.2877 -0.4198
  115OSM    C4F12030   2.173   2.128   6.906  0.9252  0.1168  0.3574
  115OSM    H4F12031   2.197   2.058   6.823  0.9451 -0.2615  0.6764
  115OSM    H4G12032   2.111   2.077   6.984 -0.1624  1.1091  0.1686
  115OSM    C5F12033   2.308   2.171   6.974 -0.0387 -0.1170  0.1055
  115OSM    H5F12034   2.360   2.235   6.900  0.3923 -0.5749  0.0051
  115OSM    H5G12035   2.356   2.072   6.986 -0.3275 -0.1614  0.9854
  115OSM    C6F12036   2.291   2.245   7.109  0.4466  0.0787  0.2096
  115OSM    H6F12037   2.249   2.343   7.078  0.3521  0.3926  1.2799
  115OSM    H6G12038   2.392   2.250   7.154 -0.8803 -0.6261  3.5906
  115OSM    C7F12039   2.199   2.175   7.211 -0.2646  0.1843  0.2694
  115OSM    H7F12040   2.233   2.071   7.231  1.4657  0.6840  0.1124
  115OSM    H7G12041   2.091   2.166   7.188 -0.9805  0.5740  3.1574
  115OSM    C8F12042   2.180   2.244   7.340  0.2800 -0.5638  0.0533
  115OSM    H8F12043   2.136   2.170   7.410  0.6093 -1.0666 -0.2649
  115OSM    H8G12044   2.107   2.327   7.342  0.5555 -0.3047  2.6567
  115OSM    C9F12045   2.312   2.305   7.389 -0.2077 -0.8033  0.1038
  115OSM    H9F12046   2.349   2.394   7.336  0.5781  0.5269  2.7599
  115OSM   C10F12047   2.397   2.256   7.483  0.5610  0.7041  0.1491
  115OSM   H10F12048   2.482   2.316   7.518  0.8241  0.3286  0.1574
  115OSM   C11F12049   2.381   2.123   7.555  0.1627  0.0364  0.2631
  115OSM   H11F12050   2.449   2.040   7.527 -2.1851 -1.8849 -0.1361
  115OSM   H11G12051   2.279   2.079   7.550  0.7938 -1.4336 -0.3238
  115OSM   C12F12052   2.422   2.165   7.701  0.2056  0.0107 -0.1402
  115OSM   H12F12053   2.360   2.251   7.734 -1.8827 -1.1342 -0.8806
  115OSM   H12G12054   2.530   2.178   7.721  0.0473 -1.0619  1.5682
  115OSM   C13F12055   2.373   2.042   7.788  0.2621  0.3144 -0.0280
  115OSM   H13F12056   2.413   1.951   7.738 -0.1689 -0.9982  1.8894
  115OSM   H13G12057   2.262   2.037   7.779  0.3949 -1.0389 -1.4429
  115OSM   C14F12058   2.422   2.038   7.936 -0.0374  0.6900  0.7985
  115OSM   H14F12059   2.531   2.059   7.938  0.1516  0.0347 -1.1470
  115OSM   H14G12060   2.412   1.934   7.974  0.9898  0.3304  0.1215
  115OSM   C15F12061   2.344   2.139   8.026  0.3747  0.1592  0.1848
  115OSM   H15F12062   2.247   2.148   7.973  1.5150 -3.2383 -3.0023
  115OSM   H15G12063   2.402   2.232   8.012  0.6988 -0.1438 -0.5657
  115OSM   C16F12064   2.318   2.090   8.162 -0.3637  0.0156 -0.3826
  115OSM   H16F12065   2.287   2.166   8.237  0.2203 -0.9176  0.8471
  115OSM   H16G12066   2.417   2.069   8.208 -1.3533  0.9922  2.3517
  115OSM   C17F12067   2.226   1.967   8.166 -0.0701  0.1669  0.1288
  115OSM   H17F12068   2.267   1.871   8.128 -0.0411 -0.0080  0.5865
  115OSM   H17G12069   2.139   2.001   8.106 -1.3730 -2.4718  0.3313
  115OSM   C18F12070   2.180   1.937   8.311 -0.3667  0.4268  0.5114
  115OSM   H18F12071   2.261   1.890   8.370 -1.9090 -0.4276  2.0606
  115OSM   H18G12072   2.090   1.872   8.305 -0.3666  0.3618  1.1456
  115OSM   H18H12073   2.157   2.029   8.368  2.5090  2.2469 -1.0242
  116OSM      N12074   2.380   6.047   6.153 -0.6487 -0.6449  0.2080
  116OSM    C1512075   2.327   6.145   6.058 -0.2821  0.2284 -0.0282
  116OSM   H15A12076   2.255   6.211   6.103 -0.5053 -0.8999  1.3484
  116OSM   H15B12077   2.279   6.090   5.978 -1.2372 -1.0072  1.3522
  116OSM   H15C12078   2.404   6.214   6.024  0.3397  0.0014  0.8779
  116OSM    C1412079   2.264   5.978   6.208 -0.2417  0.7893 -0.0128
  116OSM   H14A12080   2.199   6.043   6.264 -2.6256  0.2451 -1.9907
  116OSM   H14B12081   2.299   5.896   6.270 -0.8678  0.3530 -0.2237
  116OSM   H14C12082   2.203   5.934   6.131  2.3268  0.5428 -2.0221
  116OSM    C1312083   2.479   5.949   6.096 -0.0102 -0.2148 -0.1924
  116OSM   H13A12084   2.428   5.893   6.020  0.3490  0.6594 -1.1029
  116OSM   H13B12085   2.519   5.879   6.168  3.5145  1.2927 -0.4771
  116OSM   H13C12086   2.569   6.003   6.070 -0.3957  0.4991 -0.0604
  116OSM    C1212087   2.442   6.117   6.278 -0.1830  0.5252 -0.3676
  116OSM   H12A12088   2.383   6.194   6.325  1.7534 -0.3391  3.8804
  116OSM   H12B12089   2.526   6.175   6.242  0.1929  3.2218  4.1556
  116OSM    C1112090   2.488   6.025   6.393 -0.0133  0.4171  0.9674
  116OSM   H11A12091   2.409   5.955   6.430 -2.2110  2.0021 -0.4493
  116OSM   H11B12092   2.492   6.093   6.480  0.1375  0.6641  0.7674
  116OSM      P12093   2.755   6.006   6.380  0.2377  0.2905 -0.0730
  116OSM    O1312094   2.852   5.904   6.332  0.6196  0.3770  0.3438
  116OSM    O1412095   2.767   6.141   6.315  0.0258  0.0786 -1.0083
  116OSM    O1112096   2.768   6.028   6.540 -0.3157 -0.4284  0.3267
  116OSM    O1212097   2.607   5.955   6.363  0.4395 -0.2122  0.2516
  116OSM    C1S12098   2.713   5.924   6.625 -0.3259 -0.2248  0.2078
  116OSM    H1S12099   2.728   5.818   6.593 -0.9807 -0.9934  2.2572
  116OSM    H1T12100   2.603   5.925   6.641 -0.3354 -0.4084  0.1603
  116OSM     NF12101   2.758   5.804   6.828 -0.5434 -0.6059  0.3714
  116OSM    HNF12102   2.698   5.817   6.907 -2.1966 -1.2916 -0.6942
  116OSM    C2S12103   2.786   5.924   6.759  0.6533  0.7775  0.3302
  116OSM    H2S12104   2.895   5.933   6.739  1.0067 -3.0566 -0.2571
  116OSM    C3S12105   2.741   6.055   6.830  0.2104 -0.3750 -0.0902
  116OSM    H3S12106   2.633   6.068   6.852  0.1090  2.4542 -1.8313
  116OSM     O312107   2.767   6.173   6.760 -0.1813 -0.1737 -0.3038
  116OSM    HO312108   2.757   6.145   6.669 -0.6649 -0.4032 -0.1831
  116OSM    C4S12109   2.813   6.064   6.961  0.4295  0.1019 -0.5405
  116OSM    H4S12110   2.921   6.043   6.955  0.1026 -2.7287  1.4348
  116OSM    C5S12111   2.757   6.078   7.082  0.4036  0.0141  0.3053
  116OSM    H5S12112   2.648   6.071   7.095  0.4174  0.6021  0.7796
  116OSM    C6S12113   2.832   6.071   7.204  0.1791  0.5377 -0.5682
  116OSM    H6S12114   2.845   6.176   7.239 -0.6220  1.0344 -1.6900
  116OSM    H6T12115   2.935   6.032   7.198 -0.1549 -0.8275  1.3204
  116OSM    C7S12116   2.776   5.979   7.307 -0.0994  0.7589  0.3659
  116OSM    H7S12117   2.792   5.874   7.277 -0.1748  0.6329  0.7610
  116OSM    H7T12118   2.668   5.991   7.329 -1.1067  2.7851 -4.4900
  116OSM    C8S12119   2.846   6.006   7.444 -0.6886  0.2867  0.6494
  116OSM    H8S12120   2.845   6.115   7.462 -0.7638  0.5269 -0.6815
  116OSM    H8T12121   2.953   5.978   7.433 -1.5070 -3.5894  1.1305
  116OSM    C9S12122   2.783   5.933   7.558 -0.1318  0.6878  0.2388
  116OSM    H9S12123   2.780   5.822   7.545  0.6554  0.4767  1.6689
  116OSM    H9T12124   2.682   5.971   7.585 -0.7334 -0.2166 -0.6675
  116OSM   C10S12125   2.864   5.947   7.695  0.5385 -0.0893  0.5583
  116OSM   H10S12126   2.869   6.055   7.720 -1.5074  0.4989 -1.2019
  116OSM   H10T12127   2.965   5.908   7.670 -0.0894 -1.4128 -0.0568
  116OSM   C11S12128   2.802   5.866   7.807 -0.6851 -0.6168  0.1740
  116OSM   H11S12129   2.808   5.763   7.765  0.5387  0.0269 -1.3481
  116OSM   H11T12130   2.692   5.876   7.816 -0.6515 -0.3306  0.2895
  116OSM   C12S12131   2.865   5.900   7.945 -0.3951 -0.0312 -0.6724
  116OSM   H12S12132   2.855   6.008   7.971 -0.6730 -0.3761  0.7452
  116OSM   H12T12133   2.974   5.877   7.948 -0.1232  1.1917  1.6080
  116OSM   C13S12134   2.797   5.828   8.070  0.1693  0.6472 -0.4886
  116OSM   H13S12135   2.788   5.726   8.026  0.9449  0.6790 -0.7485
  116OSM   H13T12136   2.696   5.868   8.092  1.0458  1.4850  2.5326
  116OSM   C14S12137   2.894   5.835   8.194  0.7334  0.9579 -0.2604
  116OSM   H14S12138   3.001   5.818   8.170  0.5132  0.5734 -1.0075
  116OSM   H14T12139   2.865   5.743   8.249  3.2454 -0.6665 -1.4980
  116OSM   C15S12140   2.862   5.966   8.280  0.0633  0.1124 -0.3656
  116OSM   H15S12141   2.876   6.052   8.210  0.3176 -0.0000 -0.4541
  116OSM   H15T12142   2.939   5.967   8.360 -0.0760 -0.5986 -0.2216
  116OSM   C16S12143   2.719   5.972   8.343 -0.1427 -0.2898 -0.1891
  116OSM   H16S12144   2.707   5.875   8.396 -0.1768  0.0624  0.4713
  116OSM   H16T12145   2.640   5.979   8.266 -0.6210 -0.5329  0.2705
  116OSM   C17S12146   2.703   6.097   8.427  0.3796  0.2926  0.3840
  116OSM   H17S12147   2.741   6.185   8.369  2.8334 -1.1860 -0.4076
  116OSM   H17T12148   2.764   6.086   8.519  1.2591 -0.1499 -0.2407
  116OSM   C18S12149   2.557   6.123   8.469  0.2487  0.3256 -0.6418
  116OSM   H18S12150   2.521   6.021   8.495 -2.7341  1.2234 -0.8326
  116OSM   H18T12151   2.488   6.166   8.393  1.1192  2.8624 -0.0915
  116OSM   H18U12152   2.553   6.188   8.559  1.0418 -0.0163 -0.3576
  116OSM    C1F12153   2.810   5.691   6.790 -0.8411 -0.5458 -0.3294
  116OSM     OF12154   2.916   5.699   6.730  0.1889 -0.2779 -0.0219
  116OSM    C2F12155   2.730   5.572   6.823  0.5138  0.9664 -0.8826
  116OSM    H2F12156   2.740   5.484   6.756 -1.8877 -0.3017  0.2800
  116OSM    H2G12157   2.621   5.594   6.825 -0.0728 -1.5983  1.5280
  116OSM    C3F12158   2.751   5.526   6.966 -0.1187 -0.1760  0.5561
  116OSM    H3F12159   2.734   5.598   7.050 -0.9796 -0.3190  0.5168
  116OSM    H3G12160   2.856   5.491   6.962  0.4923  1.5281  0.5824
  116OSM    C4F12161   2.652   5.416   6.992  0.0301  0.0447 -0.5935
  116OSM    H4F12162   2.637   5.337   6.916 -0.7416  1.2613 -1.7586
  116OSM    H4G12163   2.550   5.457   7.008  0.3654  1.5049 -1.9250
  116OSM    C5F12164   2.677   5.342   7.131 -0.0736 -0.4408  0.0174
  116OSM    H5F12165   2.786   5.323   7.130  0.1295  0.5658 -2.0348
  116OSM    H5G12166   2.624   5.245   7.131  1.8778 -1.5597  0.6049
  116OSM    C6F12167   2.653   5.428   7.250  0.0506  0.3946 -0.1506
  116OSM    H6F12168   2.545   5.451   7.245 -0.6540 -1.5528  3.0616
  116OSM    H6G12169   2.713   5.521   7.244  1.4706 -0.5071 -0.4441
  116OSM    C7F12170   2.693   5.364   7.382 -0.0618  0.1080  0.8684
  116OSM    H7F12171   2.795   5.322   7.369  0.2685  1.2477 -0.5221
  116OSM    H7G12172   2.630   5.273   7.391 -0.6099 -0.1228 -3.3599
  116OSM    C8F12173   2.689   5.441   7.522  0.1180 -0.9148 -0.0795
  116OSM    H8F12174   2.601   5.508   7.514  0.0545 -0.7728  1.5071
  116OSM    H8G12175   2.777   5.508   7.534  0.8563 -1.8754 -0.0195
  116OSM    C9F12176   2.668   5.356   7.646 -0.3633 -0.3548  1.3225
  116OSM    H9F12177   2.563   5.348   7.677 -0.4983  0.8641  1.2249
  116OSM   C10F12178   2.758   5.326   7.742  0.3929  0.6239 -0.6026
  116OSM   H10F12179   2.712   5.282   7.832 -1.2668 -2.6231 -2.8494
  116OSM   C11F12180   2.894   5.376   7.746  0.2528  1.2249  0.0147
  116OSM   H11F12181   2.882   5.478   7.789 -0.7896  0.9999  0.2824
  116OSM   H11G12182   2.937   5.378   7.643  1.0996  0.8191  0.3515
  116OSM   C12F12183   2.979   5.290   7.843  0.3874  0.4176 -0.0305
  116OSM   H12F12184   3.085   5.308   7.814  0.1134  1.4958 -0.4163
  116OSM   H12G12185   2.950   5.183   7.828 -0.7949  0.5000  1.4027
  116OSM   C13F12186   2.948   5.318   7.985  0.0271 -0.7247  0.7776
  116OSM   H13F12187   2.862   5.259   8.022  0.5530 -0.9509  1.6656
  116OSM   H13G12188   2.915   5.424   7.989  0.7823 -0.4976  1.1560
  116OSM   C14F12189   3.077   5.314   8.071  0.2941  0.3293  0.4859
  116OSM   H14F12190   3.151   5.395   8.050 -0.3111  0.3283 -1.9186
  116OSM   H14G12191   3.118   5.211   8.066 -2.7698 -0.9644 -0.4353
  116OSM   C15F12192   3.036   5.336   8.218  0.4578  0.6319 -0.0243
  116OSM   H15F12193   2.939   5.289   8.244 -1.3505  3.5070 -1.1087
  116OSM   H15G12194   3.021   5.446   8.227 -1.7647  0.3290  0.6779
  116OSM   C16F12195   3.144   5.278   8.317  0.2815  0.1018  0.0539
  116OSM   H16F12196   3.242   5.317   8.284  0.3215 -1.1312 -1.4093
  116OSM   H16G12197   3.149   5.171   8.290  0.3536 -0.3735  1.8378
  116OSM   C17F12198   3.126   5.305   8.468 -0.1550 -0.6807 -0.5640
  116OSM   H17F12199   3.026   5.272   8.505 -0.0556  2.1141  2.7069
  116OSM   H17G12200   3.127   5.414   8.489 -0.0443 -0.6322 -0.8178
  116OSM   C18F12201   3.246   5.254   8.544  0.0101  0.2786 -0.0640
  116OSM   H18F12202   3.266   5.146   8.526 -0.1303  0.1498  0.5395
  116OSM   H18G12203   3.219   5.278   8.649 -2.2294  0.1571 -0.5724
  116OSM   H18H12204   3.332   5.311   8.503  0.0540  0.1679 -0.1261
  117OSM      N12205   0.810   1.987   5.952 -0.1626 -0.1111 -0.2229
  117OSM    C1512206   0.870   2.099   5.865 -0.1270 -0.0267 -0.4600
  117OSM   H15A12207   0.902   2.177   5.931 -0.1526 -0.7264  0.3922
  117OSM   H15B12208   0.783   2.138   5.814 -0.3400  2.0377  1.3538
  117OSM   H15C12209   0.952   2.064   5.805  3.5412  3.8980  1.7732
  117OSM    C1412210   0.700   2.049   6.038 -0.0147  0.7924 -0.3256
  117OSM   H14A12211   0.632   2.114   5.985 -2.2824 -0.6798  0.6420
  117OSM   H14B12212   0.743   2.111   6.116  1.1201  1.1766 -1.2187
  117OSM   H14C12213   0.640   1.971   6.082  1.3790 -0.5806 -0.7660
  117OSM    C1312214   0.751   1.882   5.866  0.4274 -0.1339 -0.3148
  117OSM   H13A12215   0.830   1.842   5.804 -0.2660 -1.6865 -0.2650
  117OSM   H13B12216   0.670   1.918   5.805  0.3454  1.7352  0.8425
  117OSM   H13C12217   0.707   1.800   5.922  0.9840 -0.3324 -0.1602
  117OSM    C1212218   0.917   1.918   6.038 -0.8725  0.7406  0.2897
  117OSM   H12A12219   1.001   1.901   5.972  0.5510  0.0604  2.1830
  117OSM   H12B12220   0.881   1.823   6.074  0.1315 -0.1846 -1.0820
  117OSM    C1112221   0.972   1.996   6.162 -0.2351 -0.7202 -0.6866
  117OSM   H11A12222   1.050   1.941   6.218 -0.7711  0.0701  0.9026
  117OSM   H11B12223   0.892   2.013   6.238  0.3845 -1.9170  0.2670
  117OSM      P12224   1.015   2.244   6.198  0.0919 -0.0856  0.4575
  117OSM    O1312225   1.073   2.363   6.139  0.5276 -0.6545  0.2779
  117OSM    O1412226   0.870   2.250   6.231  0.6476  0.1720 -0.6408
  117OSM    O1112227   1.086   2.222   6.335  0.5112  0.0227 -0.4966
  117OSM    O1212228   1.033   2.115   6.110  0.5333 -0.1266 -0.0953
  117OSM    C1S12229   1.106   2.312   6.446 -0.1742 -0.1360  0.3307
  117OSM    H1S12230   1.038   2.400   6.444  1.9367  1.6027 -0.4942
  117OSM    H1T12231   1.213   2.344   6.453 -0.3192  1.0143 -1.8210
  117OSM     NF12232   1.130   2.315   6.702  0.7703  0.5448  0.2367
  117OSM    HNF12233   1.215   2.282   6.744 -0.1336 -0.9465  0.9701
  117OSM    C2S12234   1.091   2.238   6.582 -0.2462 -0.3435 -0.0494
  117OSM    H2S12235   0.983   2.215   6.593 -0.4807  0.6431 -0.1711
  117OSM    C3S12236   1.179   2.107   6.580  0.1380  0.3852 -0.3914
  117OSM    H3S12237   1.278   2.136   6.541 -0.3992 -0.0929 -2.2192
  117OSM     O312238   1.140   2.003   6.488  0.0808 -0.7373 -0.4246
  117OSM    HO312239   1.083   2.052   6.429 -0.8268 -0.0391  0.9730
  117OSM    C4S12240   1.167   2.031   6.711  0.4006  0.0680 -0.2779
  117OSM    H4S12241   1.068   1.987   6.725  2.2032 -3.7893  2.1285
  117OSM    C5S12242   1.252   1.999   6.806 -1.0612  0.3399  0.3318
  117OSM    H5S12243   1.360   2.013   6.789 -1.1956 -0.3197 -1.1581
  117OSM    C6S12244   1.210   1.918   6.923 -0.4412  0.3028 -0.3281
  117OSM    H6S12245   1.254   1.817   6.914 -3.5243 -1.4221  2.0342
  117OSM    H6T12246   1.100   1.903   6.935 -0.2007  0.4670  3.0246
  117OSM    C7S12247   1.279   1.962   7.054  0.0343  0.1237 -0.4496
  117OSM    H7S12248   1.388   1.961   7.032  0.0307 -0.2192 -0.4609
  117OSM    H7T12249   1.263   1.884   7.132 -0.6442  0.9501  0.2590
  117OSM    C8S12250   1.235   2.096   7.109 -0.1319 -0.3923 -0.0142
  117OSM    H8S12251   1.136   2.092   7.158  0.3705 -0.6931  1.0093
  117OSM    H8T12252   1.221   2.180   7.037 -0.8647  2.0947  2.8076
  117OSM    C9S12253   1.338   2.160   7.208  0.6632  0.1602 -0.0354
  117OSM    H9S12254   1.288   2.246   7.256  1.6700  1.2297 -0.8154
  117OSM    H9T12255   1.424   2.192   7.145  0.2325 -0.2448 -0.8452
  117OSM   C10S12256   1.398   2.071   7.315 -0.3677 -0.9762 -0.6670
  117OSM   H10S12257   1.460   1.996   7.261  2.2479 -0.7334  1.8230
  117OSM   H10T12258   1.321   2.023   7.379 -1.6499  1.7196 -0.0613
  117OSM   C11S12259   1.476   2.156   7.417 -0.4546 -0.4299 -0.2451
  117OSM   H11S12260   1.397   2.192   7.485  0.1555  3.5610 -1.3697
  117OSM   H11T12261   1.522   2.238   7.357  0.3241  0.6105  1.6642
  117OSM   C12S12262   1.575   2.060   7.485  0.5408  0.2498  0.6932
  117OSM   H12S12263   1.511   1.969   7.498 -1.0097  0.9499 -1.3951
  117OSM   H12T12264   1.608   2.100   7.583  0.6904  1.9656 -0.0359
  117OSM   C13S12265   1.701   2.032   7.404 -0.7346 -1.0471  0.2723
  117OSM   H13S12266   1.772   2.118   7.406  0.1572 -1.7776  2.1694
  117OSM   H13T12267   1.678   2.002   7.300 -1.0596 -1.9521  0.6016
  117OSM   C14S12268   1.780   1.898   7.446 -0.0482  0.1674  0.4030
  117OSM   H14S12269   1.710   1.811   7.445 -2.2528  1.8427  0.3187
  117OSM   H14T12270   1.816   1.914   7.550  2.1608 -0.4729 -0.2137
  117OSM   C15S12271   1.914   1.882   7.368 -0.1816 -0.1762  0.0920
  117OSM   H15S12272   1.978   1.973   7.369 -2.6618  1.7483 -2.5372
  117OSM   H15T12273   1.891   1.872   7.260 -0.3442  0.6850  0.0450
  117OSM   C16S12274   1.993   1.762   7.410  0.5271 -0.2029  0.3474
  117OSM   H16S12275   1.936   1.669   7.387  0.1406 -0.6693  2.8915
  117OSM   H16T12276   1.999   1.747   7.520 -1.1400 -0.6546  0.3998
  117OSM   C17S12277   2.129   1.754   7.341  0.3029 -0.2701 -0.1612
  117OSM   H17S12278   2.210   1.703   7.398 -0.3004  1.2671  2.2057
  117OSM   H17T12279   2.159   1.860   7.332 -5.5319  1.8091  0.9240
  117OSM   C18S12280   2.102   1.690   7.197  0.3568  0.0175 -0.1556
  117OSM   H18S12281   2.078   1.582   7.206  0.5205 -0.1075 -1.0855
  117OSM   H18T12282   2.189   1.707   7.130 -0.5391  1.9637 -0.8827
  117OSM   H18U12283   2.013   1.735   7.149  2.1986  1.6855 -2.2219
  117OSM    C1F12284   1.070   2.430   6.730  0.5357 -0.9837  0.0176
  117OSM     OF12285   0.994   2.483   6.655  0.0564  0.4222 -0.4423
  117OSM    C2F12286   1.093   2.470   6.868 -0.5969 -0.3590  0.0474
  117OSM    H2F12287   1.174   2.546   6.872  0.6858 -1.5795 -1.4738
  117OSM    H2G12288   1.140   2.381   6.915  1.0003 -0.2402 -1.2266
  117OSM    C3F12289   0.969   2.518   6.945  0.1267 -1.1658 -0.1675
  117OSM    H3F12290   1.016   2.548   7.040  1.3358 -1.6770 -0.5936
  117OSM    H3G12291   0.901   2.434   6.970 -0.8984 -0.5579 -0.8002
  117OSM    C4F12292   0.892   2.634   6.885 -0.0444 -0.4150  0.4764
  117OSM    H4F12293   0.858   2.602   6.784  1.4478 -1.4766  0.2818
  117OSM    H4G12294   0.961   2.722   6.879 -0.9255  0.2459 -0.4698
  117OSM    C5F12295   0.764   2.672   6.961  0.0583  0.4789  0.0209
  117OSM    H5F12296   0.713   2.574   6.967 -1.1789  0.9735 -1.7561
  117OSM    H5G12297   0.701   2.736   6.896 -0.4272 -1.8972 -1.9695
  117OSM    C6F12298   0.796   2.729   7.098 -0.4194  0.4115 -0.5723
  117OSM    H6F12299   0.871   2.810   7.084  2.0646 -1.4544  1.0315
  117OSM    H6G12300   0.853   2.657   7.161  0.0656  2.5304  1.5602
  117OSM    C7F12301   0.670   2.777   7.173 -0.0548 -1.8195  0.3899
  117OSM    H7F12302   0.587   2.703   7.181 -1.2036 -0.4995  1.1970
  117OSM    H7G12303   0.628   2.864   7.118  1.2200 -2.0083 -0.9169
  117OSM    C8F12304   0.707   2.818   7.321  0.5284  0.6394  0.5188
  117OSM    H8F12305   0.765   2.730   7.358 -0.8569 -0.6026 -0.1396
  117OSM    H8G12306   0.614   2.826   7.382  1.4691 -0.5117  2.1698
  117OSM    C9F12307   0.785   2.940   7.322  0.3221  0.2416 -0.7332
  117OSM    H9F12308   0.825   2.969   7.224  0.8152 -0.6180 -0.7958
  117OSM   C10F12309   0.790   3.023   7.428  0.8493 -0.3681 -0.8624
  117OSM   H10F12310   0.848   3.115   7.409  1.8140 -1.0992 -1.5941
  117OSM   C11F12311   0.730   3.014   7.562 -0.7641 -0.4932  0.1423
  117OSM   H11F12312   0.701   2.908   7.580 -0.5863 -0.6196 -0.3167
  117OSM   H11G12313   0.638   3.076   7.568 -0.8508 -0.7052  1.3744
  117OSM   C12F12314   0.824   3.046   7.680 -0.4767 -0.1952 -0.1567
  117OSM   H12F12315   0.863   3.148   7.660 -0.5653 -0.3773 -1.3394
  117OSM   H12G12316   0.901   2.966   7.686 -1.2586 -0.9507 -0.0600
  117OSM   C13F12317   0.764   3.038   7.819 -0.4327 -0.4668  0.2730
  117OSM   H13F12318   0.701   2.948   7.832 -1.6618  0.4078  0.5020
  117OSM   H13G12319   0.687   3.114   7.842 -0.3205 -0.3024  0.1171
  117OSM   C14F12320   0.878   3.036   7.929 -0.5051  1.3138  0.5317
  117OSM   H14F12321   0.940   3.128   7.932  0.9999  0.5011 -1.8625
  117OSM   H14G12322   0.956   2.960   7.907 -0.9614  0.9651  0.0858
  117OSM   C15F12323   0.820   2.992   8.066  0.0056  0.5513 -0.4644
  117OSM   H15F12324   0.904   2.949   8.124  0.4604  2.2230  0.1907
  117OSM   H15G12325   0.750   2.906   8.070 -0.4185  0.8871 -0.5193
  117OSM   C16F12326   0.759   3.110   8.151  0.3539  0.4599 -0.9865
  117OSM   H16F12327   0.657   3.123   8.109 -1.3036 -2.4026  1.6814
  117OSM   H16G12328   0.821   3.202   8.151 -1.1825  1.5493  0.1919
  117OSM   C17F12329   0.739   3.073   8.299 -0.6311  0.5745  0.0804
  117OSM   H17F12330   0.660   3.134   8.347 -0.6687  0.4055  0.2341
  117OSM   H17G12331   0.714   2.966   8.314 -0.9056  0.3643 -1.6629
  117OSM   C18F12332   0.871   3.089   8.371  0.8008  0.1350 -0.0566
  117OSM   H18F12333   0.862   3.059   8.478 -0.0639  2.7373  0.6853
  117OSM   H18G12334   0.892   3.199   8.375 -3.1043  1.0437 -0.3947
  117OSM   H18H12335   0.960   3.044   8.322 -0.1214 -2.3194  0.3874
  118OSM      N12336   3.012   3.065   5.835 -0.5864  0.3122 -0.0069
  118OSM    C1512337   2.969   3.149   5.717 -0.4200  0.6667  0.1404
  118OSM   H15A12338   2.959   3.093   5.625  2.0101  0.3841 -0.0307
  118OSM   H15B12339   3.036   3.233   5.703  0.9155 -0.6656 -2.1242
  118OSM   H15C12340   2.874   3.197   5.731 -0.3526  1.0190 -0.5411
  118OSM    C1412341   2.909   2.959   5.855 -0.4496 -0.2276  0.8812
  118OSM   H14A12342   2.906   2.902   5.763  0.6546  0.9717  0.0602
  118OSM   H14B12343   2.814   3.008   5.860  0.7903  2.3305  0.8696
  118OSM   H14C12344   2.924   2.904   5.946  0.9207 -5.0549 -1.8804
  118OSM    C1312345   3.136   2.991   5.800  0.3659 -0.3559  0.3943
  118OSM   H13A12346   3.163   2.929   5.884  2.7297 -0.7261 -0.5666
  118OSM   H13B12347   3.209   3.069   5.783 -2.0811  1.7298 -1.1844
  118OSM   H13C12348   3.136   2.939   5.705  0.7920  1.0735 -0.4150
  118OSM    C1212349   3.039   3.145   5.963 -0.2253 -0.1960  0.0630
  118OSM   H12A12350   2.945   3.194   5.985 -0.5355 -0.1757 -1.2269
  118OSM   H12B12351   3.110   3.224   5.948 -0.2598 -0.1657  0.0570
  118OSM    C1112352   3.087   3.064   6.086  0.6829 -0.0453  0.8994
  118OSM   H11A12353   3.019   2.977   6.099 -2.3927  1.6791 -1.9622
  118OSM   H11B12354   3.081   3.128   6.176  2.4829 -1.1477  1.8586
  118OSM      P12355   3.334   3.131   6.113  0.2423  0.4537  0.0369
  118OSM    O1312356   3.459   3.078   6.062 -0.0650 -0.5913 -0.2097
  118OSM    O1412357   3.306   3.272   6.073  0.4276  0.3743 -0.8695
  118OSM    O1112358   3.332   3.126   6.271 -0.3154 -0.3266  0.1676
  118OSM    O1212359   3.222   3.031   6.072  0.0646  0.1681  1.1119
  118OSM    C1S12360   3.313   3.010   6.348 -0.1749 -0.5594 -0.0026
  118OSM    H1S12361   3.377   2.923   6.321  0.7728  0.3513 -0.7646
  118OSM    H1T12362   3.204   2.989   6.337 -0.0203 -0.6160 -1.8083
  118OSM     NF12363   3.350   2.934   6.586  0.9221  0.1999 -0.3750
  118OSM    HNF12364   3.275   2.895   6.640  1.9602 -1.4834 -0.0521
  118OSM    C2S12365   3.334   3.053   6.502 -0.7890 -0.0350  0.0831
  118OSM    H2S12366   3.421   3.120   6.521  0.0976 -1.5959  1.9759
  118OSM    C3S12367   3.214   3.143   6.536  0.2714 -0.3530 -0.1775
  118OSM    H3S12368   3.129   3.074   6.518  0.1019 -0.1066 -0.3377
  118OSM     O312369   3.195   3.258   6.451  0.2371 -0.5055 -0.1155
  118OSM    HO312370   3.249   3.220   6.381  1.8265  3.1386 -1.1056
  118OSM    C4S12371   3.211   3.182   6.683 -0.0255 -0.1668  1.1658
  118OSM    H4S12372   3.190   3.106   6.759 -0.5807  0.4565  1.6405
  118OSM    C5S12373   3.247   3.304   6.724 -0.5175  0.0199  0.0573
  118OSM    H5S12374   3.276   3.380   6.650 -0.3571 -0.7289 -0.6619
  118OSM    C6S12375   3.246   3.370   6.855 -0.7573  1.2012  0.4566
  118OSM    H6S12376   3.180   3.317   6.928 -0.8495 -0.5860 -0.8514
  118OSM    H6T12377   3.209   3.474   6.841 -0.5511  1.2516  0.2844
  118OSM    C7S12378   3.386   3.400   6.911  0.2156  0.1120 -0.1133
  118OSM    H7S12379   3.437   3.468   6.839 -0.2801  1.3078  0.6472
  118OSM    H7T12380   3.455   3.312   6.916 -0.3698 -0.4044 -0.9766
  118OSM    C8S12381   3.376   3.468   7.058  0.2622 -0.6921 -0.1003
  118OSM    H8S12382   3.304   3.401   7.109  1.6475 -0.9038  1.6867
  118OSM    H8T12383   3.342   3.572   7.042  2.2566 -0.1569 -1.2532
  118OSM    C9S12384   3.513   3.458   7.146 -0.7826  0.3713 -0.4244
  118OSM    H9S12385   3.588   3.529   7.104 -0.4787 -0.0158 -0.5426
  118OSM    H9T12386   3.553   3.356   7.128  0.6520  0.6516  0.9155
  118OSM   C10S12387   3.481   3.480   7.291 -0.2782 -0.1135  0.2439
  118OSM   H10S12388   3.377   3.507   7.315 -0.1709  2.1573 -1.5001
  118OSM   H10T12389   3.556   3.549   7.334  0.3908 -0.6806  0.0238
  118OSM   C11S12390   3.500   3.344   7.362  0.0635  0.7601  0.1975
  118OSM   H11S12391   3.577   3.283   7.310  1.1793  2.6479 -0.4489
  118OSM   H11T12392   3.407   3.285   7.351  0.4068  0.0710  0.8829
  118OSM   C12S12393   3.540   3.353   7.507  1.0072  0.0626  0.4678
  118OSM   H12S12394   3.472   3.421   7.563  2.6614  0.1683  2.4516
  118OSM   H12T12395   3.638   3.404   7.510  0.0358  2.0317 -0.0414
  118OSM   C13S12396   3.565   3.219   7.580 -0.4422 -0.1057 -0.1014
  118OSM   H13S12397   3.652   3.166   7.537 -1.7044 -1.4530 -1.0943
  118OSM   H13T12398   3.477   3.151   7.575 -0.1005 -0.6521  0.9018
  118OSM   C14S12399   3.592   3.235   7.728  0.0535  0.2739  0.8648
  118OSM   H14S12400   3.500   3.274   7.777 -0.0459  0.1160  0.8028
  118OSM   H14T12401   3.684   3.296   7.739  0.0936  0.1514  1.2225
  118OSM   C15S12402   3.628   3.096   7.793 -0.2270  0.6307 -0.3085
  118OSM   H15S12403   3.705   3.034   7.743 -0.3320 -0.4764  0.8615
  118OSM   H15T12404   3.535   3.038   7.806  1.3510 -1.8051  0.7460
  118OSM   C16S12405   3.686   3.119   7.939  0.0056 -0.1465 -0.4300
  118OSM   H16S12406   3.765   3.197   7.943 -0.7814  0.5975  1.4714
  118OSM   H16T12407   3.725   3.019   7.968  0.3697 -0.2048 -1.0960
  118OSM   C17S12408   3.576   3.165   8.039  0.4577 -1.0214  0.6500
  118OSM   H17S12409   3.483   3.104   8.041 -0.1172 -0.3264 -1.6561
  118OSM   H17T12410   3.530   3.256   7.996 -0.7396 -2.6452 -1.7438
  118OSM   C18S12411   3.639   3.185   8.171  0.2870 -0.1115  0.5852
  118OSM   H18S12412   3.683   3.086   8.196 -0.3512 -1.1580 -2.1140
  118OSM   H18T12413   3.568   3.223   8.248 -0.9503 -1.0647 -0.0607
  118OSM   H18U12414   3.714   3.267   8.170 -2.1100  2.2524 -1.6717
  118OSM    C1F12415   3.471   2.878   6.585  0.4000  0.6045  0.3943
  118OSM     OF12416   3.564   2.934   6.534  0.0173 -0.1448  0.1101
  118OSM    C2F12417   3.485   2.760   6.679 -0.1887  0.5500 -0.4219
  118OSM    H2F12418   3.534   2.674   6.628 -0.8174  0.5529 -1.0397
  118OSM    H2G12419   3.389   2.714   6.710  0.8313 -0.9327  0.7452
  118OSM    C3F12420   3.561   2.806   6.803  0.0079  0.6707 -1.3061
  118OSM    H3F12421   3.668   2.831   6.786 -0.0818  0.7346 -1.8177
  118OSM    H3G12422   3.563   2.712   6.862 -1.9386  1.5375  0.2351
  118OSM    C4F12423   3.486   2.922   6.876 -0.4336 -0.1697 -0.1488
  118OSM    H4F12424   3.379   2.897   6.892 -0.6438  1.2601  0.8562
  118OSM    H4G12425   3.486   3.013   6.812 -1.2324 -0.0316  0.0397
  118OSM    C5F12426   3.555   2.959   7.007 -0.4965  0.2476  1.0970
  118OSM    H5F12427   3.511   3.053   7.047  2.3308  1.9123  0.5540
  118OSM    H5G12428   3.659   2.994   6.990 -0.3324 -0.7402 -0.0716
  118OSM    C6F12429   3.568   2.850   7.110 -0.3085 -0.0582 -1.1690
  118OSM    H6F12430   3.629   2.764   7.075 -1.0562 -1.5688  1.0726
  118OSM    H6G12431   3.469   2.813   7.144  0.0197 -0.6647 -0.8733
  118OSM    C7F12432   3.637   2.917   7.237  0.0709 -0.2182  0.5862
  118OSM    H7F12433   3.629   2.848   7.324 -0.1603  2.1334  2.5155
  118OSM    H7G12434   3.585   3.007   7.274  3.0196  2.4657 -1.2551
  118OSM    C8F12435   3.787   2.939   7.227  0.4604 -0.0657 -0.5165
  118OSM    H8F12436   3.800   3.009   7.142  1.3572 -2.1159 -2.1624
  118OSM    H8G12437   3.845   2.849   7.197  2.0134  1.5038 -2.5334
  118OSM    C9F12438   3.836   3.005   7.357  1.0788 -0.6888  0.6945
  118OSM    H9F12439   3.763   3.072   7.405 -2.0608 -2.1914 -1.6069
  118OSM   C10F12440   3.943   2.966   7.427  0.3623  0.4354  0.1866
  118OSM   H10F12441   3.963   3.033   7.513  2.0342  1.0168 -0.6202
  118OSM   C11F12442   4.037   2.851   7.405  0.6806  0.6222  0.9495
  118OSM   H11F12443   4.134   2.902   7.385 -0.1269  1.6039 -0.7566
  118OSM   H11G12444   4.014   2.789   7.315  3.0208 -1.1778  1.5100
  118OSM   C12F12445   4.049   2.752   7.528 -0.6235 -0.5119 -0.1567
  118OSM   H12F12446   4.105   2.664   7.492  0.5680 -0.5235  1.5823
  118OSM   H12G12447   3.947   2.728   7.566  0.1361  1.5535  3.7861
  118OSM   C13F12448   4.124   2.810   7.647 -0.6499  0.0356  0.2462
  118OSM   H13F12449   4.070   2.900   7.682 -1.7513  0.1906 -1.7171
  118OSM   H13G12450   4.230   2.828   7.620 -0.6089  0.3840  0.6325
  118OSM   C14F12451   4.141   2.702   7.760  1.1992 -0.1011 -0.2396
  118OSM   H14F12452   4.200   2.615   7.722  0.8316  0.1787 -1.5125
  118OSM   H14G12453   4.036   2.672   7.783  0.9254  1.3991  0.6083
  118OSM   C15F12454   4.208   2.762   7.883  0.0197 -0.1838 -1.2507
  118OSM   H15F12455   4.297   2.821   7.854  0.1794 -0.7720 -1.9903
  118OSM   H15G12456   4.232   2.679   7.953 -2.2104 -0.3675 -0.6173
  118OSM   C16F12457   4.105   2.846   7.960 -0.2917  0.1175  0.3169
  118OSM   H16F12458   4.017   2.781   7.982 -0.9100  1.4695  2.1179
  118OSM   H16G12459   4.068   2.921   7.886 -0.4786 -0.8078 -0.5575
  118OSM   C17F12460   4.146   2.901   8.093 -0.7082 -0.4072 -0.6569
  118OSM   H17F12461   4.235   2.967   8.089 -0.9980 -0.0717 -2.8180
  118OSM   H17G12462   4.164   2.812   8.156 -0.1965 -1.5558 -2.3672
  118OSM   C18F12463   4.032   2.972   8.167  0.0433  0.0251 -0.1815
  118OSM   H18F12464   3.952   2.909   8.212  1.0372  0.1701  1.8962
  118OSM   H18G12465   3.983   3.055   8.111 -0.5644  0.8650  1.5212
  118OSM   H18H12466   4.067   3.044   8.244  1.3092  0.0427 -0.7556
  119OSM      N12467   4.379   3.040   5.947  0.6311  0.2441 -0.2445
  119OSM    C1512468   4.477   2.932   5.979  0.7305  0.0817  0.1602
  119OSM   H15A12469   4.553   2.968   6.046  2.3804 -1.8381 -0.5853
  119OSM   H15B12470   4.522   2.903   5.885  2.7013  0.6805  0.8764
  119OSM   H15C12471   4.420   2.846   6.010  0.6165 -0.4482 -1.4009
  119OSM    C1412472   4.302   3.068   6.080 -0.1896 -0.4223 -0.1460
  119OSM   H14A12473   4.226   3.143   6.070  0.8308  0.5834 -0.5693
  119OSM   H14B12474   4.366   3.107   6.158  1.2362 -0.6359 -1.1552
  119OSM   H14C12475   4.263   2.973   6.113  0.1083 -0.5458 -0.1467
  119OSM    C1312476   4.467   3.155   5.914  0.5685  0.7895  0.0914
  119OSM   H13A12477   4.400   3.239   5.900  0.8222  0.9578 -0.1217
  119OSM   H13B12478   4.530   3.132   5.829 -2.2429  0.6371 -2.1046
  119OSM   H13C12479   4.529   3.183   5.998  0.7865  0.4614  0.0403
  119OSM    C1212480   4.287   2.993   5.834 -0.2707  0.2698 -0.2887
  119OSM   H12A12481   4.346   2.983   5.744  0.4539  1.5101  0.0288
  119OSM   H12B12482   4.227   3.080   5.813  0.2241  0.5739 -0.4377
  119OSM    C1112483   4.201   2.864   5.845  0.1737  0.2259 -0.0540
  119OSM   H11A12484   4.254   2.776   5.889 -1.6066  0.1940  2.2502
  119OSM   H11B12485   4.152   2.847   5.747 -1.3652 -0.9590  0.8704
  119OSM      P12486   3.967   2.970   5.912  0.3517 -0.1461 -0.0154
  119OSM    O1312487   3.984   3.051   5.789  0.2003  0.5817 -0.3803
  119OSM    O1412488   3.852   2.870   5.930 -0.1847  0.0679  0.5401
  119OSM    O1112489   3.973   3.069   6.041  0.6333  0.0785  0.1080
  119OSM    O1212490   4.096   2.886   5.941 -0.4003  0.6660  0.0721
  119OSM    C1S12491   3.935   3.006   6.163 -0.4543  0.1458 -0.9702
  119OSM    H1S12492   4.010   2.939   6.210 -1.8865  1.7292  4.2976
  119OSM    H1T12493   3.835   2.957   6.155 -2.0181  2.7308  0.9459
  119OSM     NF12494   3.877   3.050   6.407 -0.2046  0.5755  0.1241
  119OSM    HNF12495   3.779   3.033   6.419 -0.1187  1.0830  1.8001
  119OSM    C2S12496   3.901   3.113   6.275 -0.2585  0.1409  0.1859
  119OSM    H2S12497   3.978   3.193   6.279 -0.4602  0.5477 -2.2379
  119OSM    C3S12498   3.783   3.197   6.225  0.9621 -0.1300  0.7859
  119OSM    H3S12499   3.700   3.129   6.196  1.9604 -0.9189 -0.3420
  119OSM     O312500   3.778   3.275   6.102  0.4611 -0.5368 -0.5254
  119OSM    HO312501   3.869   3.293   6.078  0.0184  2.0334 -0.6304
  119OSM    C4S12502   3.738   3.308   6.312 -0.3749 -0.2374 -0.4889
  119OSM    H4S12503   3.813   3.387   6.327 -0.8477  0.0399  0.5210
  119OSM    C5S12504   3.616   3.319   6.364 -0.1107 -0.3649  0.2660
  119OSM    H5S12505   3.545   3.235   6.359  0.0169 -0.4305 -0.6540
  119OSM    C6S12506   3.586   3.426   6.465 -0.0148  0.2043  0.7991
  119OSM    H6S12507   3.477   3.431   6.483 -0.3539 -0.5532 -0.8021
  119OSM    H6T12508   3.629   3.523   6.431 -0.0036 -0.3704 -0.9494
  119OSM    C7S12509   3.674   3.398   6.592 -0.3082  0.5222  0.1941
  119OSM    H7S12510   3.653   3.478   6.667  0.3478  0.3913  0.5308
  119OSM    H7T12511   3.782   3.395   6.565 -0.4644  0.1270 -0.4059
  119OSM    C8S12512   3.645   3.269   6.670  0.0529  0.2821 -0.0287
  119OSM    H8S12513   3.663   3.185   6.600 -1.1309 -0.0966  0.1007
  119OSM    H8T12514   3.538   3.255   6.697 -0.1971  0.9991 -0.6424
  119OSM    C9S12515   3.722   3.261   6.804  0.3895  1.2427 -0.1579
  119OSM    H9S12516   3.703   3.159   6.844  2.1991  0.8195 -0.2758
  119OSM    H9T12517   3.676   3.348   6.854 -0.0994  2.7991 -3.1225
  119OSM   C10S12518   3.878   3.268   6.800 -0.2810 -0.5412 -0.1261
  119OSM   H10S12519   3.918   3.366   6.766 -4.9407  0.8826 -2.3377
  119OSM   H10T12520   3.910   3.195   6.722 -1.9120  0.2314 -1.6009
  119OSM   C11S12521   3.940   3.219   6.934 -0.0495 -0.1565 -0.6051
  119OSM   H11S12522   4.050   3.234   6.927  0.0422 -0.4760  0.0730
  119OSM   H11T12523   3.922   3.112   6.957  0.7755 -0.4088 -1.1303
  119OSM   C12S12524   3.891   3.304   7.060  0.5345  0.8162  0.3123
  119OSM   H12S12525   3.785   3.282   7.088  0.8924  0.6420  1.5856
  119OSM   H12T12526   3.886   3.409   7.024 -0.2040  0.1657 -1.5800
  119OSM   C13S12527   3.993   3.272   7.169  0.2784  0.6627 -0.4356
  119OSM   H13S12528   4.099   3.287   7.141  0.4407 -0.9706 -0.8096
  119OSM   H13T12529   3.985   3.164   7.192 -1.4559  0.8739  0.0983
  119OSM   C14S12530   3.958   3.352   7.299  0.2439  0.2045  0.1060
  119OSM   H14S12531   3.854   3.327   7.329 -0.5938  2.2294 -0.8550
  119OSM   H14T12532   3.955   3.460   7.272 -0.7196  0.0008 -0.6771
  119OSM   C15S12533   4.052   3.322   7.412 -0.1743 -0.8371 -0.2184
  119OSM   H15S12534   4.135   3.395   7.419  0.8482 -1.9673 -0.1310
  119OSM   H15T12535   4.096   3.220   7.401  0.7343 -0.4191 -0.5117
  119OSM   C16S12536   3.999   3.307   7.560 -0.5059 -0.0807  0.3402
  119OSM   H16S12537   3.914   3.235   7.560 -0.6108  0.0153 -1.2941
  119OSM   H16T12538   3.947   3.401   7.589 -1.9503  0.3945 -3.2734
  119OSM   C17S12539   4.107   3.262   7.656  0.1555 -0.4336 -0.4876
  119OSM   H17S12540   4.183   3.343   7.659 -1.5373  1.2243 -0.8202
  119OSM   H17T12541   4.158   3.171   7.616  0.5879 -0.6347  0.4965
  119OSM   C18S12542   4.048   3.244   7.795  0.2738 -0.0167  0.2879
  119OSM   H18S12543   4.117   3.215   7.877  0.7336 -0.3715 -0.2122
  119OSM   H18T12544   3.964   3.171   7.791  2.0590 -2.3432  2.3249
  119OSM   H18U12545   4.000   3.341   7.818 -0.6009 -0.5893  0.9434
  119OSM    C1F12546   3.974   3.004   6.482 -0.5444 -0.4420  0.4901
  119OSM     OF12547   4.089   3.036   6.458  0.7515  0.0015 -0.4820
  119OSM    C2F12548   3.938   2.920   6.591  0.5482  0.7482 -0.1951
  119OSM    H2F12549   3.898   2.819   6.565  2.3994 -0.1490  0.2520
  119OSM    H2G12550   3.854   2.971   6.642  0.9977  0.1500  1.1951
  119OSM    C3F12551   4.052   2.908   6.693  0.1199 -0.2111  0.8965
  119OSM    H3F12552   4.084   3.011   6.718  0.8677 -0.1658 -0.1608
  119OSM    H3G12553   4.148   2.859   6.664 -0.0929 -0.0137 -0.1840
  119OSM    C4F12554   3.999   2.836   6.818 -0.1950  0.1084 -0.6348
  119OSM    H4F12555   3.893   2.850   6.848 -0.9444 -3.3727 -1.1776
  119OSM    H4G12556   4.061   2.875   6.901 -1.4496 -2.0724  1.4627
  119OSM    C5F12557   4.025   2.687   6.807  0.6271  0.2241 -0.1831
  119OSM    H5F12558   4.129   2.679   6.768  1.3198 -2.3634  1.8684
  119OSM    H5G12559   3.966   2.643   6.725 -0.0791  0.9830 -0.0889
  119OSM    C6F12560   4.011   2.604   6.937  0.2016  0.3230  0.6914
  119OSM    H6F12561   3.903   2.607   6.959  0.1371 -0.2455  0.4893
  119OSM    H6G12562   4.061   2.657   7.020  0.5895 -1.4876  1.6706
  119OSM    C7F12563   4.063   2.456   6.919 -0.0651  0.3093 -0.4004
  119OSM    H7F12564   4.169   2.465   6.889  0.4405 -0.0904  1.1682
  119OSM    H7G12565   3.994   2.423   6.839  0.1428  1.4355 -1.0560
  119OSM    C8F12566   4.052   2.383   7.054  0.0202  0.3379 -0.0487
  119OSM    H8F12567   3.955   2.412   7.100 -1.1089 -0.6795 -1.6995
  119OSM    H8G12568   4.139   2.410   7.118  0.2836 -2.5227  0.9275
  119OSM    C9F12569   4.057   2.232   7.039 -0.1818  0.1650 -0.2615
  119OSM    H9F12570   4.092   2.210   6.937  2.2775 -0.1862  0.5893
  119OSM   C10F12571   4.045   2.135   7.137  0.2966 -0.8756  0.0535
  119OSM   H10F12572   4.071   2.032   7.109  0.1532 -0.7338 -0.6176
  119OSM   C11F12573   4.011   2.156   7.283 -0.5195 -0.1728  0.1786
  119OSM   H11F12574   3.944   2.073   7.315 -0.0296 -1.0733 -1.0794
  119OSM   H11G12575   3.941   2.241   7.294  1.3494  1.2651  1.7227
  119OSM   C12F12576   4.139   2.161   7.373  0.7868 -0.0783  0.1828
  119OSM   H12F12577   4.185   2.262   7.364 -1.9175  1.3677  1.2909
  119OSM   H12G12578   4.217   2.090   7.338  1.5015  0.9327 -0.3132
  119OSM   C13F12579   4.109   2.159   7.525  0.0966  0.6577  0.4292
  119OSM   H13F12580   4.196   2.141   7.591 -0.2934  0.2543  0.8402
  119OSM   H13G12581   4.038   2.075   7.541  1.5771 -0.3753  1.8527
  119OSM   C14F12582   4.043   2.290   7.573 -0.4371  0.0519 -0.6391
  119OSM   H14F12583   3.936   2.296   7.545 -0.6343  0.2661  0.1231
  119OSM   H14G12584   4.102   2.374   7.530  0.6638 -0.0185  0.6630
  119OSM   C15F12585   4.044   2.302   7.730 -0.2539  0.3429 -0.5639
  119OSM   H15F12586   3.992   2.400   7.745 -0.3625 -0.1220  2.5742
  119OSM   H15G12587   4.149   2.311   7.765  0.1924  1.1726 -1.9969
  119OSM   C16F12588   3.965   2.192   7.811 -0.2544 -0.0775 -0.3400
  119OSM   H16F12589   4.030   2.165   7.898  0.4161 -1.1980 -1.1545
  119OSM   H16G12590   3.954   2.103   7.746 -0.1467 -0.0109 -0.4500
  119OSM   C17F12591   3.828   2.228   7.875  0.0462 -0.7164  0.3630
  119OSM   H17F12592   3.845   2.318   7.938  2.1586 -1.0516  0.3254
  119OSM   H17G12593   3.794   2.149   7.945  2.6968  0.9615  3.8684
  119OSM   C18F12594   3.712   2.265   7.778 -1.1532  0.1224 -0.2024
  119OSM   H18F12595   3.628   2.302   7.841 -0.8275 -0.6028  0.6884
  119OSM   H18G12596   3.679   2.182   7.713 -1.6518  0.7668 -0.7914
  119OSM   H18H12597   3.746   2.354   7.720  2.6113 -0.2647  1.1169
  120OSM      N12598   2.501   0.230   6.368 -0.6908 -0.3837 -0.5166
  120OSM    C1512599   2.400   0.134   6.318  0.4471  0.4461 -0.2708
  120OSM   H15A12600   2.301   0.156   6.358  0.1401 -0.6225 -0.4155
  120OSM   H15B12601   2.417   0.037   6.361 -0.7170  0.4291  0.1922
  120OSM   H15C12602   2.394   0.125   6.211 -0.2409  2.7288 -0.4960
  120OSM    C1412603   2.548   0.196   6.505  0.3321  0.3477  0.2119
  120OSM   H14A12604   2.622   0.268   6.536  0.5958  1.1869 -2.2137
  120OSM   H14B12605   2.589   0.096   6.503  0.7213  0.5184 -0.4717
  120OSM   H14C12606   2.467   0.194   6.577  1.6596  2.4359  1.8999
  120OSM    C1312607   2.623   0.229   6.275 -0.9233 -0.0363 -0.6856
  120OSM   H13A12608   2.702   0.291   6.313  0.9755 -3.0095  0.5839
  120OSM   H13B12609   2.581   0.254   6.179 -2.4801 -2.4958 -0.7367
  120OSM   H13C12610   2.669   0.131   6.267 -0.9135 -0.1210  0.3687
  120OSM    C1212611   2.444   0.371   6.365  0.1205 -0.3228 -0.5891
  120OSM   H12A12612   2.399   0.387   6.269 -1.6609 -1.8724 -0.0886
  120OSM   H12B12613   2.530   0.433   6.386  1.3610 -2.6571  1.9197
  120OSM    C1112614   2.336   0.415   6.471 -0.0286 -0.3463 -0.4249
  120OSM   H11A12615   2.327   0.523   6.446  1.3467 -0.5087 -1.7806
  120OSM   H11B12616   2.367   0.401   6.576 -0.3919 -0.0074 -0.2724
  120OSM      P12617   2.074   0.411   6.457  0.2628 -0.4918 -0.0443
  120OSM    O1312618   2.053   0.496   6.340  0.1553 -0.3270  0.3073
  120OSM    O1412619   1.969   0.311   6.483  0.6560 -0.1168  0.3805
  120OSM    O1112620   2.090   0.509   6.583 -0.2643 -0.0772  0.2247
  120OSM    O1212621   2.218   0.336   6.458 -0.0887 -0.5350  0.6501
  120OSM    C1S12622   1.998   0.511   6.693 -0.6046  0.0039 -0.2799
  120OSM    H1S12623   1.907   0.448   6.683 -0.9012  0.1885  1.0922
  120OSM    H1T12624   1.966   0.615   6.714 -1.1978 -0.5423  1.7184
  120OSM     NF12625   1.981   0.441   6.930 -0.2919 -0.3761 -0.3392
  120OSM    HNF12626   1.955   0.523   6.980 -1.6573 -0.2954 -1.1547
  120OSM    C2S12627   2.078   0.473   6.825  0.1305 -0.1727 -0.3915
  120OSM    H2S12628   2.145   0.387   6.806 -0.0258 -0.2602 -0.5581
  120OSM    C3S12629   2.172   0.590   6.862 -0.5357 -0.8172 -0.2802
  120OSM    H3S12630   2.130   0.688   6.894  2.8291  0.4187  0.7820
  120OSM     O312631   2.243   0.629   6.746 -0.0900 -0.2743  0.6036
  120OSM    HO312632   2.191   0.583   6.680  0.8976 -0.5998  0.0219
  120OSM    C4S12633   2.258   0.556   6.978 -0.1411  0.1967  0.4044
  120OSM    H4S12634   2.223   0.601   7.072  0.4167  2.7932 -0.5476
  120OSM    C5S12635   2.376   0.496   6.981 -1.0689 -0.2276  0.2292
  120OSM    H5S12636   2.427   0.478   6.885  1.2523  2.5221  0.7742
  120OSM    C6S12637   2.461   0.460   7.102  0.5059 -0.2741 -0.0014
  120OSM    H6S12638   2.534   0.543   7.116 -0.8592  0.9835 -0.1697
  120OSM    H6T12639   2.519   0.365   7.089  2.5451  0.8933  0.0497
  120OSM    C7S12640   2.386   0.466   7.242 -0.5787  0.1953 -0.1633
  120OSM    H7S12641   2.300   0.397   7.233  1.2698 -2.2039 -0.3557
  120OSM    H7T12642   2.354   0.571   7.262 -0.4734  0.6255 -2.0869
  120OSM    C8S12643   2.470   0.415   7.363  0.8057 -0.0357 -0.2189
  120OSM    H8S12644   2.566   0.469   7.370  0.7774 -0.1672  1.6690
  120OSM    H8T12645   2.501   0.309   7.346  0.1604 -0.4178  0.8680
  120OSM    C9S12646   2.392   0.423   7.496 -0.4163  0.3124 -0.6242
  120OSM    H9S12647   2.463   0.359   7.554 -0.7497 -0.6105 -1.2179
  120OSM    H9T12648   2.298   0.367   7.477  0.0913 -1.2395  1.1060
  120OSM   C10S12649   2.361   0.556   7.572 -0.0987  0.5531  0.5979
  120OSM   H10S12650   2.285   0.616   7.517  0.0858 -0.3162 -0.6325
  120OSM   H10T12651   2.455   0.614   7.566 -0.1916  0.5604 -1.9670
  120OSM   C11S12652   2.325   0.532   7.722  0.6310 -0.4798 -0.6944
  120OSM   H11S12653   2.234   0.469   7.717  0.3015 -0.2282  1.2919
  120OSM   H11T12654   2.301   0.628   7.772  0.0910 -0.3829 -1.1281
  120OSM   C12S12655   2.438   0.466   7.810 -0.1810 -0.3066  0.2187
  120OSM   H12S12656   2.445   0.355   7.803  1.4251 -0.2738  0.8756
  120OSM   H12T12657   2.415   0.474   7.918  0.8005  2.2099  0.3165
  120OSM   C13S12658   2.583   0.528   7.796 -0.3385  0.1476 -0.1352
  120OSM   H13S12659   2.612   0.515   7.689  1.5035  1.7736  0.1060
  120OSM   H13T12660   2.649   0.466   7.859 -1.5107 -0.9704  0.0249
  120OSM   C14S12661   2.589   0.677   7.838 -0.0637  0.5740  0.7090
  120OSM   H14S12662   2.565   0.685   7.946 -0.3299 -0.0397  0.6969
  120OSM   H14T12663   2.511   0.734   7.783  0.1243 -0.1374 -0.3317
  120OSM   C15S12664   2.735   0.728   7.816  0.2985 -0.1583  0.1058
  120OSM   H15S12665   2.753   0.730   7.707  1.6391 -2.2345  0.2412
  120OSM   H15T12666   2.803   0.650   7.858  2.7823  1.0992 -1.3094
  120OSM   C16S12667   2.765   0.865   7.876 -0.0403 -0.6975 -0.4921
  120OSM   H16S12668   2.731   0.874   7.981  2.1089  2.4203  0.0536
  120OSM   H16T12669   2.717   0.945   7.816  1.0372 -0.8498 -1.5984
  120OSM   C17S12670   2.915   0.909   7.862 -0.0943 -0.2437  0.1840
  120OSM   H17S12671   2.986   0.840   7.912  0.6942 -0.6776 -1.4647
  120OSM   H17T12672   2.934   1.003   7.917  3.0703 -2.4288  3.2781
  120OSM   C18S12673   2.978   0.928   7.720 -0.1701  0.4267 -0.2034
  120OSM   H18S12674   2.907   0.981   7.653  0.1247  0.0790 -0.8031
  120OSM   H18T12675   2.992   0.830   7.668  0.9747  1.3276 -1.6700
  120OSM   H18U12676   3.073   0.983   7.738 -1.2003  2.6901 -1.3555
  120OSM    C1F12677   1.905   0.330   6.941 -0.6361 -0.4676  0.2680
  120OSM     OF12678   1.937   0.225   6.881  0.2683 -0.4782  0.5439
  120OSM    C2F12679   1.785   0.345   7.026  0.1063 -0.2046  0.1990
  120OSM    H2F12680   1.707   0.285   6.975 -2.1571  1.5986  1.3245
  120OSM    H2G12681   1.765   0.454   7.025 -0.1672 -0.1773  2.2975
  120OSM    C3F12682   1.794   0.290   7.176 -0.0112 -0.0206 -0.1248
  120OSM    H3F12683   1.859   0.358   7.235  0.7945 -0.5861 -0.3443
  120OSM    H3G12684   1.850   0.194   7.178 -1.5301 -0.9301  0.5723
  120OSM    C4F12685   1.655   0.273   7.242  0.4040  0.0068  0.2196
  120OSM    H4F12686   1.610   0.188   7.187 -0.3950  0.5164  0.0734
  120OSM    H4G12687   1.587   0.358   7.221  1.2691  0.3264 -1.4157
  120OSM    C5F12688   1.658   0.239   7.391 -0.3982 -0.1817 -0.0336
  120OSM    H5F12689   1.719   0.313   7.447  0.8038 -1.8015  0.8774
  120OSM    H5G12690   1.709   0.142   7.409 -0.0470 -0.1082 -0.6045
  120OSM    C6F12691   1.526   0.247   7.458 -0.3000 -0.2147  0.3720
  120OSM    H6F12692   1.441   0.220   7.391 -1.0229 -0.2722  1.3005
  120OSM    H6G12693   1.512   0.355   7.482  0.4367  0.2572 -1.1213
  120OSM    C7F12694   1.520   0.156   7.583  0.3377  0.0030 -0.5549
  120OSM    H7F12695   1.611   0.168   7.645  0.0097  0.5979 -0.1863
  120OSM    H7G12696   1.512   0.049   7.553  1.0180 -0.1795 -0.0923
  120OSM    C8F12697   1.403   0.198   7.673  0.1129 -0.1963 -0.0255
  120OSM    H8F12698   1.317   0.214   7.605 -0.0595 -1.7737 -0.2068
  120OSM    H8G12699   1.433   0.289   7.729  0.3656  0.4071 -1.1182
  120OSM    C9F12700   1.367   0.088   7.771  0.0359  0.0267  0.6214
  120OSM    H9F12701   1.373  -0.008   7.717 -1.2576 -0.2544  0.9309
  120OSM   C10F12702   1.349   0.092   7.901 -0.1761  0.7569 -0.1438
  120OSM   H10F12703   1.326   0.004   7.962 -0.3286  0.3174 -0.8295
  120OSM   C11F12704   1.362   0.210   7.993  0.2209 -0.0696 -0.0681
  120OSM   H11F12705   1.413   0.297   7.946 -0.9063  1.1646  0.9209
  120OSM   H11G12706   1.416   0.190   8.089  0.4724 -3.0417 -0.7275
  120OSM   C12F12707   1.222   0.265   8.031  0.2109  0.2317  0.0387
  120OSM   H12F12708   1.171   0.194   8.100  1.1347 -2.0734 -1.5093
  120OSM   H12G12709   1.167   0.283   7.937  1.8805 -0.9915 -1.2438
  120OSM   C13F12710   1.229   0.413   8.078  0.4563  0.1480 -0.5080
  120OSM   H13F12711   1.200   0.475   7.991 -0.0558 -1.0494 -1.2073
  120OSM   H13G12712   1.334   0.437   8.104  0.4678 -0.0937 -0.3331
  120OSM   C14F12713   1.127   0.453   8.184  0.0231  0.2087 -0.2413
  120OSM   H14F12714   1.143   0.560   8.205  1.2478  0.3699 -1.8099
  120OSM   H14G12715   1.142   0.403   8.282 -1.6466  2.2212  1.1269
  120OSM   C15F12716   0.983   0.422   8.139  0.1519 -0.3565 -0.3977
  120OSM   H15F12717   0.965   0.314   8.123 -2.1415 -0.2245  0.8121
  120OSM   H15G12718   0.961   0.472   8.042 -1.6089  0.0015  0.1421
  120OSM   C16F12719   0.874   0.472   8.243 -0.8843  0.3858  0.3012
  120OSM   H16F12720   0.791   0.487   8.170  1.4051  1.8269 -2.2343
  120OSM   H16G12721   0.903   0.572   8.284  2.6166 -0.9097  1.3456
  120OSM   C17F12722   0.839   0.381   8.359 -0.0140  0.3503 -0.3923
  120OSM   H17F12723   0.770   0.431   8.430 -0.2250 -3.3277  2.3037
  120OSM   H17G12724   0.937   0.359   8.408 -0.7024 -2.1704  0.0122
  120OSM   C18F12725   0.772   0.247   8.334  0.3721  0.5601  0.2523
  120OSM   H18F12726   0.836   0.198   8.257 -0.5475  1.4900 -1.1338
  120OSM   H18G12727   0.670   0.265   8.294  0.3386 -0.8748 -0.3778
  120OSM   H18H12728   0.769   0.178   8.422 -1.5498 -0.7667 -0.7730
  121OSM      N12729   5.683   1.438   6.091  0.1713 -0.3898  0.6184
  121OSM    C1512730   5.765   1.484   5.972 -0.4592  0.0034  0.5213
  121OSM   H15A12731   5.764   1.409   5.895 -1.6218  2.3721 -1.9511
  121OSM   H15B12732   5.868   1.508   5.994 -0.6398  0.7064  0.6303
  121OSM   H15C12733   5.722   1.570   5.923  0.2318 -0.0325 -0.1803
  121OSM    C1412734   5.763   1.320   6.143 -0.2195  0.2176  0.4711
  121OSM   H14A12735   5.851   1.350   6.199 -0.1672 -1.2184  1.2033
  121OSM   H14B12736   5.796   1.259   6.060 -0.2949  1.2717 -0.3613
  121OSM   H14C12737   5.697   1.253   6.196 -0.7071 -0.9392 -1.4758
  121OSM    C1312738   5.667   1.554   6.182  0.5706 -0.8331 -0.2322
  121OSM   H13A12739   5.598   1.534   6.262  2.0543 -0.9983  1.0731
  121OSM   H13B12740   5.623   1.639   6.131 -0.3944  0.1387  2.0840
  121OSM   H13C12741   5.765   1.594   6.206  0.4821 -0.5454 -0.3493
  121OSM    C1212742   5.554   1.394   6.033  0.5031 -0.5837  0.2610
  121OSM   H12A12743   5.565   1.322   5.953  2.3001 -0.0220 -0.0537
  121OSM   H12B12744   5.515   1.483   5.986 -1.9772 -1.6259  0.2300
  121OSM    C1112745   5.451   1.341   6.137 -1.0627  0.0824 -0.0796
  121OSM   H11A12746   5.499   1.260   6.196 -1.1699 -0.0285 -0.1425
  121OSM   H11B12747   5.360   1.294   6.093 -1.5925  0.3245  0.7284
  121OSM      P12748   5.271   1.519   6.206 -0.0812 -0.0604 -0.2116
  121OSM    O1312749   5.265   1.583   6.070 -0.1420 -0.1396  0.2367
  121OSM    O1412750   5.159   1.430   6.244  0.2323  0.5052  0.0567
  121OSM    O1112751   5.299   1.628   6.316 -0.0984  0.1726 -0.3085
  121OSM    O1212752   5.403   1.435   6.222 -0.8488 -0.1088 -0.0208
  121OSM    C1S12753   5.369   1.591   6.445 -0.3449  0.7929  0.0808
  121OSM    H1S12754   5.478   1.608   6.442 -0.2226 -0.0117 -0.4353
  121OSM    H1T12755   5.355   1.484   6.471  0.0566  0.4597 -1.0291
  121OSM     NF12756   5.394   1.632   6.693  0.2432 -0.0339 -0.4751
  121OSM    HNF12757   5.365   1.566   6.761  0.5673  0.9173  0.6177
  121OSM    C2S12758   5.315   1.670   6.575 -0.5125  0.0710 -0.8217
  121OSM    H2S12759   5.337   1.777   6.558  0.4260  0.4899  2.3985
  121OSM    C3S12760   5.166   1.651   6.597  0.5539 -0.8782  0.0945
  121OSM    H3S12761   5.153   1.543   6.620  0.3960 -0.5717  1.6014
  121OSM     O312762   5.084   1.658   6.481 -0.0893 -0.7051  0.1565
  121OSM    HO312763   5.143   1.657   6.405 -0.2777  0.3250 -0.0094
  121OSM    C4S12764   5.110   1.737   6.712  0.2024 -0.1728 -0.4316
  121OSM    H4S12765   5.159   1.835   6.710  0.0387 -0.0773  0.2200
  121OSM    C5S12766   5.017   1.704   6.796  0.0843 -0.2336 -0.7085
  121OSM    H5S12767   4.964   1.611   6.770  0.6981 -0.6843 -0.3716
  121OSM    C6S12768   4.957   1.794   6.907  0.0473  0.2687 -0.2147
  121OSM    H6S12769   4.930   1.737   6.999  1.4530  0.6889  0.4861
  121OSM    H6T12770   4.855   1.813   6.867  0.4379 -0.7755 -1.8002
  121OSM    C7S12771   5.032   1.926   6.935  0.5519 -0.0157 -0.1647
  121OSM    H7S12772   5.042   1.991   6.845 -1.4234  0.0067 -0.4013
  121OSM    H7T12773   5.137   1.893   6.954  0.5336 -0.2879 -0.5232
  121OSM    C8S12774   4.991   1.997   7.067 -0.0887 -0.0531 -0.7233
  121OSM    H8S12775   4.890   2.043   7.059  0.6306  2.0272  1.1554
  121OSM    H8T12776   5.060   2.084   7.070 -1.4644  1.0548 -0.2015
  121OSM    C9S12777   5.001   1.926   7.205  0.1271 -0.0064  0.5205
  121OSM    H9S12778   5.103   1.902   7.243 -0.3223  0.8835  2.4471
  121OSM    H9T12779   4.938   1.835   7.207 -0.3103  0.2858  0.2109
  121OSM   C10S12780   4.943   2.004   7.321  0.4220 -0.1093 -0.2401
  121OSM   H10S12781   4.848   2.049   7.285  0.6316  0.7408  0.2276
  121OSM   H10T12782   5.017   2.087   7.331  2.7282 -1.9573 -1.0217
  121OSM   C11S12783   4.933   1.933   7.462 -0.1365  0.5637 -0.0460
  121OSM   H11S12784   5.030   1.881   7.478 -0.6937 -1.6814 -2.9407
  121OSM   H11T12785   4.874   1.839   7.468  0.7504  0.0974  2.3202
  121OSM   C12S12786   4.894   2.032   7.565 -0.1111 -0.4554 -0.3865
  121OSM   H12S12787   4.836   1.990   7.650  1.5833 -0.4881  0.8031
  121OSM   H12T12788   4.829   2.115   7.530  1.1276  0.9680  0.5557
  121OSM   C13S12789   5.019   2.097   7.627 -0.1847 -0.1583  0.0931
  121OSM   H13S12790   5.093   2.124   7.548 -0.3072  2.3003  0.7285
  121OSM   H13T12791   5.062   2.023   7.697  1.2010  0.5314  0.0123
  121OSM   C14S12792   4.981   2.235   7.694 -0.0155 -0.6510  0.6820
  121OSM   H14S12793   4.873   2.260   7.697  0.1038 -0.0864  3.2873
  121OSM   H14T12794   5.047   2.314   7.652 -0.1784 -0.5640  0.5922
  121OSM   C15S12795   5.017   2.235   7.844 -0.4629  0.4900  0.6503
  121OSM   H15S12796   5.003   2.335   7.892 -1.3435  0.1777  1.0679
  121OSM   H15T12797   5.122   2.213   7.872 -0.2891  0.2972 -0.1343
  121OSM   C16S12798   4.925   2.138   7.913  0.9642  0.7212 -0.1556
  121OSM   H16S12799   4.951   2.042   7.865  1.7681  1.5760 -1.5038
  121OSM   H16T12800   4.818   2.165   7.903  1.2460  3.1169  2.1170
  121OSM   C17S12801   4.943   2.118   8.062  0.7395 -0.2409 -0.7100
  121OSM   H17S12802   5.048   2.087   8.081  1.1054  2.3152  2.1723
  121OSM   H17T12803   4.866   2.048   8.101 -1.4729  2.6352  0.4594
  121OSM   C18S12804   4.921   2.232   8.159  0.0511 -0.7623 -0.5482
  121OSM   H18S12805   4.907   2.211   8.267  1.2841  1.0932  0.0237
  121OSM   H18T12806   4.831   2.285   8.123  0.7567  2.1105  1.5770
  121OSM   H18U12807   5.003   2.307   8.147 -0.7236 -0.0862 -1.7772
  121OSM    C1F12808   5.524   1.659   6.695  0.3367 -0.9746 -0.3528
  121OSM     OF12809   5.581   1.731   6.615 -0.1959 -0.1358 -0.4519
  121OSM    C2F12810   5.610   1.592   6.801 -0.4952 -0.3658  1.3823
  121OSM    H2F12811   5.699   1.556   6.745 -0.2204  1.1269  0.8181
  121OSM    H2G12812   5.551   1.504   6.835  0.5622 -1.3319  0.7932
  121OSM    C3F12813   5.649   1.685   6.911  0.3304 -0.2091  0.0049
  121OSM    H3F12814   5.551   1.727   6.942  0.0162 -0.4113 -0.6849
  121OSM    H3G12815   5.718   1.765   6.878  1.1877 -1.8072 -2.4029
  121OSM    C4F12816   5.701   1.604   7.028  0.4118  0.4001  0.3755
  121OSM    H4F12817   5.779   1.528   7.003  0.3040 -0.2171  1.8365
  121OSM    H4G12818   5.614   1.544   7.062 -0.2165  0.1985 -1.4747
  121OSM    C5F12819   5.759   1.698   7.130 -1.1161 -0.3114  0.2609
  121OSM    H5F12820   5.702   1.793   7.140  2.3166  1.7855  2.0688
  121OSM    H5G12821   5.865   1.721   7.107 -1.0720  1.6878  2.1242
  121OSM    C6F12822   5.761   1.626   7.262 -0.2853  0.2708  0.7690
  121OSM    H6F12823   5.827   1.541   7.232 -1.4117  1.0222 -4.9864
  121OSM    H6G12824   5.655   1.599   7.281 -0.5145  0.4817 -0.1679
  121OSM    C7F12825   5.822   1.708   7.374 -0.2588  0.4539  0.1600
  121OSM    H7F12826   5.755   1.792   7.402 -0.4614 -0.0733  1.3415
  121OSM    H7G12827   5.908   1.755   7.322 -0.3975  0.6840  0.1375
  121OSM    C8F12828   5.881   1.635   7.497  0.3298 -0.5967  0.0560
  121OSM    H8F12829   5.927   1.713   7.562 -0.1912 -1.3209  1.3244
  121OSM    H8G12830   5.962   1.577   7.447 -0.3079 -0.9968 -0.5387
  121OSM    C9F12831   5.779   1.554   7.575 -0.4060 -0.2907  0.7873
  121OSM    H9F12832   5.750   1.455   7.535  0.1908 -1.0572  2.1911
  121OSM   C10F12833   5.707   1.590   7.675 -0.5028  0.0130 -0.1954
  121OSM   H10F12834   5.642   1.517   7.725 -0.2269  1.1589  1.9544
  121OSM   C11F12835   5.700   1.726   7.749 -0.0961 -0.0723 -0.5959
  121OSM   H11F12836   5.695   1.814   7.682  0.4418 -0.3498 -1.0032
  121OSM   H11G12837   5.796   1.738   7.803 -0.0984  0.5307 -0.7160
  121OSM   C12F12838   5.587   1.716   7.851  0.9850  0.1481 -0.5985
  121OSM   H12F12839   5.493   1.674   7.809  0.9947  0.3962 -0.8768
  121OSM   H12G12840   5.548   1.818   7.875 -0.2404 -0.5132  0.3040
  121OSM   C13F12841   5.623   1.650   7.988  0.1144  0.0007 -0.2093
  121OSM   H13F12842   5.710   1.696   8.042 -1.1753  0.8441  1.2346
  121OSM   H13G12843   5.649   1.543   7.979  1.2765  0.1813  0.7048
  121OSM   C14F12844   5.508   1.660   8.092 -0.8396  0.1302 -0.2105
  121OSM   H14F12845   5.426   1.597   8.053  0.3700 -1.7600  0.1807
  121OSM   H14G12846   5.478   1.765   8.114  2.6776  1.4805 -1.0564
  121OSM   C15F12847   5.532   1.607   8.241 -0.0960  0.8408  0.4972
  121OSM   H15F12848   5.618   1.671   8.269  1.3936 -0.4092 -0.9323
  121OSM   H15G12849   5.569   1.502   8.242 -1.4351  0.2014 -2.7883
  121OSM   C16F12850   5.394   1.606   8.312  0.4440 -0.3903 -0.0274
  121OSM   H16F12851   5.343   1.514   8.278  1.4083 -0.7078 -0.6615
  121OSM   H16G12852   5.335   1.697   8.286 -1.8190 -1.5890  0.6484
  121OSM   C17F12853   5.416   1.599   8.460 -0.0425 -0.0913 -0.3635
  121OSM   H17F12854   5.486   1.685   8.465 -1.2743  1.2684 -3.6203
  121OSM   H17G12855   5.457   1.498   8.484  0.8341  0.6289  1.3387
  121OSM   C18F12856   5.294   1.631   8.546  0.2352  0.2198 -0.0324
  121OSM   H18F12857   5.317   1.656   8.652 -1.3837 -0.7686  0.5942
  121OSM   H18G12858   5.228   1.542   8.550  1.4820 -0.7630 -0.9020
  121OSM   H18H12859   5.229   1.715   8.514  0.3203 -0.4377 -2.0568
  122OSM      N12860   3.145   4.872   5.882 -0.4368  0.6064 -0.3628
  122OSM    C1512861   3.166   4.729   5.874  0.0202 -0.6603  0.0476
  122OSM   H15A12862   3.170   4.685   5.775 -0.5404  2.1026 -1.3061
  122OSM   H15B12863   3.095   4.677   5.936 -1.2854  0.7507 -0.2134
  122OSM   H15C12864   3.263   4.720   5.920 -0.5630  1.6659  1.9202
  122OSM    C1412865   3.009   4.902   5.817 -0.6150  0.5271 -0.4455
  122OSM   H14A12866   3.025   4.884   5.712 -0.4424 -4.5193  0.1791
  122OSM   H14B12867   2.985   5.007   5.828  1.1295  1.1817 -2.3341
  122OSM   H14C12868   2.935   4.830   5.848 -0.3161 -0.7125 -2.4645
  122OSM    C1312869   3.150   4.918   6.023 -0.2584  0.2830 -0.3651
  122OSM   H13A12870   3.250   4.911   6.062 -0.4590  1.3717  0.3942
  122OSM   H13B12871   3.093   4.850   6.085 -0.0500 -0.5476 -1.0675
  122OSM   H13C12872   3.117   5.019   6.042  0.3230 -0.0258  3.0137
  122OSM    C1212873   3.252   4.948   5.804 -0.0231  0.4686 -0.0738
  122OSM   H12A12874   3.234   5.055   5.805  1.3589  0.7365 -0.5183
  122OSM   H12B12875   3.251   4.922   5.699  0.0010 -1.2570  0.3290
  122OSM    C1112876   3.395   4.936   5.855 -0.2512 -0.5465 -0.0504
  122OSM   H11A12877   3.462   4.993   5.787 -1.7314 -0.2594 -1.3365
  122OSM   H11B12878   3.424   4.829   5.860  1.8656 -0.0408 -0.6492
  122OSM      P12879   3.443   5.137   6.014 -0.4410 -0.0379 -0.0862
  122OSM    O1312880   3.562   5.178   5.938  0.5634  0.0487 -0.2840
  122OSM    O1412881   3.317   5.209   5.985  0.5710  0.3100  0.0583
  122OSM    O1112882   3.476   5.161   6.170 -0.0001 -0.0143  0.1156
  122OSM    O1212883   3.420   4.982   5.989  0.2307 -0.1720 -0.3368
  122OSM    C1S12884   3.542   5.050   6.232 -0.1691 -0.1882 -0.5459
  122OSM    H1S12885   3.640   5.029   6.184  2.3224  2.0709  3.0013
  122OSM    H1T12886   3.469   4.967   6.234  0.4214 -0.7499 -1.5913
  122OSM     NF12887   3.700   4.977   6.405 -0.2805  0.3086 -0.3862
  122OSM    HNF12888   3.669   4.914   6.476 -3.3729  0.5093 -1.3862
  122OSM    C2S12889   3.596   5.075   6.375  0.1228 -0.1890  0.5019
  122OSM    H2S12890   3.648   5.174   6.379  1.8185 -1.0572  1.4525
  122OSM    C3S12891   3.470   5.063   6.463  0.2148 -0.2901  0.4156
  122OSM    H3S12892   3.447   4.955   6.468  0.7714 -0.6831 -2.8775
  122OSM     O312893   3.351   5.129   6.413 -0.5267  0.5276 -0.1891
  122OSM    HO312894   3.379   5.138   6.322 -1.9253 -1.5371 -0.9010
  122OSM    C4S12895   3.493   5.103   6.608 -0.1665  0.3633  0.8542
  122OSM    H4S12896   3.500   5.017   6.677  1.2838  1.6837  2.4443
  122OSM    C5S12897   3.488   5.225   6.663  0.0579  0.2309 -0.2369
  122OSM    H5S12898   3.468   5.313   6.601 -3.2546 -0.1351  0.1246
  122OSM    C6S12899   3.522   5.251   6.807 -0.5952 -0.1744 -0.4414
  122OSM    H6S12900   3.426   5.251   6.863  1.0122 -0.9750  2.5678
  122OSM    H6T12901   3.566   5.352   6.822  2.6631 -1.2188 -1.9012
  122OSM    C7S12902   3.619   5.153   6.885 -0.2462 -0.5725 -0.4682
  122OSM    H7S12903   3.718   5.169   6.837 -0.4282  1.7135 -0.1972
  122OSM    H7T12904   3.580   5.049   6.876 -1.1973 -0.4613  1.6536
  122OSM    C8S12905   3.620   5.184   7.032  0.7084  0.5932 -0.3208
  122OSM    H8S12906   3.523   5.147   7.071  1.4609 -0.7456  0.3516
  122OSM    H8T12907   3.627   5.291   7.061  3.7526  0.9449 -1.9777
  122OSM    C9S12908   3.730   5.107   7.110 -0.1801  1.0716  0.1904
  122OSM    H9S12909   3.832   5.148   7.090  0.2092 -0.1781 -0.4894
  122OSM    H9T12910   3.723   4.999   7.086 -2.7087  1.6593 -2.1340
  122OSM   C10S12911   3.717   5.121   7.268 -0.1542 -0.5512  0.0833
  122OSM   H10S12912   3.613   5.099   7.300  0.2547 -1.5763  0.7650
  122OSM   H10T12913   3.736   5.228   7.293  0.5086 -1.1081  2.1458
  122OSM   C11S12914   3.807   5.040   7.347  0.1012 -0.7993 -0.0063
  122OSM   H11S12915   3.910   5.075   7.325  0.3967 -1.0649  0.9169
  122OSM   H11T12916   3.800   4.932   7.323 -0.0360 -0.6123 -0.8209
  122OSM   C12S12917   3.769   5.055   7.499  0.1562 -0.0840 -0.0138
  122OSM   H12S12918   3.680   4.991   7.515  1.1417 -1.2974  0.9262
  122OSM   H12T12919   3.742   5.160   7.519  1.7466  0.1387  1.2006
  122OSM   C13S12920   3.876   5.024   7.600 -0.4671  0.0157  0.0069
  122OSM   H13S12921   3.953   5.103   7.609 -1.1898  0.5308  2.0338
  122OSM   H13T12922   3.938   4.933   7.582 -0.1728 -0.1237  1.5577
  122OSM   C14S12923   3.817   5.011   7.745 -0.1397  0.2784  0.0526
  122OSM   H14S12924   3.728   4.945   7.749  0.8034 -0.9846  1.6149
  122OSM   H14T12925   3.805   5.112   7.788  1.1671  0.9822 -1.1482
  122OSM   C15S12926   3.916   4.941   7.843  0.2712  0.2261  0.0759
  122OSM   H15S12927   4.000   5.010   7.865 -0.2837  1.2052 -0.7894
  122OSM   H15T12928   3.969   4.851   7.805  1.0830  0.5086  0.5254
  122OSM   C16S12929   3.846   4.913   7.970 -0.1439  0.7279  0.2107
  122OSM   H16S12930   3.791   4.818   7.952  1.2002 -0.4769  2.1228
  122OSM   H16T12931   3.774   4.993   7.999 -3.0470 -0.3237 -3.3151
  122OSM   C17S12932   3.942   4.877   8.088 -0.5672 -0.0729  0.0702
  122OSM   H17S12933   4.000   4.971   8.102 -3.8130  1.8802  1.6381
  122OSM   H17T12934   4.013   4.798   8.055 -1.7265 -0.4704 -1.6448
  122OSM   C18S12935   3.874   4.847   8.219 -0.1162 -0.0180  0.3572
  122OSM   H18S12936   3.934   4.869   8.309 -2.3362  1.1440  1.6549
  122OSM   H18T12937   3.855   4.738   8.231 -0.1736 -0.0293  0.1698
  122OSM   H18U12938   3.779   4.899   8.243 -0.2031 -0.0102  0.0035
  122OSM    C1F12939   3.820   4.966   6.345  1.1091  0.7809  1.1077
  122OSM     OF12940   3.853   5.037   6.249  0.3035  0.5309  0.4443
  122OSM    C2F12941   3.899   4.846   6.382  0.4247 -0.2339 -0.5279
  122OSM    H2F12942   3.900   4.776   6.296  0.6592 -1.2461  0.2801
  122OSM    H2G12943   3.841   4.791   6.458  2.8412 -2.6280 -0.2937
  122OSM    C3F12944   4.026   4.889   6.448  0.0162  0.0951  0.4886
  122OSM    H3F12945   4.094   4.936   6.374  1.3321 -1.5989  0.5665
  122OSM    H3G12946   4.086   4.802   6.482 -0.5110 -0.8022 -0.7979
  122OSM    C4F12947   4.012   4.967   6.574  0.0965  0.0746 -0.6569
  122OSM    H4F12948   3.948   4.900   6.635  1.3247  0.2249  0.8505
  122OSM    H4G12949   3.971   5.069   6.562  0.6024  0.1964 -1.4290
  122OSM    C5F12950   4.141   4.975   6.666  0.0827 -0.4761  0.7881
  122OSM    H5F12951   4.167   5.082   6.676 -0.0743 -0.1017 -1.9972
  122OSM    H5G12952   4.231   4.938   6.612  0.6844  0.6380  1.0052
  122OSM    C6F12953   4.140   4.915   6.803 -0.3983 -0.1829 -0.2160
  122OSM    H6F12954   4.230   4.963   6.846 -0.7271 -1.0262  1.5106
  122OSM    H6G12955   4.154   4.805   6.793 -0.7759 -0.2414 -0.1077
  122OSM    C7F12956   4.021   4.950   6.887 -0.2912  0.0488  0.1673
  122OSM    H7F12957   3.936   4.891   6.847  0.0387 -1.3831  1.4896
  122OSM    H7G12958   3.991   5.056   6.873 -1.5085 -0.4645 -1.4737
  122OSM    C8F12959   4.048   4.918   7.037 -0.5905 -0.0908 -0.1615
  122OSM    H8F12960   4.066   4.809   7.029  3.8413  0.3803  0.9780
  122OSM    H8G12961   3.956   4.921   7.101 -1.5074 -0.8579 -1.4032
  122OSM    C9F12962   4.149   5.003   7.107  0.7015  0.4116 -0.6834
  122OSM    H9F12963   4.163   5.100   7.056 -1.2455 -1.1786 -4.5886
  122OSM   C10F12964   4.224   4.955   7.209 -0.1316  0.3500 -0.3798
  122OSM   H10F12965   4.288   5.028   7.262 -0.7497  0.3325  0.4180
  122OSM   C11F12966   4.207   4.822   7.273 -0.0175  0.5050  0.2025
  122OSM   H11F12967   4.297   4.760   7.293 -0.8768 -1.9258 -2.7155
  122OSM   H11G12968   4.127   4.762   7.225  0.3711  0.3205 -0.2213
  122OSM   C12F12969   4.155   4.831   7.427  0.1296  0.2831  0.2114
  122OSM   H12F12970   4.061   4.773   7.429  0.2877  0.0388  1.2837
  122OSM   H12G12971   4.135   4.938   7.451  1.4565  0.6566 -0.2543
  122OSM   C13F12972   4.253   4.764   7.526  0.1519  0.0286  0.1191
  122OSM   H13F12973   4.349   4.816   7.506 -0.9711  2.3322  0.3401
  122OSM   H13G12974   4.277   4.658   7.507  3.2774  0.7720 -0.6677
  122OSM   C14F12975   4.206   4.783   7.668 -0.0255  0.0452 -0.8713
  122OSM   H14F12976   4.121   4.712   7.681 -0.5980  0.8616  0.0373
  122OSM   H14G12977   4.172   4.888   7.676  0.0171  0.0799 -1.1476
  122OSM   C15F12978   4.316   4.739   7.770  0.0251 -0.1458  0.2693
  122OSM   H15F12979   4.280   4.778   7.867  4.8092  0.0456  2.2198
  122OSM   H15G12980   4.411   4.788   7.740  0.2038 -0.1467  0.8268
  122OSM   C16F12981   4.330   4.585   7.783  0.0351  0.0492  0.1800
  122OSM   H16F12982   4.368   4.541   7.689 -2.3346  0.5549 -1.0919
  122OSM   H16G12983   4.227   4.549   7.803 -0.3451  1.6612  1.4636
  122OSM   C17F12984   4.419   4.541   7.898  0.0927 -0.3384 -0.0900
  122OSM   H17F12985   4.517   4.592   7.880 -0.4234  0.2665 -1.3738
  122OSM   H17G12986   4.440   4.433   7.883 -1.0240 -0.5239 -0.4321
  122OSM   C18F12987   4.363   4.572   8.033 -0.0135  0.6950  0.0605
  122OSM   H18F12988   4.441   4.545   8.107 -0.0481 -0.6310 -0.3529
  122OSM   H18G12989   4.270   4.516   8.056  0.6256  0.3142  1.8201
  122OSM   H18H12990   4.334   4.678   8.047  0.0888  0.6929  0.2928
  123OSM      N12991   1.639   6.805   6.104 -0.3873 -0.3789 -0.7446
  123OSM    C1512992   1.581   6.734   5.994  0.3131  0.8755 -0.4233
  123OSM   H15A12993   1.555   6.633   6.019 -0.3856  1.1829  0.1217
  123OSM   H15B12994   1.652   6.725   5.913  1.6433  2.6211  0.4668
  123OSM   H15C12995   1.493   6.782   5.955  0.7148  0.4671 -1.8819
  123OSM    C1412996   1.763   6.737   6.159  0.5219 -0.2697  0.1267
  123OSM   H14A12997   1.850   6.753   6.098 -0.4586  0.2984 -1.1881
  123OSM   H14B12998   1.740   6.633   6.176  0.9075 -0.5924 -1.2465
  123OSM   H14C12999   1.783   6.783   6.255  1.0178 -1.2820  0.5206
  123OSM    C1313000   1.681   6.942   6.047 -0.8091  0.3913 -0.2314
  123OSM   H13A13001   1.734   6.982   6.132  1.8789 -1.9301 -0.6357
  123OSM   H13B13002   1.595   7.003   6.024 -1.7214 -1.5154 -2.2668
  123OSM   H13C13003   1.742   6.937   5.959  0.1915  2.0464  0.3262
  123OSM    C1213004   1.534   6.822   6.213  0.4192  0.9549 -0.4596
  123OSM   H12A13005   1.502   6.724   6.247 -0.2696  1.8937  1.7837
  123OSM   H12B13006   1.446   6.872   6.177  0.1398  1.1128  0.4105
  123OSM    C1113007   1.580   6.891   6.340  0.5771 -1.4947  0.8224
  123OSM   H11A13008   1.483   6.896   6.393 -0.8914 -2.1146 -1.6649
  123OSM   H11B13009   1.619   6.995   6.336  2.0138 -2.0413 -0.4754
  123OSM      P13010   1.646   6.715   6.522 -0.0145 -0.0866  0.0928
  123OSM    O1313011   1.673   6.584   6.466  0.1916 -0.5455  0.4424
  123OSM    O1413012   1.721   6.732   6.650  0.3929  0.1223 -0.0535
  123OSM    O1113013   1.499   6.736   6.549 -0.4486  0.9954 -0.2949
  123OSM    O1213014   1.678   6.823   6.414  0.1279  0.4000 -0.8053
  123OSM    C1S13015   1.418   6.622   6.590  0.6265  0.1100  0.1344
  123OSM    H1S13016   1.461   6.521   6.579 -1.7046 -1.0778  1.1461
  123OSM    H1T13017   1.323   6.631   6.532  0.1978  3.9759  1.0949
  123OSM     NF13018   1.294   6.522   6.778 -0.4790  0.4766 -0.2088
  123OSM    HNF13019   1.199   6.526   6.807 -0.4736 -0.2517 -0.0735
  123OSM    C2S13020   1.376   6.636   6.739 -0.2606 -0.3712  0.0686
  123OSM    H2S13021   1.464   6.639   6.807  0.5798 -1.0009 -0.9640
  123OSM    C3S13022   1.292   6.772   6.746 -0.6108 -0.4000 -0.3568
  123OSM    H3S13023   1.193   6.735   6.712 -0.9915  0.5502 -0.3317
  123OSM     O313024   1.338   6.887   6.669  0.3514 -0.4878 -0.6649
  123OSM    HO313025   1.405   6.854   6.609  1.9812  2.2975 -0.5683
  123OSM    C4S13026   1.256   6.801   6.889  0.0470 -0.7911  0.7443
  123OSM    H4S13027   1.153   6.769   6.909 -0.3544 -0.2324 -0.3240
  123OSM    C5S13028   1.328   6.862   6.988  0.1685 -0.0554  0.1119
  123OSM    H5S13029   1.428   6.894   6.954 -0.1337  1.4684  0.6029
  123OSM    C6S13030   1.285   6.898   7.125 -0.2320 -0.5241 -0.0034
  123OSM    H6S13031   1.174   6.911   7.132 -0.1435  0.2277  0.0927
  123OSM    H6T13032   1.332   6.993   7.156 -0.9455 -0.3923  0.7114
  123OSM    C7S13033   1.311   6.785   7.230 -0.7580  0.0176 -0.5728
  123OSM    H7S13034   1.295   6.823   7.333  0.3924  1.7477 -0.9842
  123OSM    H7T13035   1.419   6.762   7.226 -1.0523 -1.5423 -0.0946
  123OSM    C8S13036   1.243   6.656   7.205 -0.2114  0.4491 -0.1224
  123OSM    H8S13037   1.256   6.613   7.104  0.4025 -1.0036  0.5457
  123OSM    H8T13038   1.136   6.676   7.225 -0.1894 -0.7143  1.3833
  123OSM    C9S13039   1.273   6.565   7.320 -0.0286  0.7119  0.1356
  123OSM    H9S13040   1.382   6.569   7.337 -0.0054 -2.9779  1.8002
  123OSM    H9T13041   1.238   6.463   7.294  0.7935  0.0495  1.5641
  123OSM   C10S13042   1.199   6.607   7.450  0.1283  1.1436  0.5783
  123OSM   H10S13043   1.089   6.592   7.446  0.0226  1.8852  0.4784
  123OSM   H10T13044   1.221   6.712   7.478 -0.4435  1.6640 -0.8223
  123OSM   C11S13045   1.249   6.523   7.566 -0.0973  0.8820  0.0079
  123OSM   H11S13046   1.346   6.559   7.609 -0.4951 -1.0531  2.8038
  123OSM   H11T13047   1.256   6.421   7.524 -2.8635  1.0443 -1.0760
  123OSM   C12S13048   1.155   6.528   7.688 -0.2580 -0.0866  0.1798
  123OSM   H12S13049   1.053   6.492   7.661 -0.4925  0.5156  0.2561
  123OSM   H12T13050   1.151   6.636   7.714 -1.5997 -0.4557  1.7052
  123OSM   C13S13051   1.207   6.448   7.809  0.1491 -0.5670 -0.1753
  123OSM   H13S13052   1.308   6.482   7.840  0.5478 -0.8382 -1.1471
  123OSM   H13T13053   1.222   6.342   7.779  0.4754 -0.3422 -0.8259
  123OSM   C14S13054   1.119   6.465   7.930  0.3132  0.4450  0.0509
  123OSM   H14S13055   1.017   6.434   7.898  0.5113  2.2125 -2.5997
  123OSM   H14T13056   1.120   6.569   7.970  3.4226  0.4269  0.3082
  123OSM   C15S13057   1.166   6.379   8.040 -0.3164  0.3218 -0.4487
  123OSM   H15S13058   1.275   6.392   8.057  0.1347 -0.7626 -2.2924
  123OSM   H15T13059   1.139   6.274   8.015 -3.3590  1.1492 -1.1267
  123OSM   C16S13060   1.089   6.416   8.174 -0.6848 -0.0979  0.6950
  123OSM   H16S13061   0.992   6.469   8.157 -0.7459 -0.8790 -1.6645
  123OSM   H16T13062   1.147   6.496   8.225 -2.2406  0.6558  1.3782
  123OSM   C17S13063   1.079   6.292   8.266 -0.0520 -0.1241  0.2086
  123OSM   H17S13064   1.181   6.257   8.293 -0.2008  0.2346  1.2982
  123OSM   H17T13065   1.015   6.208   8.231 -2.0067  1.3892  0.0085
  123OSM   C18S13066   1.015   6.332   8.398  0.5690 -0.2932  0.0066
  123OSM   H18S13067   1.070   6.408   8.457 -1.6287 -0.3801  2.2853
  123OSM   H18T13068   1.018   6.248   8.470 -1.5752  1.0688  1.8236
  123OSM   H18U13069   0.908   6.359   8.384  0.0744 -2.7526 -1.5651
  123OSM    C1F13070   1.353   6.403   6.786  0.4669  0.1258  0.0629
  123OSM     OF13071   1.467   6.384   6.757 -0.0962  0.5837 -0.0898
  123OSM    C2F13072   1.263   6.293   6.832  0.3228  0.6419  0.1007
  123OSM    H2F13073   1.257   6.226   6.744 -0.6842  1.0814 -0.1861
  123OSM    H2G13074   1.160   6.319   6.866  0.5096 -0.5545  1.6888
  123OSM    C3F13075   1.325   6.230   6.958 -0.2405  0.1737 -0.3504
  123OSM    H3F13076   1.427   6.189   6.937  0.5431  0.1612  2.9090
  123OSM    H3G13077   1.257   6.143   6.971 -1.9266  1.7252  1.6652
  123OSM    C4F13078   1.333   6.317   7.086  0.3229 -0.3097 -0.0374
  123OSM    H4F13079   1.234   6.351   7.124  0.9421  0.8619  0.6166
  123OSM    H4G13080   1.391   6.407   7.055 -0.5654  0.1241 -0.4844
  123OSM    C5F13081   1.399   6.252   7.209 -0.4975 -0.9322 -0.0907
  123OSM    H5F13082   1.418   6.326   7.289  1.2980  0.1018 -1.3833
  123OSM    H5G13083   1.497   6.212   7.174 -0.7957 -0.6733 -1.2836
  123OSM    C6F13084   1.322   6.139   7.274 -0.0531 -0.0406  0.1094
  123OSM    H6F13085   1.280   6.068   7.199 -1.5556  0.5475  0.3651
  123OSM    H6G13086   1.233   6.179   7.326  0.0087 -1.6350  1.5515
  123OSM    C7F13087   1.411   6.054   7.369  0.8414 -0.1501  0.4416
  123OSM    H7F13088   1.503   6.029   7.312 -0.1093 -2.3608 -0.2002
  123OSM    H7G13089   1.371   5.955   7.399 -0.3420 -0.5190 -2.1101
  123OSM    C8F13090   1.453   6.122   7.503  0.0069 -0.2895  0.7661
  123OSM    H8F13091   1.366   6.175   7.547 -0.9019 -1.1255  0.0219
  123OSM    H8G13092   1.524   6.203   7.477 -0.8097 -0.2506 -1.5705
  123OSM    C9F13093   1.528   6.027   7.594  0.0898 -0.2939 -0.3935
  123OSM    H9F13094   1.608   5.967   7.550  0.3200 -0.5450  0.3509
  123OSM   C10F13095   1.502   6.023   7.723  0.5354  0.1374 -0.0094
  123OSM   H10F13096   1.566   5.953   7.779  0.1045 -0.0450  0.2592
  123OSM   C11F13097   1.398   6.102   7.793  0.0305  0.3401 -0.0324
  123OSM   H11F13098   1.314   6.033   7.815  0.9783 -0.3333  1.6637
  123OSM   H11G13099   1.368   6.198   7.746  0.2217  0.5963  0.3648
  123OSM   C12F13100   1.448   6.142   7.934  0.3682 -0.3563 -0.2590
  123OSM   H12F13101   1.387   6.232   7.956  0.8767  0.4687 -2.0068
  123OSM   H12G13102   1.552   6.177   7.919 -0.2140  1.5266 -0.0876
  123OSM   C13F13103   1.426   6.032   8.044 -0.5252 -0.5057 -0.6348
  123OSM   H13F13104   1.482   5.943   8.009  1.2277  0.6472 -0.9154
  123OSM   H13G13105   1.318   6.004   8.041 -0.2490 -1.6270 -0.6079
  123OSM   C14F13106   1.447   6.086   8.185 -0.6416  0.5773 -0.2548
  123OSM   H14F13107   1.402   6.187   8.194  1.3704  1.3775  2.1605
  123OSM   H14G13108   1.556   6.097   8.203 -0.5720  0.2394 -0.4553
  123OSM   C15F13109   1.384   5.987   8.286 -0.3262  0.0857  0.1281
  123OSM   H15F13110   1.431   5.887   8.273  1.5609  0.9927 -0.2838
  123OSM   H15G13111   1.275   5.973   8.266  0.1504 -2.3338 -1.1470
  123OSM   C16F13112   1.387   6.008   8.440  0.1710  0.1229  0.2870
  123OSM   H16F13113   1.341   6.109   8.453 -1.6164 -0.5064 -0.7634
  123OSM   H16G13114   1.491   6.017   8.479 -0.0161  0.1757  0.7814
  123OSM   C17F13115   1.315   5.904   8.533  0.2385 -0.1025 -0.0668
  123OSM   H17F13116   1.314   5.944   8.636  0.5178  0.1427 -0.1583
  123OSM   H17G13117   1.372   5.809   8.542 -1.0374 -0.8431  0.5944
  123OSM   C18F13118   1.167   5.854   8.506 -0.0950  0.0594 -0.2402
  123OSM   H18F13119   1.103   5.945   8.496 -1.9262 -0.9833  1.1879
  123OSM   H18G13120   1.129   5.794   8.592  0.6216 -0.9109 -0.5786
  123OSM   H18H13121   1.151   5.789   8.418  1.4297 -1.6698  0.6954
  124OSM      N13122   1.855   4.570   6.086  0.5268 -0.1658  0.5153
  124OSM    C1513123   1.702   4.609   6.064 -0.1682 -0.2422 -0.1293
  124OSM   H15A13124   1.637   4.529   6.097 -0.3146 -0.0607  0.0208
  124OSM   H15B13125   1.686   4.650   5.965 -0.9538  4.0176  1.5424
  124OSM   H15C13126   1.677   4.698   6.119 -1.3797 -0.3436 -0.4845
  124OSM    C1413127   1.885   4.475   5.980  0.0381 -0.2146  0.7634
  124OSM   H14A13128   1.981   4.425   5.985  1.2517  1.7744 -0.8670
  124OSM   H14B13129   1.873   4.528   5.886 -1.1340  0.3260  1.2033
  124OSM   H14C13130   1.819   4.390   5.976  0.1115 -0.4346  3.1075
  124OSM    C1313131   1.942   4.689   6.057 -0.3155 -0.5574 -0.3887
  124OSM   H13A13132   1.937   4.766   6.132  0.8121  0.8636 -1.7030
  124OSM   H13B13133   1.921   4.745   5.967  1.7403 -1.1288 -1.2960
  124OSM   H13C13134   2.046   4.660   6.055 -0.1755 -0.0477 -0.6743
  124OSM    C1213135   1.882   4.510   6.223 -0.1863  0.1694 -0.6990
  124OSM   H12A13136   1.873   4.587   6.298  1.4666 -0.3941  0.1272
  124OSM   H12B13137   1.989   4.493   6.220 -0.0161  0.8862  0.6268
  124OSM    C1113138   1.795   4.387   6.268 -0.0153  0.4984 -0.8106
  124OSM   H11A13139   1.690   4.424   6.263 -0.4457 -0.6865 -0.7147
  124OSM   H11B13140   1.820   4.362   6.373 -2.8730  2.0284  0.3703
  124OSM      P13141   1.708   4.152   6.196 -0.1128 -0.1754 -0.3042
  124OSM    O1313142   1.571   4.208   6.169  0.2355  1.2021  0.1665
  124OSM    O1413143   1.762   4.048   6.106  0.2940  0.3703 -0.3443
  124OSM    O1113144   1.727   4.112   6.349  0.5222  0.6407  0.5993
  124OSM    O1213145   1.804   4.271   6.188  0.1106 -0.1711 -0.4967
  124OSM    C1S13146   1.855   4.078   6.392 -0.3865 -0.5129 -0.4503
  124OSM    H1S13147   1.939   4.142   6.357 -0.4390 -0.2333 -0.0751
  124OSM    H1T13148   1.880   3.973   6.366 -2.2029 -0.8221 -1.0514
  124OSM     NF13149   1.984   4.063   6.600 -0.2817 -0.2947  0.3981
  124OSM    HNF13150   2.009   3.971   6.630 -0.3896 -1.1934 -2.0700
  124OSM    C2S13151   1.856   4.090   6.544  0.4095  0.6270 -0.6154
  124OSM    H2S13152   1.837   4.198   6.564 -1.5310  0.2258 -0.0075
  124OSM    C3S13153   1.744   4.005   6.602  0.2130  0.0095  0.3004
  124OSM    H3S13154   1.763   3.899   6.574  0.2155  0.1005 -0.0526
  124OSM     O313155   1.617   4.039   6.549 -0.0105  0.3805 -0.1819
  124OSM    HO313156   1.628   4.080   6.463 -1.5916 -0.8260 -1.0191
  124OSM    C4S13157   1.740   4.021   6.753  1.4810 -0.3033  0.1746
  124OSM    H4S13158   1.741   4.118   6.804  0.4693 -0.5586  0.7274
  124OSM    C5S13159   1.719   3.920   6.838 -0.4226 -0.3179 -0.2798
  124OSM    H5S13160   1.686   3.821   6.802 -0.0708 -0.5694  0.0721
  124OSM    C6S13161   1.712   3.942   6.987  0.3374 -0.6271  0.4275
  124OSM    H6S13162   1.627   3.901   7.046  1.1199 -1.6609  0.8818
  124OSM    H6T13163   1.711   4.045   7.028  2.9632 -0.9746  1.5574
  124OSM    C7S13164   1.839   3.873   7.052  0.1492  0.2607  1.2374
  124OSM    H7S13165   1.931   3.910   7.003 -0.4875 -0.8443 -0.9529
  124OSM    H7T13166   1.819   3.766   7.028  0.9703  0.3859 -0.1138
  124OSM    C8S13167   1.854   3.903   7.200  0.1280  0.0672  0.6958
  124OSM    H8S13168   1.772   3.848   7.253  0.3278  1.3295  2.4044
  124OSM    H8T13169   1.846   4.014   7.209  2.1403  0.4660 -1.5113
  124OSM    C9S13170   1.992   3.855   7.250 -0.1427  1.0296 -0.0024
  124OSM    H9S13171   2.065   3.927   7.207  0.8623 -0.6984 -1.3432
  124OSM    H9T13172   2.020   3.753   7.214  0.1304  1.2599 -0.4465
  124OSM   C10S13173   1.996   3.855   7.402  0.2734  0.5686 -0.9208
  124OSM   H10S13174   1.910   3.796   7.441  0.4841  0.0168 -1.2755
  124OSM   H10T13175   1.963   3.954   7.440 -0.5323 -0.2517  0.6306
  124OSM   C11S13176   2.119   3.800   7.473  0.0975 -0.0687  0.0975
  124OSM   H11S13177   2.210   3.858   7.443  1.3084 -2.1297 -0.3681
  124OSM   H11T13178   2.144   3.694   7.454  1.3374  0.5598 -2.2651
  124OSM   C12S13179   2.112   3.817   7.626 -0.4816  0.0182  0.4486
  124OSM   H12S13180   2.017   3.773   7.662  0.9734 -1.5651  2.6535
  124OSM   H12T13181   2.110   3.925   7.649  2.5747  0.4020 -0.6349
  124OSM   C13S13182   2.239   3.764   7.692 -0.7231 -0.5206  0.0729
  124OSM   H13S13183   2.325   3.829   7.666 -0.1168 -1.6354 -0.7689
  124OSM   H13T13184   2.259   3.664   7.649 -1.0485 -0.6223  0.1554
  124OSM   C14S13185   2.238   3.766   7.842  0.2662 -0.1433  0.2332
  124OSM   H14S13186   2.161   3.691   7.867 -0.0796 -0.2686 -1.1043
  124OSM   H14T13187   2.212   3.864   7.889 -2.3443 -0.6521  0.0078
  124OSM   C15S13188   2.374   3.750   7.908 -1.5113 -0.0172 -0.2753
  124OSM   H15S13189   2.410   3.854   7.921 -1.0962 -0.3719  1.6523
  124OSM   H15T13190   2.448   3.696   7.844 -2.7990 -1.5057 -0.5644
  124OSM   C16S13191   2.379   3.695   8.053 -0.2053  0.3538  0.0311
  124OSM   H16S13192   2.303   3.738   8.122 -1.1589 -1.1240 -0.0520
  124OSM   H16T13193   2.485   3.704   8.084  0.5123 -1.9008 -1.5289
  124OSM   C17S13194   2.363   3.538   8.066 -0.0899  0.4069 -0.5991
  124OSM   H17S13195   2.303   3.516   7.975  0.6518 -0.6488 -0.8410
  124OSM   H17T13196   2.302   3.524   8.158 -0.0131  2.5368 -0.1760
  124OSM   C18S13197   2.493   3.460   8.075  0.2216 -0.0765 -0.1982
  124OSM   H18S13198   2.465   3.355   8.096 -3.0077  0.9623  1.4045
  124OSM   H18T13199   2.564   3.496   8.152  0.3194 -0.8228  0.0710
  124OSM   H18U13200   2.542   3.461   7.975 -2.1108  0.8863 -1.4102
  124OSM    C1F13201   2.092   4.132   6.570 -0.5077  0.3698 -0.1030
  124OSM     OF13202   2.087   4.232   6.502  0.2435  0.8266  0.0326
  124OSM    C2F13203   2.220   4.073   6.622 -0.6168 -0.5783  0.0998
  124OSM    H2F13204   2.235   3.970   6.584 -1.7589 -1.1864  1.2295
  124OSM    H2G13205   2.209   4.073   6.733 -0.1352 -0.9080  0.1517
  124OSM    C3F13206   2.347   4.160   6.589 -0.6454 -0.1131 -0.2213
  124OSM    H3F13207   2.319   4.261   6.627 -2.6739 -1.2458  1.5892
  124OSM    H3G13208   2.355   4.170   6.479 -1.2871 -0.2940 -0.2889
  124OSM    C4F13209   2.478   4.112   6.642 -0.0037  0.1022  0.4596
  124OSM    H4F13210   2.508   4.020   6.588 -2.7365 -1.3126  1.1790
  124OSM    H4G13211   2.475   4.083   6.749 -2.1693 -0.9650  0.1762
  124OSM    C5F13212   2.593   4.217   6.644 -0.2997 -0.0514  0.4211
  124OSM    H5F13213   2.585   4.271   6.547  1.1875 -0.7662 -0.1323
  124OSM    H5G13214   2.690   4.165   6.629  0.5864  1.6925 -0.1019
  124OSM    C6F13215   2.597   4.301   6.768  0.4401 -0.0837 -0.2109
  124OSM    H6F13216   2.610   4.235   6.856 -0.7182 -1.3997 -0.9949
  124OSM    H6G13217   2.500   4.353   6.783  1.3605  0.7464  4.0557
  124OSM    C7F13218   2.702   4.411   6.754  0.7256  0.1368  0.1154
  124OSM    H7F13219   2.665   4.473   6.670 -0.7413  0.4910  0.9927
  124OSM    H7G13220   2.793   4.353   6.728 -0.0739 -0.4391 -1.5596
  124OSM    C8F13221   2.727   4.499   6.883 -0.4234  0.4276 -0.0174
  124OSM    H8F13222   2.793   4.587   6.867  1.6812 -0.8629  1.2255
  124OSM    H8G13223   2.782   4.440   6.958  1.9422  0.8064 -1.3467
  124OSM    C9F13224   2.596   4.551   6.939 -0.4395 -0.0832  0.2811
  124OSM    H9F13225   2.543   4.614   6.866  1.0816  1.3761  0.3560
  124OSM   C10F13226   2.550   4.544   7.065  0.7569 -0.1793 -0.0300
  124OSM   H10F13227   2.459   4.601   7.090  1.1151  0.1168  0.6246
  124OSM   C11F13228   2.612   4.463   7.171 -0.2262 -0.3939 -0.8219
  124OSM   H11F13229   2.721   4.473   7.148 -0.0107  0.4232  0.4359
  124OSM   H11G13230   2.603   4.355   7.149  2.7249 -0.6933 -0.9895
  124OSM   C12F13231   2.570   4.484   7.313  0.0480 -0.1011  0.0610
  124OSM   H12F13232   2.459   4.489   7.313  0.0236  0.1165  1.7384
  124OSM   H12G13233   2.600   4.583   7.353 -1.4081 -0.1354  1.3508
  124OSM   C13F13234   2.613   4.364   7.399  0.0732  0.3620  0.0824
  124OSM   H13F13235   2.721   4.339   7.400 -0.1418 -0.6225  1.0093
  124OSM   H13G13236   2.580   4.271   7.347  0.4123  0.7880 -0.9271
  124OSM   C14F13237   2.565   4.365   7.548  0.8990  0.0008 -0.5738
  124OSM   H14F13238   2.592   4.267   7.593  1.8641 -0.1359 -1.4107
  124OSM   H14G13239   2.454   4.377   7.556  0.9792  1.8016 -1.6366
  124OSM   C15F13240   2.631   4.478   7.631  0.1591 -0.4938  0.3116
  124OSM   H15F13241   2.628   4.582   7.591 -1.3741 -1.3009 -1.9107
  124OSM   H15G13242   2.736   4.449   7.655  0.7144  2.0373  1.2949
  124OSM   C16F13243   2.581   4.487   7.779 -0.1256  0.1623  0.1785
  124OSM   H16F13244   2.617   4.395   7.830  0.7651  0.1154 -0.5224
  124OSM   H16G13245   2.470   4.490   7.772 -0.0641  3.7641 -1.3341
  124OSM   C17F13246   2.635   4.610   7.857 -0.3128  0.0981 -0.0984
  124OSM   H17F13247   2.614   4.697   7.792  3.1529  0.5962 -0.7449
  124OSM   H17G13248   2.746   4.609   7.861 -0.2002 -1.5745 -2.1456
  124OSM   C18F13249   2.577   4.616   7.994 -0.6802 -0.0010 -0.2566
  124OSM   H18F13250   2.469   4.590   7.994 -1.0148  1.3334  0.2471
  124OSM   H18G13251   2.583   4.718   8.038 -0.7342 -0.6196  1.2590
  124OSM   H18H13252   2.623   4.543   8.064  0.8891  0.5396 -0.6842
  125OSM      N13253   0.037   0.988   5.827  0.2165  0.0176  0.6463
  125OSM    C1513254   0.108   0.878   5.890 -0.0819  0.2521  1.0040
  125OSM   H15A13255   0.069   0.855   5.988 -0.3639 -1.8670  0.4404
  125OSM   H15B13256   0.211   0.905   5.908  0.1431  0.8966 -1.0128
  125OSM   H15C13257   0.108   0.785   5.836 -0.1044 -0.9900  3.0644
  125OSM    C1413258   0.112   1.026   5.703 -0.4534  0.1220  0.4307
  125OSM   H14A13259   0.071   1.109   5.647  0.0953  0.9784  1.2780
  125OSM   H14B13260   0.128   0.948   5.630 -1.6780 -0.0138  0.2861
  125OSM   H14C13261   0.209   1.047   5.745 -0.3682 -0.6443  0.6293
  125OSM    C1313262  -0.099   0.943   5.793  0.2759  0.0652 -0.0962
  125OSM   H13A13263  -0.150   0.898   5.876  1.5908  2.2746  2.0148
  125OSM   H13B13264  -0.095   0.877   5.707 -1.3145 -0.8088  0.4583
  125OSM   H13C13265  -0.165   1.026   5.770 -1.0674 -0.8134  0.4836
  125OSM    C1213266   0.036   1.106   5.922 -0.6446 -0.2600 -0.0354
  125OSM   H12A13267  -0.002   1.190   5.864  1.5782  1.1602  0.4560
  125OSM   H12B13268   0.137   1.142   5.936 -1.1095  1.3629 -0.5403
  125OSM    C1113269  -0.047   1.099   6.056  0.1830  0.2793 -0.6493
  125OSM   H11A13270  -0.144   1.050   6.036 -1.6499  3.3783  0.0552
  125OSM   H11B13271  -0.070   1.201   6.095 -1.0963 -0.4099  0.4517
  125OSM      P13272   0.165   1.044   6.217  0.2167  0.2043  0.2769
  125OSM    O1313273   0.211   0.918   6.283 -1.0347 -0.4795  0.0287
  125OSM    O1413274   0.260   1.103   6.122 -0.1195 -0.2350 -0.0924
  125OSM    O1113275   0.138   1.147   6.332 -0.1760  0.0479  0.4787
  125OSM    O1213276   0.028   1.019   6.149  0.6471  0.0328  0.6432
  125OSM    C1S13277   0.020   1.121   6.414 -0.9265  0.3836 -0.1714
  125OSM    H1S13278  -0.062   1.057   6.373 -0.7386 -0.8223  1.2323
  125OSM    H1T13279  -0.028   1.221   6.422 -0.0426  0.6711  2.1868
  125OSM     NF13280  -0.037   1.025   6.640 -0.2479  0.0474  0.1406
  125OSM    HNF13281  -0.081   1.085   6.706 -1.7611 -1.6539  0.7850
  125OSM    C2S13282   0.069   1.076   6.558  0.6213  0.1406 -0.1304
  125OSM    H2S13283   0.129   0.986   6.533 -0.8375 -0.6200 -1.0413
  125OSM    C3S13284   0.151   1.187   6.624 -0.1589 -0.9279 -0.0403
  125OSM    H3S13285   0.077   1.261   6.661  0.5080 -0.9737  1.5001
  125OSM     O313286   0.252   1.255   6.546 -0.0814  0.3192  0.1841
  125OSM    HO313287   0.223   1.228   6.458  0.8528  0.1108 -0.0679
  125OSM    C4S13288   0.222   1.136   6.753  0.5484 -0.0918  0.1913
  125OSM    H4S13289   0.311   1.074   6.736  0.5221  0.4252 -2.1983
  125OSM    C5S13290   0.196   1.185   6.875 -0.1422  0.8574 -0.4212
  125OSM    H5S13291   0.113   1.256   6.884 -1.2198 -0.1077 -2.3335
  125OSM    C6S13292   0.257   1.142   7.006  0.3166  0.2555 -0.2682
  125OSM    H6S13293   0.325   1.058   6.981  1.4671  1.7025 -2.4175
  125OSM    H6T13294   0.182   1.110   7.081  1.0092  0.4912  0.5328
  125OSM    C7S13295   0.338   1.251   7.079 -0.0715  0.4148 -0.0831
  125OSM    H7S13296   0.272   1.338   7.101 -1.6348 -0.3389 -1.5392
  125OSM    H7T13297   0.426   1.283   7.018 -0.6100  0.6751 -0.7435
  125OSM    C8S13298   0.391   1.187   7.212 -0.6542  0.1201  0.2501
  125OSM    H8S13299   0.467   1.108   7.197  1.6938  2.1337  0.8352
  125OSM    H8T13300   0.308   1.135   7.263  0.1455 -1.5277 -0.0788
  125OSM    C9S13301   0.457   1.283   7.308 -0.1052 -0.3518  0.0414
  125OSM    H9S13302   0.389   1.364   7.341 -2.2166 -2.8243  2.2154
  125OSM    H9T13303   0.552   1.326   7.270  0.7371 -0.4240  1.9327
  125OSM   C10S13304   0.491   1.205   7.430 -0.0543  0.2415 -0.0706
  125OSM   H10S13305   0.548   1.112   7.409  0.9893  1.0440 -0.8823
  125OSM   H10T13306   0.399   1.173   7.484 -0.9118 -0.4607 -1.8454
  125OSM   C11S13307   0.576   1.288   7.532 -0.2930 -0.3225 -0.2627
  125OSM   H11S13308   0.520   1.370   7.581  0.1764 -0.6284  0.8206
  125OSM   H11T13309   0.659   1.335   7.475  0.6481 -2.3874 -0.7047
  125OSM   C12S13310   0.625   1.203   7.652  0.4576  0.3581  0.2869
  125OSM   H12S13311   0.694   1.128   7.607 -1.1211  0.4774 -2.5868
  125OSM   H12T13312   0.546   1.151   7.711 -1.5024  1.7117 -1.0279
  125OSM   C13S13313   0.698   1.277   7.761  0.7941  0.2213 -0.4373
  125OSM   H13S13314   0.621   1.338   7.812 -0.3708 -1.6759  0.1804
  125OSM   H13T13315   0.779   1.349   7.736  1.5028  0.0496  1.2580
  125OSM   C14S13316   0.768   1.175   7.863  0.5835 -0.3205  0.1758
  125OSM   H14S13317   0.830   1.232   7.935  0.1412  3.0518 -1.8939
  125OSM   H14T13318   0.825   1.104   7.799 -2.0850 -1.9744 -0.5180
  125OSM   C15S13319   0.673   1.097   7.956  0.2451  0.2116 -0.4680
  125OSM   H15S13320   0.598   1.035   7.903 -1.6600  1.8906  0.1319
  125OSM   H15T13321   0.611   1.170   8.012  2.9227  1.5687  0.8972
  125OSM   C16S13322   0.737   1.002   8.052 -0.3511 -0.0212 -0.1451
  125OSM   H16S13323   0.828   0.946   8.019  0.8705  0.6958  1.8154
  125OSM   H16T13324   0.661   0.930   8.090  0.4417 -1.4569 -1.1656
  125OSM   C17S13325   0.789   1.069   8.184  0.2757  0.0750  0.4901
  125OSM   H17S13326   0.725   1.151   8.223 -0.0269 -0.7974  1.8667
  125OSM   H17T13327   0.880   1.123   8.149  0.6786 -1.4266 -0.9579
  125OSM   C18S13328   0.821   0.973   8.298 -0.1707  0.4839  0.0401
  125OSM   H18S13329   0.871   0.885   8.253  0.4996  1.4570 -1.2059
  125OSM   H18T13330   0.725   0.942   8.345  0.9981  1.6545  3.5021
  125OSM   H18U13331   0.881   1.019   8.380 -2.0104  2.5788  0.3185
  125OSM    C1F13332  -0.101   0.910   6.603 -0.0933  0.1128  0.6883
  125OSM     OF13333  -0.056   0.839   6.512 -0.0875  0.1751  0.2099
  125OSM    C2F13334  -0.225   0.874   6.677  0.0199  0.8328  0.2302
  125OSM    H2F13335  -0.306   0.944   6.650 -1.0275  0.4008  2.0755
  125OSM    H2G13336  -0.215   0.890   6.787  0.7071  0.4350  0.2341
  125OSM    C3F13337  -0.255   0.730   6.655  0.5843  0.5232  0.1242
  125OSM    H3F13338  -0.169   0.660   6.663 -0.6145 -1.1733 -1.1511
  125OSM    H3G13339  -0.281   0.733   6.547 -0.9257 -0.0180  0.4557
  125OSM    C4F13340  -0.380   0.681   6.727  0.7686 -0.1049  0.4235
  125OSM    H4F13341  -0.444   0.633   6.650 -1.1469  0.5717  1.5065
  125OSM    H4G13342  -0.439   0.767   6.768 -0.7093 -1.2668  0.8099
  125OSM    C5F13343  -0.358   0.567   6.824  0.8076  0.3643 -0.6979
  125OSM    H5F13344  -0.332   0.472   6.773 -0.4610  0.6010 -1.8419
  125OSM    H5G13345  -0.450   0.545   6.882  1.5809  0.3663  0.5578
  125OSM    C6F13346  -0.256   0.622   6.923  0.3860  0.0566 -0.1920
  125OSM    H6F13347  -0.270   0.731   6.936 -1.6621 -0.1666 -0.2460
  125OSM    H6G13348  -0.149   0.611   6.897  0.3604  3.8845 -2.7855
  125OSM    C7F13349  -0.268   0.562   7.063 -0.1521 -0.2708 -0.5573
  125OSM    H7F13350  -0.364   0.583   7.114  1.0587  0.3110  1.6320
  125OSM    H7G13351  -0.203   0.617   7.135 -0.5667 -2.1116  1.3019
  125OSM    C8F13352  -0.233   0.423   7.073 -0.2479  0.4344  0.5749
  125OSM    H8F13353  -0.279   0.351   7.002 -0.4945 -0.0982  1.2626
  125OSM    H8G13354  -0.278   0.382   7.166 -0.4088 -2.1599 -0.5674
  125OSM    C9F13355  -0.083   0.400   7.061  0.5471  0.0530 -0.2191
  125OSM    H9F13356  -0.041   0.396   6.960  0.7846 -1.5005 -0.0808
  125OSM   C10F13357  -0.004   0.367   7.163  0.2309  0.4130 -0.2721
  125OSM   H10F13358   0.103   0.344   7.146  0.6802  0.9965  1.5352
  125OSM   C11F13359  -0.042   0.347   7.307 -0.1370  0.1114  0.2960
  125OSM   H11F13360  -0.047   0.241   7.339  2.3997 -0.0018  0.5388
  125OSM   H11G13361  -0.136   0.401   7.330 -0.3998  0.5207 -1.5960
  125OSM   C12F13362   0.074   0.403   7.393  0.4265  0.5919 -0.5226
  125OSM   H12F13363   0.086   0.508   7.357  0.8061  0.8689  0.3754
  125OSM   H12G13364   0.158   0.331   7.383  0.4615  0.3139  1.4158
  125OSM   C13F13365   0.053   0.393   7.545 -1.3966 -0.7282  0.3331
  125OSM   H13F13366  -0.000   0.299   7.568 -1.5154 -0.5827  0.6518
  125OSM   H13G13367  -0.008   0.473   7.591 -0.5589  0.0108  0.1951
  125OSM   C14F13368   0.190   0.389   7.619 -0.2222  0.0627 -1.3831
  125OSM   H14F13369   0.226   0.492   7.597 -2.4466  0.7897 -1.8703
  125OSM   H14G13370   0.268   0.317   7.586 -0.0023 -0.0881 -0.5606
  125OSM   C15F13371   0.172   0.386   7.771 -0.1710  0.6820  0.0705
  125OSM   H15F13372   0.139   0.282   7.787  0.2983  0.4883 -0.1971
  125OSM   H15G13373   0.090   0.454   7.802 -2.7755 -1.1127 -2.3713
  125OSM   C16F13374   0.298   0.422   7.852  0.3484  0.1323 -0.3246
  125OSM   H16F13375   0.326   0.528   7.833  1.5436 -0.2795 -0.9678
  125OSM   H16G13376   0.381   0.362   7.810  0.0859  0.1173 -0.8277
  125OSM   C17F13377   0.263   0.412   8.001  0.2991 -0.4994  0.3243
  125OSM   H17F13378   0.233   0.309   8.028  0.4244 -0.4118  0.8226
  125OSM   H17G13379   0.181   0.483   8.027  0.6179 -0.8752  2.5626
  125OSM   C18F13380   0.391   0.441   8.078  0.0081 -0.9820  0.7279
  125OSM   H18F13381   0.461   0.361   8.043  0.2022 -0.5670  0.1442
  125OSM   H18G13382   0.365   0.440   8.186 -1.4366  3.3797  0.6237
  125OSM   H18H13383   0.437   0.536   8.043  1.5361 -1.9804 -0.1033
  126OSM      N13384   2.676   5.362   6.271  0.4752 -0.7713  0.4227
  126OSM    C1513385   2.812   5.336   6.329  0.2715  0.0292 -0.5577
  126OSM   H15A13386   2.799   5.332   6.436 -2.4633 -0.7355 -0.8246
  126OSM   H15B13387   2.880   5.409   6.289  1.4315 -2.0911 -2.7185
  126OSM   H15C13388   2.846   5.241   6.290 -0.4533 -0.6348  0.3646
  126OSM    C1413389   2.688   5.362   6.122 -0.2340 -0.0119 -0.0681
  126OSM   H14A13390   2.589   5.368   6.078 -0.4109  1.1317  0.4481
  126OSM   H14B13391   2.741   5.274   6.089  1.5773  0.2332  1.9751
  126OSM   H14C13392   2.755   5.437   6.085 -1.2378  0.9731  0.0515
  126OSM    C1313393   2.594   5.250   6.306  0.3271  0.0947  0.0982
  126OSM   H13A13394   2.528   5.273   6.389 -0.7521  0.2801 -0.7749
  126OSM   H13B13395   2.651   5.160   6.320  1.4226  0.3128 -2.3770
  126OSM   H13C13396   2.532   5.225   6.220 -1.3181 -1.0795  1.5478
  126OSM    C1213397   2.621   5.497   6.316  0.0294  0.4523 -0.1570
  126OSM   H12A13398   2.532   5.509   6.256 -0.2822 -0.0595  0.1950
  126OSM   H12B13399   2.690   5.573   6.284 -1.1887  1.7035  0.0879
  126OSM    C1113400   2.600   5.517   6.464 -0.5482  0.2729 -0.0812
  126OSM   H11A13401   2.587   5.622   6.499 -1.6396  0.2525 -0.3873
  126OSM   H11B13402   2.689   5.489   6.525 -0.5418 -1.2909 -0.7459
  126OSM      P13403   2.337   5.519   6.473  0.4902 -0.5509 -0.1391
  126OSM    O1313404   2.329   5.538   6.326 -0.2903 -0.1624  0.0488
  126OSM    O1413405   2.222   5.455   6.542  0.0627  0.0699  0.0119
  126OSM    O1113406   2.363   5.670   6.528 -0.4593 -0.0321 -0.3493
  126OSM    O1213407   2.478   5.450   6.508 -0.0190 -0.1317 -0.3648
  126OSM    C1S13408   2.377   5.701   6.667  0.3077 -0.2726  0.4501
  126OSM    H1S13409   2.477   5.746   6.681  0.1775 -0.3753  1.9048
  126OSM    H1T13410   2.361   5.610   6.729  0.9930 -1.1432 -0.6142
  126OSM     NF13411   2.261   5.803   6.859  0.5494  0.1853 -0.8661
  126OSM    HNF13412   2.170   5.771   6.884  1.0349 -0.5747 -0.0220
  126OSM    C2S13413   2.281   5.819   6.719  0.2029  0.0908  0.5709
  126OSM    H2S13414   2.336   5.915   6.702  0.4895 -0.4363 -1.8402
  126OSM    C3S13415   2.147   5.841   6.642 -0.1701  0.1874 -0.1013
  126OSM    H3S13416   2.081   5.752   6.656  1.1219 -0.9034 -0.7183
  126OSM     O313417   2.169   5.856   6.502  0.4671  0.4317 -0.2493
  126OSM    HO313418   2.246   5.802   6.482 -0.7704 -1.1567 -1.0596
  126OSM    C4S13419   2.074   5.955   6.695 -0.0797 -0.2744 -0.7638
  126OSM    H4S13420   2.144   6.029   6.737 -0.5899  0.4151 -1.1057
  126OSM    C5S13421   1.940   5.973   6.701 -0.2654  0.1486 -0.2908
  126OSM    H5S13422   1.873   5.896   6.659 -0.1851  0.5823 -1.2495
  126OSM    C6S13423   1.879   6.093   6.760  0.1597 -0.4315  0.1645
  126OSM    H6S13424   1.807   6.148   6.697  1.6520  1.8969  0.3789
  126OSM    H6T13425   1.947   6.180   6.776 -1.0585  0.9283 -1.7018
  126OSM    C7S13426   1.808   6.061   6.888  0.2226  0.8727  0.5338
  126OSM    H7S13427   1.727   5.984   6.883 -0.1922  1.3669 -0.5757
  126OSM    H7T13428   1.748   6.153   6.906  0.6149  2.1306 -3.5464
  126OSM    C8S13429   1.909   6.038   6.996 -0.4971 -0.2790  0.3600
  126OSM    H8S13430   1.988   6.117   7.000  2.6009 -2.8443 -2.7781
  126OSM    H8T13431   1.956   5.939   6.976  0.6998  0.0869  1.2396
  126OSM    C9S13432   1.844   6.030   7.139 -0.3940 -0.2763 -0.1102
  126OSM    H9S13433   1.749   5.973   7.133 -0.7605  0.3357 -0.2163
  126OSM    H9T13434   1.811   6.131   7.170  1.2647  0.2312  0.0938
  126OSM   C10S13435   1.939   5.972   7.246  0.1239 -1.2341 -0.5470
  126OSM   H10S13436   2.035   6.027   7.238 -0.8309  0.3016 -2.4949
  126OSM   H10T13437   1.970   5.869   7.218 -0.0688 -1.1285 -1.1707
  126OSM   C11S13438   1.877   5.977   7.386  0.0814  0.1036 -0.6750
  126OSM   H11S13439   1.806   5.893   7.396  0.7651 -0.2651  1.7614
  126OSM   H11T13440   1.822   6.073   7.393 -0.2532 -0.2259  2.4381
  126OSM   C12S13441   1.982   5.971   7.494 -0.0997 -0.2935  0.2129
  126OSM   H12S13442   2.051   6.058   7.486 -0.6715  0.3091  1.5979
  126OSM   H12T13443   2.052   5.887   7.474  0.6055  0.2358  0.4265
  126OSM   C13S13444   1.923   5.975   7.633  0.0975  0.5453  0.3995
  126OSM   H13S13445   1.872   5.878   7.650 -0.3594  1.0291  1.9144
  126OSM   H13T13446   1.834   6.042   7.628  0.3149  0.8603  0.7465
  126OSM   C14S13447   2.024   6.023   7.734 -0.5645  0.5839 -0.7980
  126OSM   H14S13448   2.054   6.126   7.706 -0.3789  0.9255  0.5620
  126OSM   H14T13449   2.108   5.951   7.741 -2.1369 -1.1756  1.4540
  126OSM   C15S13450   1.977   6.037   7.878 -0.4657 -0.3200 -0.4348
  126OSM   H15S13451   1.925   6.134   7.890  0.0137 -0.1465  0.2846
  126OSM   H15T13452   2.060   6.030   7.951  0.5234  0.8609 -1.4033
  126OSM   C16S13453   1.884   5.917   7.915 -0.4258  0.1975 -0.5610
  126OSM   H16S13454   1.945   5.825   7.901  0.7523  0.7522  0.6873
  126OSM   H16T13455   1.801   5.928   7.842 -1.1633 -1.6438 -0.0384
  126OSM   C17S13456   1.806   5.933   8.047  0.0596 -0.2746  0.3659
  126OSM   H17S13457   1.728   6.012   8.045 -0.1392 -0.4713 -1.6708
  126OSM   H17T13458   1.881   5.955   8.126  2.0838 -0.2105 -1.4781
  126OSM   C18S13459   1.737   5.803   8.088 -0.0328  0.1324 -0.5505
  126OSM   H18S13460   1.814   5.724   8.095  1.8208  1.9354  0.2962
  126OSM   H18T13461   1.668   5.773   8.006  0.6490  1.5894 -1.7165
  126OSM   H18U13462   1.696   5.812   8.191  2.1439 -0.2250  0.3863
  126OSM    C1F13463   2.359   5.821   6.945  0.8407 -0.0958  0.6778
  126OSM     OF13464   2.454   5.888   6.914  0.2880  0.3126  0.4675
  126OSM    C2F13465   2.333   5.758   7.075 -0.7874  0.3058 -0.8942
  126OSM    H2F13466   2.297   5.653   7.074 -0.1051  0.0641 -0.7392
  126OSM    H2G13467   2.254   5.819   7.125 -0.3149  1.0115 -0.9932
  126OSM    C3F13468   2.461   5.768   7.160  0.3247 -0.7730 -0.2545
  126OSM    H3F13469   2.499   5.873   7.162  1.0752 -1.0437  0.3315
  126OSM    H3G13470   2.544   5.703   7.123  2.3432  0.0695  2.3972
  126OSM    C4F13471   2.452   5.723   7.308  0.1473  0.3794 -0.0536
  126OSM    H4F13472   2.550   5.713   7.359 -0.6841 -1.9622  1.2526
  126OSM    H4G13473   2.405   5.622   7.313  0.3715  0.3217  1.9836
  126OSM    C5F13474   2.360   5.799   7.409  0.4868 -0.3310  0.1842
  126OSM    H5F13475   2.258   5.780   7.369 -0.0035  1.7538  0.3532
  126OSM    H5G13476   2.378   5.908   7.406 -1.1415 -0.0273 -2.5870
  126OSM    C6F13477   2.375   5.761   7.562  0.1817  0.5317  0.0239
  126OSM    H6F13478   2.318   5.841   7.614  0.3711  0.1750  0.7872
  126OSM    H6G13479   2.483   5.771   7.586  0.2486 -1.0186  0.4530
  126OSM    C7F13480   2.331   5.615   7.604  1.0863  0.0229 -0.6264
  126OSM    H7F13481   2.382   5.539   7.541  1.2135 -0.2884 -0.1579
  126OSM    H7G13482   2.225   5.612   7.573  1.0015  1.3769 -0.5332
  126OSM    C8F13483   2.333   5.592   7.761 -0.1756  0.9753 -0.4286
  126OSM    H8F13484   2.267   5.505   7.783 -2.0891  3.0320  2.8041
  126OSM    H8G13485   2.276   5.682   7.793 -2.1708 -0.1336 -0.7039
  126OSM    C9F13486   2.474   5.591   7.817 -0.2694  0.6260  0.5012
  126OSM    H9F13487   2.551   5.654   7.769  0.4868 -1.0467 -0.5475
  126OSM   C10F13488   2.509   5.524   7.931  0.3878 -0.6204  0.2391
  126OSM   H10F13489   2.617   5.521   7.948  0.5594 -1.8776 -0.9040
  126OSM   C11F13490   2.429   5.431   8.023 -0.1518 -0.4012 -0.0683
  126OSM   H11F13491   2.447   5.325   7.993 -0.9326 -0.1207 -1.6662
  126OSM   H11G13492   2.321   5.450   8.005 -0.2358 -0.9348 -0.1661
  126OSM   C12F13493   2.463   5.449   8.167  0.0410 -0.3139 -1.1881
  126OSM   H12F13494   2.405   5.380   8.233  0.8085  0.3898  0.2777
  126OSM   H12G13495   2.447   5.552   8.203  0.8833  0.0837 -1.9177
  126OSM   C13F13496   2.612   5.419   8.183 -0.2869 -0.4870 -0.0051
  126OSM   H13F13497   2.669   5.511   8.156 -0.9792 -0.2878 -0.8340
  126OSM   H13G13498   2.648   5.338   8.117 -0.3691 -0.6718  0.1754
  126OSM   C14F13499   2.661   5.398   8.329  0.2797  0.7093  0.0980
  126OSM   H14F13500   2.770   5.402   8.351  0.0955 -0.3013  1.3002
  126OSM   H14G13501   2.632   5.295   8.356  0.5327  0.8236  0.8195
  126OSM   C15F13502   2.596   5.494   8.436 -0.8512 -0.9808 -0.1096
  126OSM   H15F13503   2.607   5.439   8.532  1.3732 -0.9004 -0.2547
  126OSM   H15G13504   2.488   5.504   8.413 -0.7664  2.1734  0.4083
  126OSM   C16F13505   2.654   5.633   8.453 -0.5317  0.1067 -0.3936
  126OSM   H16F13506   2.593   5.695   8.522  0.1819  1.4285 -0.8992
  126OSM   H16G13507   2.639   5.685   8.355 -0.4397  1.1918  0.1563
  126OSM   C17F13508   2.801   5.634   8.501 -0.6257 -0.1042 -0.1887
  126OSM   H17F13509   2.827   5.741   8.515 -2.2140  0.2334  0.3988
  126OSM   H17G13510   2.870   5.607   8.418  0.8246  1.7776  0.3175
  126OSM   C18F13511   2.833   5.565   8.633 -0.5469  0.1085 -0.2272
  126OSM   H18F13512   2.800   5.459   8.629  0.4998 -0.4188  2.8056
  126OSM   H18G13513   2.770   5.623   8.704 -1.7810  1.6504 -2.4431
  126OSM   H18H13514   2.936   5.552   8.671 -1.0605 -0.7296  0.9352
  127OSM      N13515   3.024   6.756   6.498 -0.0361 -0.3517  0.5429
  127OSM    C1513516   2.931   6.810   6.608 -0.5253 -0.9447 -0.5462
  127OSM   H15A13517   2.895   6.908   6.579 -1.0187 -1.0652 -0.3496
  127OSM   H15B13518   2.995   6.811   6.695 -0.1128 -0.9527 -0.8431
  127OSM   H15C13519   2.846   6.744   6.616 -2.1163  1.2074  1.9478
  127OSM    C1413520   3.148   6.835   6.499  0.0670  0.1234  0.4360
  127OSM   H14A13521   3.214   6.828   6.584  1.1633  0.8304 -0.3189
  127OSM   H14B13522   3.129   6.939   6.477 -0.3223 -0.4973 -2.6344
  127OSM   H14C13523   3.216   6.793   6.426 -0.8617 -1.0803  0.2473
  127OSM    C1313524   3.055   6.612   6.529  0.0372  0.7336 -0.2524
  127OSM   H13A13525   3.122   6.595   6.612  2.3433  0.0636 -2.1260
  127OSM   H13B13526   3.107   6.575   6.442 -0.4347  0.7533 -0.5444
  127OSM   H13C13527   2.971   6.547   6.547  0.6146  0.0683  0.0977
  127OSM    C1213528   2.961   6.761   6.355  0.4654 -0.3686 -0.2566
  127OSM   H12A13529   3.039   6.728   6.288 -0.7161  0.1194 -1.9328
  127OSM   H12B13530   2.943   6.864   6.332  1.2725  0.0794  0.9940
  127OSM    C1113531   2.832   6.675   6.329 -1.3078  0.3952  0.0105
  127OSM   H11A13532   2.852   6.567   6.349 -1.3876  0.7390  2.1785
  127OSM   H11B13533   2.819   6.680   6.218  1.6588  0.0148 -0.4499
  127OSM      P13534   2.589   6.663   6.427  0.1401  0.0947 -0.3456
  127OSM    O1313535   2.533   6.720   6.555 -0.2728  0.3273  0.9779
  127OSM    O1413536   2.507   6.683   6.305  0.3941  0.2397  0.4749
  127OSM    O1113537   2.617   6.513   6.442  0.5669 -0.1100 -0.1281
  127OSM    O1213538   2.733   6.724   6.414  0.8081  0.7747 -0.3664
  127OSM    C1S13539   2.679   6.462   6.558  0.1588 -0.0230  0.2514
  127OSM    H1S13540   2.760   6.526   6.599  0.4039 -1.2635  1.7974
  127OSM    H1T13541   2.729   6.366   6.534 -0.5395 -0.5146  0.7458
  127OSM     NF13542   2.641   6.427   6.806  0.7218 -0.5563 -0.5772
  127OSM    HNF13543   2.670   6.335   6.830  1.3934 -0.0553  0.6118
  127OSM    C2S13544   2.575   6.447   6.679 -0.1102  0.1243 -0.0443
  127OSM    H2S13545   2.509   6.535   6.691  0.0353  0.4363 -1.4179
  127OSM    C3S13546   2.484   6.325   6.647 -0.0189 -0.3586  0.5125
  127OSM    H3S13547   2.549   6.235   6.642 -1.1932 -1.1648 -0.9523
  127OSM     O313548   2.413   6.338   6.530  0.5286 -0.0850 -0.3370
  127OSM    HO313549   2.458   6.409   6.484 -0.6058  0.9004 -0.0032
  127OSM    C4S13550   2.382   6.308   6.758 -0.4958  0.1259 -0.5643
  127OSM    H4S13551   2.318   6.394   6.782  1.0496  0.7582  1.5675
  127OSM    C5S13552   2.374   6.195   6.832  0.2282 -0.2303  0.6586
  127OSM    H5S13553   2.446   6.114   6.812 -0.2381 -0.5745  0.3558
  127OSM    C6S13554   2.276   6.173   6.940  0.4411 -0.3238 -0.0117
  127OSM    H6S13555   2.206   6.091   6.914 -1.9275  1.5372  0.1433
  127OSM    H6T13556   2.210   6.260   6.956  2.4484  1.1413  0.7455
  127OSM    C7S13557   2.354   6.148   7.071  0.5343 -0.0125 -0.1958
  127OSM    H7S13558   2.436   6.077   7.047  0.4524  0.0739 -0.7535
  127OSM    H7T13559   2.291   6.092   7.144 -0.6095  1.2328 -0.1941
  127OSM    C8S13560   2.411   6.275   7.136 -0.5346  0.7195 -0.8354
  127OSM    H8S13561   2.328   6.348   7.153  0.1372  0.7714  3.3559
  127OSM    H8T13562   2.480   6.317   7.059 -0.4648  1.3604 -0.4360
  127OSM    C9S13563   2.475   6.247   7.278 -0.5046 -0.2058  0.5537
  127OSM    H9S13564   2.541   6.329   7.314 -0.3098 -0.4422  0.7461
  127OSM    H9T13565   2.549   6.165   7.260  0.9667  1.2029 -0.0762
  127OSM   C10S13566   2.379   6.217   7.391  0.3005  0.0889 -0.0718
  127OSM   H10S13567   2.325   6.123   7.365 -1.7178  1.8343 -2.8176
  127OSM   H10T13568   2.305   6.300   7.390  0.8698  0.6065 -0.8378
  127OSM   C11S13569   2.452   6.195   7.525  0.0671  0.1358 -0.0055
  127OSM   H11S13570   2.501   6.292   7.545  1.3612 -0.0805 -1.8477
  127OSM   H11T13571   2.532   6.119   7.515 -0.2758 -0.4670  1.5454
  127OSM   C12S13572   2.360   6.164   7.639  0.2064 -0.4224 -0.5348
  127OSM   H12S13573   2.289   6.085   7.608 -0.0076 -0.7215  0.6638
  127OSM   H12T13574   2.303   6.258   7.652 -0.1099 -0.8496  1.5425
  127OSM   C13S13575   2.438   6.120   7.766  0.6014 -0.1117 -0.4057
  127OSM   H13S13576   2.501   6.207   7.796 -0.9216  1.3530 -1.3113
  127OSM   H13T13577   2.506   6.038   7.736 -1.7415 -1.7516 -1.5155
  127OSM   C14S13578   2.347   6.079   7.885 -0.3347 -0.1541  0.6300
  127OSM   H14S13579   2.283   5.995   7.849 -1.1138  1.4109 -1.8324
  127OSM   H14T13580   2.276   6.158   7.917 -1.2135 -0.5445 -0.2725
  127OSM   C15S13581   2.428   6.026   8.003  0.2862  0.9190 -0.2665
  127OSM   H15S13582   2.484   6.109   8.050  1.5761  0.1235 -0.3625
  127OSM   H15T13583   2.504   5.949   7.977 -0.1158  0.2215  0.5392
  127OSM   C16S13584   2.335   5.963   8.113  0.7057 -0.1682 -0.4734
  127OSM   H16S13585   2.272   6.047   8.147  0.9951 -0.0158 -0.3065
  127OSM   H16T13586   2.394   5.929   8.201  1.1506  1.2780 -0.1903
  127OSM   C17S13587   2.250   5.842   8.066 -0.6300  0.0630  0.1649
  127OSM   H17S13588   2.327   5.761   8.060  0.4592  1.1575 -1.3096
  127OSM   H17T13589   2.196   5.853   7.970 -1.2535 -2.1423  0.1940
  127OSM   C18S13590   2.148   5.796   8.172 -0.2958 -0.2645  0.0981
  127OSM   H18S13591   2.190   5.780   8.274 -1.8357  0.0003  0.7936
  127OSM   H18T13592   2.105   5.696   8.152 -0.3092  0.0824 -1.7749
  127OSM   H18U13593   2.063   5.867   8.182  0.0635  0.2320 -0.2720
  127OSM    C1F13594   2.704   6.528   6.870  0.3222  0.2545  0.6146
  127OSM     OF13595   2.704   6.647   6.825 -0.3916  0.1659  0.0181
  127OSM    C2F13596   2.774   6.492   7.000  0.9765 -0.4608 -0.5679
  127OSM    H2F13597   2.841   6.404   6.991  0.6582 -0.8288  0.4891
  127OSM    H2G13598   2.697   6.477   7.079 -0.7982 -0.1996 -2.1628
  127OSM    C3F13599   2.873   6.604   7.036  0.5145  0.1972  0.3495
  127OSM    H3F13600   2.814   6.698   7.030  0.5635  0.1412 -1.5358
  127OSM    H3G13601   2.952   6.602   6.958  2.4983  0.5141  2.2457
  127OSM    C4F13602   2.929   6.593   7.179 -0.4348 -0.2894  0.7446
  127OSM    H4F13603   3.009   6.669   7.193 -1.0091  0.2105  1.3824
  127OSM    H4G13604   2.981   6.495   7.172  0.1621  0.1503 -2.5232
  127OSM    C5F13605   2.831   6.611   7.297 -0.2137 -0.0139 -0.1249
  127OSM    H5F13606   2.746   6.539   7.303  0.1755 -0.3638  2.4157
  127OSM    H5G13607   2.796   6.716   7.299  2.5014  0.9725  1.9201
  127OSM    C6F13608   2.901   6.587   7.432 -0.0141  0.1048 -0.8578
  127OSM    H6F13609   2.978   6.665   7.453 -1.0131  1.0204 -0.4692
  127OSM    H6G13610   2.950   6.489   7.417 -1.4639 -0.8855  0.5082
  127OSM    C7F13611   2.804   6.599   7.539  0.6644 -0.1115 -0.3716
  127OSM    H7F13612   2.732   6.681   7.516  1.6977  1.9147  2.8880
  127OSM    H7G13613   2.866   6.633   7.625  0.2532 -0.2411 -0.0160
  127OSM    C8F13614   2.722   6.479   7.570 -0.0429  0.3500 -0.0545
  127OSM    H8F13615   2.698   6.429   7.473 -1.5606 -1.2406  1.0850
  127OSM    H8G13616   2.621   6.515   7.599  0.4609  1.6023  0.2009
  127OSM    C9F13617   2.784   6.383   7.673 -0.0567 -0.0174 -0.2721
  127OSM    H9F13618   2.814   6.290   7.622 -1.6243  0.0427 -1.3921
  127OSM   C10F13619   2.796   6.404   7.803  0.5010  0.4933  0.6641
  127OSM   H10F13620   2.841   6.331   7.871  0.5033  0.7539  0.9430
  127OSM   C11F13621   2.742   6.535   7.867 -0.0568  0.8159  0.3436
  127OSM   H11F13622   2.682   6.597   7.797 -1.6378 -1.9567 -0.9176
  127OSM   H11G13623   2.829   6.600   7.890  0.4213  0.5888 -0.7584
  127OSM   C12F13624   2.670   6.514   8.006 -0.0214 -0.0666 -0.3051
  127OSM   H12F13625   2.571   6.466   7.989  0.3693 -0.8573 -0.4024
  127OSM   H12G13626   2.656   6.614   8.051  2.1924  0.0782  0.1569
  127OSM   C13F13627   2.750   6.425   8.112 -0.1191 -0.1610  0.0485
  127OSM   H13F13628   2.767   6.324   8.069 -1.6613 -0.6999  0.6178
  127OSM   H13G13629   2.680   6.420   8.199 -1.9534  1.6353 -1.2469
  127OSM   C14F13630   2.886   6.482   8.164 -0.1432 -0.3694 -0.2871
  127OSM   H14F13631   2.855   6.567   8.228 -2.8761 -2.1226  0.9297
  127OSM   H14G13632   2.945   6.522   8.079  2.3712 -2.5840  0.2932
  127OSM   C15F13633   2.966   6.380   8.242 -0.0044  0.3792 -0.0028
  127OSM   H15F13634   3.013   6.314   8.166 -0.0904 -0.8634  0.9923
  127OSM   H15G13635   2.895   6.322   8.304  1.9534  0.9511  2.9920
  127OSM   C16F13636   3.078   6.453   8.312 -0.0299  0.1490 -0.0169
  127OSM   H16F13637   3.036   6.535   8.374  0.5877 -0.4471  1.2322
  127OSM   H16G13638   3.141   6.503   8.235  2.0264 -1.3164  0.6422
  127OSM   C17F13639   3.168   6.350   8.387 -0.1756  0.1681  0.2903
  127OSM   H17F13640   3.268   6.385   8.421 -0.3338  0.5635  0.3505
  127OSM   H17G13641   3.193   6.264   8.321  2.0033 -0.9359  2.3889
  127OSM   C18F13642   3.091   6.286   8.507  0.3023 -0.1070  0.0798
  127OSM   H18F13643   2.982   6.271   8.487  0.4396 -0.8344 -0.1271
  127OSM   H18G13644   3.101   6.357   8.592  1.0128  1.7370 -1.4534
  127OSM   H18H13645   3.130   6.184   8.527  2.4490  0.5505 -0.5424
  128OSM      N13646   5.731   2.493   5.808  0.4178  0.2131 -0.1350
  128OSM    C1513647   5.593   2.551   5.839 -0.0273  0.0124 -0.5372
  128OSM   H15A13648   5.545   2.584   5.748 -2.4341  2.0824  1.3631
  128OSM   H15B13649   5.625   2.634   5.900  1.7895 -2.5153  2.2356
  128OSM   H15C13650   5.527   2.493   5.901 -0.3934  1.4691  0.4895
  128OSM    C1413651   5.708   2.361   5.736  0.7257 -0.2326 -0.2511
  128OSM   H14A13652   5.708   2.372   5.629 -3.0645  0.6385 -0.3009
  128OSM   H14B13653   5.608   2.322   5.747  0.1271  1.5526  1.2441
  128OSM   H14C13654   5.789   2.296   5.766  0.6629 -0.6646 -1.0082
  128OSM    C1313655   5.805   2.585   5.715 -0.5672 -0.3942  0.0899
  128OSM   H13A13656   5.757   2.590   5.618 -0.2099 -1.8923 -0.1868
  128OSM   H13B13657   5.900   2.537   5.703 -1.5343 -1.9479 -1.9298
  128OSM   H13C13658   5.826   2.681   5.760 -3.3279 -0.6275  2.1127
  128OSM    C1213659   5.803   2.477   5.938 -0.3849 -0.0825 -0.4704
  128OSM   H12A13660   5.816   2.576   5.981  0.4656 -0.2536 -0.3200
  128OSM   H12B13661   5.899   2.432   5.920 -0.3352 -2.0453  3.5498
  128OSM    C1113662   5.737   2.392   6.052 -0.4783  0.4411 -0.3695
  128OSM   H11A13663   5.633   2.427   6.070 -0.8788 -1.0867  0.5221
  128OSM   H11B13664   5.788   2.403   6.150 -2.0182  0.7629  0.4405
  128OSM      P13665   5.601   2.162   6.004  0.1143 -0.1910 -0.0183
  128OSM    O1313666   5.492   2.240   5.937  0.3365  0.5274 -0.0289
  128OSM    O1413667   5.645   2.036   5.939 -0.0403  0.0834  0.0862
  128OSM    O1113668   5.562   2.127   6.154  0.1307  0.1944  0.4671
  128OSM    O1213669   5.732   2.255   6.021 -0.3186 -0.1465  0.1551
  128OSM    C1S13670   5.627   2.026   6.232 -0.4730  0.0618 -0.3465
  128OSM    H1S13671   5.736   2.043   6.220 -0.2695 -0.1834  0.9714
  128OSM    H1T13672   5.598   1.926   6.194 -0.8443 -0.0484  0.2216
  128OSM     NF13673   5.680   1.970   6.468 -0.3865 -0.3952  0.0457
  128OSM    HNF13674   5.644   1.901   6.530  0.8824  1.1163  2.6471
  128OSM    C2S13675   5.589   2.042   6.385 -0.3803  0.2591  0.0064
  128OSM    H2S13676   5.601   2.149   6.408  0.2589  0.0711  0.5615
  128OSM    C3S13677   5.452   1.999   6.413 -0.3989 -0.4455  0.2438
  128OSM    H3S13678   5.441   1.892   6.383  0.3610 -0.4118 -0.1694
  128OSM     O313679   5.358   2.060   6.318 -0.0156  0.6249  0.0436
  128OSM    HO313680   5.412   2.117   6.261 -0.1747 -0.1031 -0.8652
  128OSM    C4S13681   5.417   2.034   6.558  0.2729  0.3191 -0.4207
  128OSM    H4S13682   5.463   1.962   6.627 -0.5554  1.3422  1.2748
  128OSM    C5S13683   5.350   2.137   6.612  0.4541  0.0444  0.3798
  128OSM    H5S13684   5.300   2.209   6.546  2.2788  0.8045 -0.2544
  128OSM    C6S13685   5.328   2.151   6.758 -0.1984 -0.2977  0.3465
  128OSM    H6S13686   5.218   2.143   6.771 -0.5658  0.9318 -1.5961
  128OSM    H6T13687   5.358   2.244   6.811  1.6082 -1.0283  0.6698
  128OSM    C7S13688   5.401   2.050   6.855 -0.1566  0.2243  0.2486
  128OSM    H7S13689   5.506   2.031   6.825 -0.4572  0.4408 -1.0182
  128OSM    H7T13690   5.351   1.951   6.852  0.6558 -0.2090  0.8229
  128OSM    C8S13691   5.416   2.099   7.001 -0.9874 -0.1569  0.6484
  128OSM    H8S13692   5.335   2.168   7.029  0.8011  2.4990 -0.3456
  128OSM    H8T13693   5.510   2.158   7.008 -0.2204 -1.1127 -0.9832
  128OSM    C9S13694   5.435   1.986   7.097  0.9692 -0.0796 -0.1675
  128OSM    H9S13695   5.498   1.905   7.055  0.0756 -0.3381 -1.0627
  128OSM    H9T13696   5.333   1.944   7.113  0.0865  1.1566 -2.1639
  128OSM   C10S13697   5.466   2.031   7.237 -0.1758  0.4956 -0.4819
  128OSM   H10S13698   5.405   2.115   7.276 -2.1227 -1.0725  0.0153
  128OSM   H10T13699   5.570   2.069   7.246  0.3491 -0.7576 -1.0690
  128OSM   C11S13700   5.457   1.921   7.340 -0.6267 -0.1302  0.1327
  128OSM   H11S13701   5.497   1.822   7.309  2.0247  1.3955 -1.6953
  128OSM   H11T13702   5.350   1.895   7.358 -1.3955  2.8791  0.3809
  128OSM   C12S13703   5.517   1.949   7.472  0.2789  0.6475  0.0760
  128OSM   H12S13704   5.628   1.947   7.475  0.3989  0.0822 -2.6038
  128OSM   H12T13705   5.466   1.882   7.545 -0.8519  0.6915 -0.6546
  128OSM   C13S13706   5.476   2.083   7.529 -0.1884 -0.3187 -0.0671
  128OSM   H13S13707   5.367   2.100   7.519 -0.2584  0.2186  1.3218
  128OSM   H13T13708   5.518   2.162   7.462 -1.9391 -0.6267 -1.5976
  128OSM   C14S13709   5.514   2.089   7.679  0.2660  0.1155  0.6215
  128OSM   H14S13710   5.624   2.091   7.694  0.4855  0.7909 -0.8884
  128OSM   H14T13711   5.477   1.989   7.710 -1.8600  0.7041  0.1944
  128OSM   C15S13712   5.427   2.194   7.756  0.1901  0.2742 -0.4981
  128OSM   H15S13713   5.336   2.207   7.695 -0.9757 -2.5280  0.4790
  128OSM   H15T13714   5.472   2.295   7.752 -0.2601  0.5554  0.9627
  128OSM   C16S13715   5.420   2.150   7.907 -0.6432  0.1397  0.2011
  128OSM   H16S13716   5.357   2.059   7.907  0.3597 -0.6553 -2.3292
  128OSM   H16T13717   5.364   2.229   7.961  0.7066  0.0187  1.8913
  128OSM   C17S13718   5.552   2.149   7.987  0.6276 -0.3763  0.1612
  128OSM   H17S13719   5.610   2.237   7.953 -2.1637  0.8196 -1.8254
  128OSM   H17T13720   5.598   2.060   7.939 -0.9118 -1.4158  0.5487
  128OSM   C18S13721   5.544   2.135   8.137 -0.3195  0.4899  0.2543
  128OSM   H18S13722   5.503   2.040   8.177 -0.0696  0.2429 -0.0719
  128OSM   H18T13723   5.487   2.222   8.177 -0.3301  0.1385  1.0237
  128OSM   H18U13724   5.643   2.143   8.187  1.2851 -1.2637 -2.4227
  128OSM    C1F13725   5.808   1.995   6.486  0.2506 -0.4732  0.3881
  128OSM     OF13726   5.878   2.069   6.418 -0.1270  0.2622  0.2022
  128OSM    C2F13727   5.867   1.887   6.580 -0.1024  0.2609 -0.4105
  128OSM    H2F13728   5.849   1.789   6.531 -1.9488  0.1412  0.4511
  128OSM    H2G13729   5.802   1.891   6.670  0.9665 -3.1583  0.6722
  128OSM    C3F13730   6.017   1.919   6.615  0.3750  0.5082  0.6268
  128OSM    H3F13731   6.033   2.022   6.654 -1.9783  2.2298 -2.4848
  128OSM    H3G13732   6.068   1.920   6.516  0.5677 -0.5717  0.7082
  128OSM    C4F13733   6.082   1.810   6.703 -0.0118  0.5083 -0.4346
  128OSM    H4F13734   6.190   1.811   6.675  0.3902  1.1558  1.0336
  128OSM    H4G13735   6.052   1.703   6.695  3.1827 -0.5522  0.3783
  128OSM    C5F13736   6.074   1.843   6.860  0.4000  0.5119  0.2383
  128OSM    H5F13737   5.985   1.793   6.903 -0.2713  2.0480  0.6908
  128OSM    H5G13738   6.055   1.952   6.870 -2.5936  0.2201 -1.3516
  128OSM    C6F13739   6.191   1.805   6.947 -0.0990 -0.1187 -0.2335
  128OSM    H6F13740   6.286   1.848   6.908  1.4039 -4.3565 -1.7597
  128OSM    H6G13741   6.197   1.694   6.944 -2.1712 -0.2624 -0.0650
  128OSM    C7F13742   6.170   1.837   7.092  0.1184 -0.2474 -0.0370
  128OSM    H7F13743   6.089   1.774   7.134  0.4941 -0.0696  0.9911
  128OSM    H7G13744   6.138   1.943   7.097 -1.1194 -0.5928 -0.2576
  128OSM    C8F13745   6.295   1.835   7.179  0.7403  0.0377  0.0080
  128OSM    H8F13746   6.285   1.891   7.275 -0.0001  2.9125 -1.6203
  128OSM    H8G13747   6.364   1.892   7.115 -0.3714 -1.3719 -2.5880
  128OSM    C9F13748   6.335   1.692   7.202  0.0970 -0.1648 -0.1271
  128OSM    H9F13749   6.362   1.631   7.115  1.5711  0.2893 -0.0230
  128OSM   C10F13750   6.367   1.646   7.327  0.0970 -0.3805  0.5009
  128OSM   H10F13751   6.409   1.545   7.337 -0.3358 -0.5986  0.1307
  128OSM   C11F13752   6.357   1.720   7.459  0.2530  0.8456 -0.0648
  128OSM   H11F13753   6.394   1.824   7.446  0.8782  0.4662 -1.5666
  128OSM   H11G13754   6.427   1.663   7.524 -0.3162 -0.4097 -0.5072
  128OSM   C12F13755   6.216   1.733   7.515 -0.8891  0.2468  0.1249
  128OSM   H12F13756   6.171   1.631   7.525 -0.4788 -0.0797 -1.2067
  128OSM   H12G13757   6.144   1.780   7.445 -2.0080 -2.3332 -0.5864
  128OSM   C13F13758   6.202   1.815   7.649  0.6119  0.6738  0.6904
  128OSM   H13F13759   6.099   1.810   7.689  0.3335 -1.1711 -0.1735
  128OSM   H13G13760   6.226   1.921   7.625 -2.4121  1.2328 -0.2655
  128OSM   C14F13761   6.286   1.752   7.760 -0.2044 -0.1058 -0.3317
  128OSM   H14F13762   6.390   1.733   7.725 -0.1865 -1.4713  0.3750
  128OSM   H14G13763   6.252   1.649   7.782  3.1803 -1.1374  0.6842
  128OSM   C15F13764   6.270   1.840   7.887 -0.0579 -0.3344 -0.5150
  128OSM   H15F13765   6.163   1.831   7.918  0.3849 -3.0488  0.4628
  128OSM   H15G13766   6.284   1.947   7.859  2.2729 -0.5618 -0.3602
  128OSM   C16F13767   6.355   1.788   8.007 -0.0185 -0.4193  0.2390
  128OSM   H16F13768   6.461   1.792   7.974 -0.0476  2.2723  0.2015
  128OSM   H16G13769   6.336   1.681   8.026 -0.5415 -0.5066 -0.6915
  128OSM   C17F13770   6.346   1.887   8.125 -0.5709  0.2061  0.3048
  128OSM   H17F13771   6.239   1.898   8.155 -0.7730  2.9065 -1.0837
  128OSM   H17G13772   6.376   1.991   8.101  0.5091  0.1009  1.1268
  128OSM   C18F13773   6.412   1.828   8.255  0.4186 -0.1327 -0.8079
  128OSM   H18F13774   6.523   1.836   8.251  0.4495  1.6852  1.4048
  128OSM   H18G13775   6.364   1.730   8.276 -1.2945  0.7321 -0.5524
  128OSM   H18H13776   6.386   1.891   8.343  0.3751 -1.5721  0.2465
  129OSM      N13777   5.198   5.816   5.777 -0.4350  0.3813  0.3471
  129OSM    C1513778   5.302   5.737   5.709 -0.1295 -0.0646  0.9331
  129OSM   H15A13779   5.271   5.636   5.689 -2.9118  0.5850  1.4368
  129OSM   H15B13780   5.399   5.734   5.756  0.8486  2.5027 -0.7162
  129OSM   H15C13781   5.319   5.778   5.610 -0.0222 -3.0189 -0.3831
  129OSM    C1413782   5.253   5.957   5.798  0.4450  0.8247  0.5456
  129OSM   H14A13783   5.187   6.009   5.864  1.2244  1.8097  0.5797
  129OSM   H14B13784   5.266   6.001   5.700 -1.3297  0.5786  0.1785
  129OSM   H14C13785   5.341   5.947   5.860  1.1179 -1.4431 -0.6684
  129OSM    C1313786   5.077   5.814   5.696  0.6374 -0.0937 -0.7489
  129OSM   H13A13787   5.052   5.716   5.659  0.4915 -0.8816  1.3009
  129OSM   H13B13788   5.089   5.874   5.607  0.1590  1.7910  0.4082
  129OSM   H13C13789   4.992   5.852   5.750  0.3427 -1.6628 -0.0415
  129OSM    C1213790   5.171   5.752   5.914 -0.1529  0.2718  0.0618
  129OSM   H12A13791   5.126   5.654   5.901  0.6829 -0.0463 -0.4812
  129OSM   H12B13792   5.091   5.804   5.965 -2.6873 -1.2350 -2.0953
  129OSM    C1113793   5.292   5.732   6.001 -0.3154 -0.2031  0.0331
  129OSM   H11A13794   5.379   5.694   5.943 -1.6642 -1.1818 -1.4437
  129OSM   H11B13795   5.281   5.643   6.068 -0.6410 -0.3042 -0.1522
  129OSM      P13796   5.254   5.910   6.189 -0.4826  0.2542 -0.1154
  129OSM    O1313797   5.323   6.029   6.243 -0.2479 -0.2781  0.0300
  129OSM    O1413798   5.108   5.921   6.158 -0.0642 -0.2143 -0.1144
  129OSM    O1113799   5.282   5.781   6.280 -0.2944 -0.6409 -0.5888
  129OSM    O1213800   5.332   5.856   6.064 -0.2091 -0.0900  0.0203
  129OSM    C1S13801   5.396   5.781   6.361 -0.4258 -0.0124 -0.4571
  129OSM    H1S13802   5.479   5.847   6.328 -1.0899  0.0900 -1.9914
  129OSM    H1T13803   5.437   5.677   6.364 -0.4743 -0.0136  1.0593
  129OSM     NF13804   5.473   5.794   6.597 -0.8551 -0.1434  0.4242
  129OSM    HNF13805   5.493   5.711   6.649 -1.0139  1.6082  3.4957
  129OSM    C2S13806   5.357   5.801   6.510  0.2354  0.2780  0.0928
  129OSM    H2S13807   5.316   5.904   6.512  2.5141  1.2575 -0.4910
  129OSM    C3S13808   5.242   5.709   6.563 -0.0834  0.2433  0.1588
  129OSM    H3S13809   5.282   5.607   6.579  2.3534  1.2514  1.0099
  129OSM     O313810   5.131   5.690   6.478  0.1162  0.0419  0.3872
  129OSM    HO313811   5.159   5.716   6.390  1.1561  0.9011  0.9514
  129OSM    C4S13812   5.189   5.757   6.702  0.2117 -0.0390  0.8106
  129OSM    H4S13813   5.140   5.854   6.688  2.2391  0.9909  0.4070
  129OSM    C5S13814   5.192   5.705   6.827  0.0558 -0.7185  0.0472
  129OSM    H5S13815   5.240   5.609   6.849  3.2850  0.7569  0.0374
  129OSM    C6S13816   5.121   5.764   6.945 -0.6741  0.4854  0.0696
  129OSM    H6S13817   5.043   5.696   6.985 -0.4724 -2.3199 -3.7314
  129OSM    H6T13818   5.056   5.852   6.925 -1.9544 -0.1511  1.2645
  129OSM    C7S13819   5.232   5.797   7.049 -0.0491  0.7234  0.1891
  129OSM    H7S13820   5.317   5.854   7.006 -0.1755 -0.8170 -2.2804
  129OSM    H7T13821   5.283   5.706   7.089 -0.9798 -0.5537 -1.4335
  129OSM    C8S13822   5.169   5.869   7.162  0.4501  0.4370  0.2517
  129OSM    H8S13823   5.069   5.828   7.187 -0.8389  0.9614 -3.5242
  129OSM    H8T13824   5.144   5.971   7.126  1.4242  1.0748  1.3011
  129OSM    C9S13825   5.261   5.876   7.277 -0.5809 -0.3707 -0.4996
  129OSM    H9S13826   5.353   5.932   7.250  0.1491 -1.5085 -0.4806
  129OSM    H9T13827   5.281   5.768   7.295 -0.7332 -0.2009  0.7516
  129OSM   C10S13828   5.195   5.929   7.399  0.8323 -0.5171 -0.1996
  129OSM   H10S13829   5.099   5.877   7.418  1.4585 -2.2314 -1.3973
  129OSM   H10T13830   5.164   6.034   7.382 -0.9289 -1.2575 -1.9251
  129OSM   C11S13831   5.277   5.908   7.528  0.2895 -1.6538 -0.4415
  129OSM   H11S13832   5.365   5.972   7.508  0.0340 -0.8185  0.9543
  129OSM   H11T13833   5.296   5.801   7.553  0.3417 -1.3406  0.9657
  129OSM   C12S13834   5.207   5.985   7.651  0.0059  0.1022  1.0224
  129OSM   H12S13835   5.112   5.932   7.673  0.0938 -0.1403  0.8139
  129OSM   H12T13836   5.168   6.085   7.619 -2.4404 -0.5762  1.6967
  129OSM   C13S13837   5.289   6.003   7.782 -0.4478  0.0809 -0.2859
  129OSM   H13S13838   5.372   6.068   7.749 -0.4327  1.1499  1.6995
  129OSM   H13T13839   5.336   5.906   7.809  0.0768  0.4031 -0.0210
  129OSM   C14S13840   5.220   6.049   7.910  0.7485 -0.8323  0.1845
  129OSM   H14S13841   5.173   6.146   7.882  1.0891 -0.2932  1.4105
  129OSM   H14T13842   5.290   6.073   7.993 -2.0009  1.0206  2.1543
  129OSM   C15S13843   5.115   5.950   7.960  0.1297 -0.2176  0.1325
  129OSM   H15S13844   5.161   5.853   7.988  2.6817 -0.4433 -4.0210
  129OSM   H15T13845   5.051   5.927   7.872 -0.2982 -0.2708  0.4517
  129OSM   C16S13846   5.033   6.009   8.079  0.4167 -0.5570 -0.0830
  129OSM   H16S13847   4.974   5.931   8.131  2.2134 -1.5842  0.5179
  129OSM   H16T13848   4.979   6.097   8.036  2.0045  0.9710  0.8962
  129OSM   C17S13849   5.118   6.068   8.193 -0.6926 -0.6928 -0.6240
  129OSM   H17S13850   5.173   6.161   8.167  1.9152 -1.1520  2.5791
  129OSM   H17T13851   5.198   5.993   8.209  0.1102  0.2078 -0.3102
  129OSM   C18S13852   5.032   6.111   8.316  0.5943 -0.1257  0.6251
  129OSM   H18S13853   4.967   6.025   8.343 -1.8107  0.6734 -2.2557
  129OSM   H18T13854   4.963   6.194   8.293  0.9414 -0.6425 -2.8199
  129OSM   H18U13855   5.091   6.148   8.403 -2.4255 -0.2451  2.8997
  129OSM    C1F13856   5.565   5.889   6.592  0.3110  0.2557  0.4547
  129OSM     OF13857   5.542   6.001   6.546 -0.9196  0.4488  0.3513
  129OSM    C2F13858   5.703   5.850   6.638  0.5078 -0.8348  0.0264
  129OSM    H2F13859   5.762   5.939   6.608 -0.6925 -0.2020 -0.5162
  129OSM    H2G13860   5.734   5.755   6.589  1.2278 -0.3909 -0.4121
  129OSM    C3F13861   5.716   5.843   6.791  0.0970 -0.1375 -0.5878
  129OSM    H3F13862   5.820   5.868   6.818  0.2124 -1.2240  0.0204
  129OSM    H3G13863   5.696   5.745   6.839 -2.0431  1.4183  2.0001
  129OSM    C4F13864   5.624   5.948   6.869 -0.7416 -0.1921 -0.3793
  129OSM    H4F13865   5.517   5.921   6.855  0.0153 -2.4538 -2.5684
  129OSM    H4G13866   5.645   6.050   6.832  1.1290 -0.5413 -0.3875
  129OSM    C5F13867   5.643   5.951   7.019  0.3432  1.1443 -0.6664
  129OSM    H5F13868   5.590   6.031   7.074  0.5920  1.0683 -0.3066
  129OSM    H5G13869   5.749   5.970   7.045  0.3845 -1.9640  2.2009
  129OSM    C6F13870   5.623   5.820   7.105  0.3222 -0.6540 -0.6281
  129OSM    H6F13871   5.663   5.735   7.046 -1.8400 -0.9287 -1.8292
  129OSM    H6G13872   5.516   5.801   7.128  0.7456 -1.8199  0.4550
  129OSM    C7F13873   5.691   5.824   7.244 -0.5295 -0.0933  0.7456
  129OSM    H7F13874   5.800   5.846   7.247 -0.3802 -0.6474  4.9086
  129OSM    H7G13875   5.680   5.721   7.283 -0.7135 -0.2687  0.2352
  129OSM    C8F13876   5.609   5.895   7.354 -0.1439  0.1684 -0.3149
  129OSM    H8F13877   5.656   5.872   7.452  0.4692 -0.7302 -0.8038
  129OSM    H8G13878   5.515   5.836   7.348 -0.3214  0.4300 -0.1115
  129OSM    C9F13879   5.585   6.044   7.341  0.3023  0.2549 -0.3846
  129OSM    H9F13880   5.502   6.071   7.274 -0.4554 -0.9432  0.0333
  129OSM   C10F13881   5.662   6.142   7.395 -0.7112  0.1507  0.4170
  129OSM   H10F13882   5.633   6.246   7.372 -1.4889 -0.8546 -4.1383
  129OSM   C11F13883   5.791   6.128   7.471  0.4767 -0.2303  0.3102
  129OSM   H11F13884   5.878   6.170   7.416 -0.0519  0.4093 -0.0485
  129OSM   H11G13885   5.820   6.021   7.476  0.9648 -0.0712  1.0908
  129OSM   C12F13886   5.792   6.183   7.614  0.1738  0.2555 -0.7221
  129OSM   H12F13887   5.753   6.287   7.610 -0.7309 -0.0546 -0.3785
  129OSM   H12G13888   5.896   6.187   7.653 -0.6768 -2.3805  2.1646
  129OSM   C13F13889   5.717   6.097   7.711 -0.8694  0.0459  0.2280
  129OSM   H13F13890   5.611   6.077   7.687 -1.6079  2.2053  1.4085
  129OSM   H13G13891   5.712   6.149   7.809 -0.8640 -1.1905  0.9019
  129OSM   C14F13892   5.787   5.959   7.726 -0.0561  0.4744 -0.2768
  129OSM   H14F13893   5.897   5.963   7.739  0.5633 -2.5361 -3.2635
  129OSM   H14G13894   5.765   5.887   7.644 -0.5757 -2.2718  2.0752
  129OSM   C15F13895   5.727   5.867   7.833 -0.5271  0.5060  0.3360
  129OSM   H15F13896   5.767   5.764   7.834  0.7352  0.8731 -2.4565
  129OSM   H15G13897   5.617   5.859   7.814 -0.1908 -2.0734 -1.0019
  129OSM   C16F13898   5.722   5.911   7.981  0.4374  0.2260  0.6888
  129OSM   H16F13899   5.675   6.012   7.983  0.1580  0.1875 -1.6502
  129OSM   H16G13900   5.825   5.920   8.023  0.6768  3.6452 -0.3204
  129OSM   C17F13901   5.648   5.810   8.076  0.3691 -0.4875 -0.4935
  129OSM   H17F13902   5.713   5.725   8.109  1.5053  0.3702 -0.4704
  129OSM   H17G13903   5.560   5.776   8.019 -1.9488  2.4981  1.0198
  129OSM   C18F13904   5.590   5.873   8.209 -0.9687 -0.0127  0.0402
  129OSM   H18F13905   5.526   5.961   8.187  1.0524  0.7442 -3.6765
  129OSM   H18G13906   5.681   5.902   8.266 -0.8514 -0.1972 -0.0533
  129OSM   H18H13907   5.521   5.808   8.267 -2.4087  0.8070 -0.6965
  130OSM      N13908   6.325   3.255   6.469 -0.4500  0.1761  0.0127
  130OSM    C1513909   6.326   3.219   6.327 -0.0180 -0.4784 -0.2669
  130OSM   H15A13910   6.422   3.211   6.280 -0.5523 -2.1446 -1.1619
  130OSM   H15B13911   6.266   3.280   6.261  2.2624 -0.1124 -2.1099
  130OSM   H15C13912   6.281   3.123   6.307 -1.7493  0.1968  0.1437
  130OSM    C1413913   6.439   3.175   6.523 -0.6353 -0.0959  0.4096
  130OSM   H14A13914   6.446   3.189   6.630 -3.0091 -0.0850  0.6048
  130OSM   H14B13915   6.530   3.217   6.483 -0.9334  1.9536  1.7004
  130OSM   H14C13916   6.430   3.069   6.509  0.2892  0.0773 -2.0029
  130OSM    C1313917   6.346   3.401   6.486 -0.1340  0.5663 -0.3282
  130OSM   H13A13918   6.353   3.438   6.587 -3.2948  1.3585 -0.2872
  130OSM   H13B13919   6.265   3.458   6.442 -0.7589 -0.6140 -0.7747
  130OSM   H13C13920   6.436   3.434   6.437 -1.0796  0.9959 -1.8731
  130OSM    C1213921   6.196   3.219   6.533  0.1481  0.2563  0.3146
  130OSM   H12A13922   6.120   3.266   6.473 -0.6671 -0.0548  1.0835
  130OSM   H12B13923   6.185   3.273   6.626  0.0527  1.3593 -0.3130
  130OSM    C1113924   6.159   3.077   6.558  0.4924  0.2259 -0.0517
  130OSM   H11A13925   6.071   3.073   6.625  1.1757  0.4942  0.8751
  130OSM   H11B13926   6.238   3.028   6.620 -0.1025  1.7488  1.9990
  130OSM      P13927   6.000   3.033   6.348 -0.0256 -0.2211  0.0526
  130OSM    O1313928   5.938   3.166   6.369  0.3055  0.2437  0.4565
  130OSM    O1413929   6.031   2.993   6.211 -0.6749  0.5107  0.1607
  130OSM    O1113930   5.891   2.934   6.405  0.2901  0.1859 -0.3606
  130OSM    O1213931   6.132   3.010   6.436 -0.0688 -0.2226 -0.6062
  130OSM    C1S13932   5.925   2.792   6.431 -0.6597 -0.7911  0.1223
  130OSM    H1S13933   6.004   2.767   6.357  0.7758 -0.4000  1.4769
  130OSM    H1T13934   5.840   2.728   6.399 -0.5870 -1.5265  1.3385
  130OSM     NF13935   5.990   2.626   6.601  0.6417 -0.0185  0.6849
  130OSM    HNF13936   5.937   2.571   6.665  1.7976 -1.4101  0.4977
  130OSM    C2S13937   5.940   2.764   6.585 -0.2561 -0.2177 -0.2147
  130OSM    H2S13938   6.024   2.826   6.623 -0.9182 -0.0969  1.1034
  130OSM    C3S13939   5.813   2.782   6.655  0.0143 -0.2851  0.1851
  130OSM    H3S13940   5.749   2.701   6.614  2.0178 -1.3928 -0.8651
  130OSM     O313941   5.738   2.902   6.637  0.3843  0.5408  0.0962
  130OSM    HO313942   5.780   2.939   6.559  3.2183  0.1057  1.3011
  130OSM    C4S13943   5.826   2.766   6.811  0.1435  0.2038  0.3772
  130OSM    H4S13944   5.912   2.823   6.849  1.2073 -0.2873 -1.1668
  130OSM    C5S13945   5.749   2.701   6.895 -0.0757  0.3441  0.3022
  130OSM    H5S13946   5.665   2.638   6.860  1.3443 -1.2984 -0.2924
  130OSM    C6S13947   5.791   2.710   7.038  0.3019 -0.0770 -0.4360
  130OSM    H6S13948   5.706   2.760   7.089  0.3906 -0.5483  0.1874
  130OSM    H6T13949   5.879   2.776   7.051 -0.3278  0.3409  2.2070
  130OSM    C7S13950   5.796   2.573   7.118 -0.4004  0.1572 -1.0283
  130OSM    H7S13951   5.888   2.516   7.098 -1.3522 -1.7491 -0.1760
  130OSM    H7T13952   5.700   2.517   7.113 -1.4153  1.6887  0.1966
  130OSM    C8S13953   5.800   2.613   7.267 -0.3743 -0.3846 -0.1543
  130OSM    H8S13954   5.722   2.689   7.289  0.6546  0.6018  0.1628
  130OSM    H8T13955   5.897   2.665   7.283  0.3148 -0.9588 -2.1571
  130OSM    C9S13956   5.764   2.502   7.367  0.0670 -0.9798  0.1422
  130OSM    H9S13957   5.834   2.419   7.344  1.3529  0.7526 -2.7127
  130OSM    H9T13958   5.662   2.462   7.347 -0.0202  0.5942 -3.0945
  130OSM   C10S13959   5.762   2.550   7.517  0.3114 -0.6394 -0.2503
  130OSM   H10S13960   5.696   2.639   7.527  1.7865  0.3414  1.4272
  130OSM   H10T13961   5.861   2.581   7.556  1.4801 -3.0060 -1.1313
  130OSM   C11S13962   5.698   2.443   7.614 -0.0279 -1.0376 -0.1132
  130OSM   H11S13963   5.718   2.338   7.583 -3.1565 -1.7733 -0.0428
  130OSM   H11T13964   5.589   2.463   7.616  0.6671  4.2875  3.3927
  130OSM   C12S13965   5.743   2.453   7.761 -0.5799  0.0229  0.2624
  130OSM   H12S13966   5.853   2.440   7.756 -0.3803  1.4973  0.2453
  130OSM   H12T13967   5.702   2.362   7.810 -1.6128  0.1538 -0.3390
  130OSM   C13S13968   5.708   2.579   7.836  0.6424 -0.1056 -0.0266
  130OSM   H13S13969   5.598   2.592   7.837  0.4894 -1.2441  1.7586
  130OSM   H13T13970   5.746   2.669   7.782 -1.2815  0.0365 -1.2236
  130OSM   C14S13971   5.757   2.582   7.981  0.1611 -0.3799 -0.2521
  130OSM   H14S13972   5.768   2.477   8.015 -1.2519  0.1674  2.0993
  130OSM   H14T13973   5.678   2.627   8.044 -0.4681 -2.8003  0.8006
  130OSM   C15S13974   5.878   2.683   7.996 -0.7313  0.0208 -0.7804
  130OSM   H15S13975   5.860   2.784   7.954  0.9936  0.8384  0.3339
  130OSM   H15T13976   5.965   2.639   7.942 -0.4536 -1.3696  0.7110
  130OSM   C16S13977   5.936   2.692   8.145 -0.2316  1.1070  0.1434
  130OSM   H16S13978   5.880   2.769   8.202 -1.5086  0.0238  0.3765
  130OSM   H16T13979   6.041   2.730   8.143  0.0545  0.8803  4.0562
  130OSM   C17S13980   5.949   2.566   8.228 -0.1798 -0.0806 -0.3011
  130OSM   H17S13981   6.030   2.600   8.296  0.0987  0.4701 -0.9032
  130OSM   H17T13982   5.961   2.476   8.164  0.1654  1.0453 -1.8523
  130OSM   C18S13983   5.820   2.527   8.313  0.3626 -0.0219 -0.0077
  130OSM   H18S13984   5.771   2.612   8.365  0.0892  0.8719 -1.6294
  130OSM   H18T13985   5.859   2.464   8.395  0.8702 -0.7097 -0.7606
  130OSM   H18U13986   5.749   2.469   8.250  1.3388  0.4909 -1.6349
  130OSM    C1F13987   6.106   2.576   6.549  0.3139  0.0072  0.0746
  130OSM     OF13988   6.180   2.638   6.474 -0.0742  0.2411 -0.2506
  130OSM    C2F13989   6.124   2.434   6.592  0.1364  0.0413  0.1669
  130OSM    H2F13990   6.055   2.368   6.536 -1.0239  0.2634  1.2738
  130OSM    H2G13991   6.098   2.428   6.700  0.5374 -0.7243  0.2315
  130OSM    C3F13992   6.264   2.380   6.567  0.1087 -0.4664  0.3696
  130OSM    H3F13993   6.341   2.436   6.624  0.9183  1.6281 -2.5536
  130OSM    H3G13994   6.289   2.393   6.460 -0.7284  0.7324  0.3013
  130OSM    C4F13995   6.279   2.231   6.611 -0.5101 -0.0232 -0.5080
  130OSM    H4F13996   6.381   2.192   6.588 -0.6196 -0.6007 -0.0545
  130OSM    H4G13997   6.212   2.158   6.560 -1.7011 -0.4650  1.5805
  130OSM    C5F13998   6.259   2.199   6.761 -0.8624 -0.1145  0.0577
  130OSM    H5F13999   6.291   2.096   6.786  1.8031  0.2281 -1.5545
  130OSM    H5G14000   6.149   2.195   6.768 -0.7416 -0.3703  2.4992
  130OSM    C6F14001   6.309   2.307   6.861  0.2386 -0.3587  0.0128
  130OSM    H6F14002   6.260   2.404   6.836 -4.0962 -2.2797  0.0461
  130OSM    H6G14003   6.416   2.331   6.847  0.1421  0.2109  0.1954
  130OSM    C7F14004   6.270   2.280   7.010 -0.1605  0.0699 -0.2340
  130OSM    H7F14005   6.340   2.206   7.055  0.5941  1.4200  0.8876
  130OSM    H7G14006   6.166   2.242   7.005  0.1986 -0.8163 -1.5998
  130OSM    C8F14007   6.292   2.410   7.105  0.5900 -0.0591 -0.0160
  130OSM    H8F14008   6.288   2.505   7.048  2.0198 -0.9491 -1.7110
  130OSM    H8G14009   6.395   2.399   7.143  1.1560  1.5747 -0.9884
  130OSM    C9F14010   6.184   2.405   7.217  0.2391 -0.1327  0.3919
  130OSM    H9F14011   6.084   2.442   7.189  0.1399  0.8028  1.8793
  130OSM   C10F14012   6.209   2.389   7.347  0.8974  0.0161  0.5035
  130OSM   H10F14013   6.121   2.371   7.412 -0.5624 -0.4374 -1.4888
  130OSM   C11F14014   6.348   2.367   7.403  0.5906  0.5203 -0.2752
  130OSM   H11F14015   6.393   2.469   7.410 -1.0520  1.1848  1.7173
  130OSM   H11G14016   6.412   2.300   7.342  0.8940  0.3539  0.2211
  130OSM   C12F14017   6.341   2.310   7.545  0.0262 -0.3156 -0.1731
  130OSM   H12F14018   6.444   2.278   7.571 -0.7594 -0.6836  2.8679
  130OSM   H12G14019   6.284   2.214   7.555  0.4981 -0.4149  2.0339
  130OSM   C13F14020   6.301   2.409   7.656  0.4232 -0.2738  0.0885
  130OSM   H13F14021   6.208   2.465   7.638 -1.6919 -2.2573  3.5839
  130OSM   H13G14022   6.377   2.488   7.672  0.9570 -0.8315  0.3833
  130OSM   C14F14023   6.294   2.349   7.803  0.1668  0.4334  0.1244
  130OSM   H14F14024   6.398   2.317   7.825 -0.7543 -2.0627  1.3496
  130OSM   H14G14025   6.222   2.264   7.806  2.2378 -1.4452 -0.5711
  130OSM   C15F14026   6.241   2.456   7.898  0.1067 -0.6458 -0.0678
  130OSM   H15F14027   6.139   2.488   7.866  1.1114  4.1896  0.8412
  130OSM   H15G14028   6.312   2.540   7.890  0.5129 -1.0825 -1.2577
  130OSM   C16F14029   6.252   2.401   8.042 -0.1746 -0.3733 -0.4636
  130OSM   H16F14030   6.217   2.296   8.045 -0.2362 -0.3410  1.4472
  130OSM   H16G14031   6.186   2.461   8.108 -0.7044 -1.7333  0.2910
  130OSM   C17F14032   6.395   2.426   8.088 -0.0314 -0.5107 -0.1195
  130OSM   H17F14033   6.473   2.402   8.012  3.4348  2.3944  2.1781
  130OSM   H17G14034   6.426   2.345   8.158 -0.1388 -1.1623 -0.8075
  130OSM   C18F14035   6.434   2.565   8.146 -0.7619  0.1526  0.1458
  130OSM   H18F14036   6.392   2.635   8.070  0.0158  0.5063  0.0371
  130OSM   H18G14037   6.537   2.587   8.180 -0.8565  1.4273 -0.3356
  130OSM   H18H14038   6.381   2.588   8.241  1.4207  2.4008  0.9106
  131OSM      N14039   6.354   5.996   6.115 -0.2008  0.4873 -0.6652
  131OSM    C1514040   6.494   5.945   6.078 -0.1315  0.3106  0.0994
  131OSM   H15A14041   6.529   5.876   6.154 -0.0019 -0.3793 -0.5665
  131OSM   H15B14042   6.576   6.015   6.071  1.3776 -1.3665  0.0131
  131OSM   H15C14043   6.485   5.887   5.987 -2.4878 -0.5844  0.8231
  131OSM    C1414044   6.372   6.054   6.255 -0.4484 -0.3770 -0.8883
  131OSM   H14A14045   6.444   6.134   6.261 -0.6752 -0.2897  1.4245
  131OSM   H14B14046   6.402   5.976   6.323  2.9832  0.6673 -1.0094
  131OSM   H14C14047   6.277   6.096   6.284  0.3784  0.5603  0.5423
  131OSM    C1314048   6.316   6.098   6.011 -0.8682  0.1127 -0.4259
  131OSM   H13A14049   6.305   6.073   5.907  0.5367  1.5247 -0.9378
  131OSM   H13B14050   6.385   6.178   6.032  3.4121 -3.1005 -0.9841
  131OSM   H13C14051   6.221   6.144   6.036 -0.5185 -0.3287  1.9350
  131OSM    C1214052   6.253   5.877   6.127  0.1121  0.0924  0.1351
  131OSM   H12A14053   6.301   5.798   6.183 -1.2182  0.0288  1.2271
  131OSM   H12B14054   6.232   5.849   6.025  0.0214 -1.3256  0.5211
  131OSM    C1114055   6.119   5.916   6.197  0.0375  0.0001 -0.5367
  131OSM   H11A14056   6.039   5.846   6.165 -2.0100  2.1053 -0.2791
  131OSM   H11B14057   6.086   6.017   6.167 -0.4265 -0.3658 -1.3085
  131OSM      P14058   6.030   5.847   6.438  0.3124  0.2584 -0.7465
  131OSM    O1314059   5.896   5.879   6.394  0.3858  0.2725 -0.2167
  131OSM    O1414060   6.062   5.704   6.452  0.2475 -0.6356  0.2453
  131OSM    O1114061   6.054   5.907   6.578  0.0435  0.7443  0.4365
  131OSM    O1214062   6.140   5.907   6.334  0.0528  0.0505 -0.2549
  131OSM    C1S14063   6.184   5.981   6.596  0.5797 -0.1448  0.1811
  131OSM    H1S14064   6.196   6.060   6.519  0.3455 -0.4650 -0.1895
  131OSM    H1T14065   6.276   5.919   6.599  0.5334 -0.1974  0.6801
  131OSM     NF14066   6.283   6.153   6.727  0.4344 -0.3453  0.2063
  131OSM    HNF14067   6.374   6.131   6.762  1.1346 -1.8756 -2.3118
  131OSM    C2S14068   6.180   6.052   6.737 -0.6260 -0.6400  0.3371
  131OSM    H2S14069   6.084   6.107   6.742 -0.1646  0.3852 -1.4329
  131OSM    C3S14070   6.188   5.949   6.850 -0.4476 -0.3197  0.8225
  131OSM    H3S14071   6.281   5.888   6.841 -1.3767 -1.5307 -1.6434
  131OSM     O314072   6.096   5.844   6.839 -0.4927 -0.3686  0.1522
  131OSM    HO314073   6.035   5.862   6.767 -1.7549 -1.4412  0.9046
  131OSM    C4S14074   6.187   6.025   6.981  0.8906 -0.2938 -0.8625
  131OSM    H4S14075   6.288   6.067   6.988  1.1048 -0.6879 -1.4582
  131OSM    C5S14076   6.078   6.038   7.062  0.1839  0.1279  0.1088
  131OSM    H5S14077   5.983   5.990   7.034  0.1491 -1.3888  2.5294
  131OSM    C6S14078   6.066   6.100   7.196  0.6330  0.1429  0.4003
  131OSM    H6S14079   6.072   6.021   7.274 -3.1427  0.9720  1.7596
  131OSM    H6T14080   5.966   6.148   7.208 -1.1899 -3.4465  0.9502
  131OSM    C7S14081   6.169   6.208   7.233 -1.1198  0.2451  0.0602
  131OSM    H7S14082   6.169   6.282   7.150  2.4741  0.0290 -0.2968
  131OSM    H7T14083   6.274   6.172   7.230 -0.8300  1.0829 -0.2125
  131OSM    C8S14084   6.143   6.261   7.369 -0.0428 -0.1130 -0.1319
  131OSM    H8S14085   6.099   6.186   7.438 -0.0708 -2.0812 -2.1744
  131OSM    H8T14086   6.084   6.354   7.369  1.4574  0.8821  0.1050
  131OSM    C9S14087   6.276   6.291   7.444 -0.1279  0.1179 -0.2959
  131OSM    H9S14088   6.329   6.369   7.386 -2.2482  0.3953 -1.9708
  131OSM    H9T14089   6.335   6.197   7.455  0.7380  0.5015 -1.4452
  131OSM   C10S14090   6.254   6.351   7.581  0.1479 -0.0438 -0.9544
  131OSM   H10S14091   6.187   6.277   7.629  0.5759  0.3105  0.2304
  131OSM   H10T14092   6.209   6.453   7.574  0.4702  0.0468 -1.8293
  131OSM   C11S14093   6.378   6.359   7.674  0.4164 -0.5573  0.2146
  131OSM   H11S14094   6.452   6.411   7.610 -0.9671  2.8250  1.1339
  131OSM   H11T14095   6.426   6.264   7.706  1.7964 -0.0642 -0.3363
  131OSM   C12S14096   6.363   6.455   7.792 -0.1432 -0.7430  0.2158
  131OSM   H12S14097   6.357   6.561   7.760  2.5842 -0.1715  1.3113
  131OSM   H12T14098   6.456   6.437   7.850  1.3109  0.9190 -1.4459
  131OSM   C13S14099   6.256   6.415   7.889 -0.0191 -0.2301 -0.5225
  131OSM   H13S14100   6.283   6.307   7.899  0.6993 -0.0265 -0.2092
  131OSM   H13T14101   6.167   6.413   7.821 -1.6961 -3.0399  1.5290
  131OSM   C14S14102   6.266   6.509   8.011  0.3789  0.1374 -0.2428
  131OSM   H14S14103   6.354   6.488   8.074  0.2303  1.3161  0.3755
  131OSM   H14T14104   6.189   6.469   8.081 -0.8301  3.2127  0.3267
  131OSM   C15S14105   6.219   6.663   7.995  0.0582  0.4544 -0.0412
  131OSM   H15S14106   6.141   6.686   7.920  0.0318 -0.9952 -0.5064
  131OSM   H15T14107   6.306   6.724   7.962  0.0041  1.6628  1.9418
  131OSM   C16S14108   6.190   6.726   8.129 -0.6248  0.2792 -0.0964
  131OSM   H16S14109   6.106   6.674   8.181 -0.3599  1.2624  1.3895
  131OSM   H16T14110   6.167   6.832   8.102  0.5157  0.0923 -1.8879
  131OSM   C17S14111   6.318   6.751   8.218  0.0510 -0.1690 -0.6410
  131OSM   H17S14112   6.389   6.801   8.150  0.1296 -0.5378 -0.8346
  131OSM   H17T14113   6.345   6.648   8.252  0.8884  0.9697  2.4924
  131OSM   C18S14114   6.287   6.846   8.342 -0.2674 -0.5892  0.4460
  131OSM   H18S14115   6.382   6.884   8.385  0.2723 -0.8961 -0.4449
  131OSM   H18T14116   6.249   6.776   8.420 -1.9838 -2.1575 -1.6469
  131OSM   H18U14117   6.222   6.934   8.324  0.1982  0.1684  2.3281
  131OSM    C1F14118   6.266   6.269   6.659  0.4010  0.4161  0.3607
  131OSM     OF14119   6.166   6.296   6.588 -0.1206  0.2923 -0.4281
  131OSM    C2F14120   6.393   6.349   6.656  0.3161 -0.6060  0.0366
  131OSM    H2F14121   6.420   6.392   6.557  2.1823  2.2277  1.6396
  131OSM    H2G14122   6.472   6.277   6.685  0.6039  0.5064  2.1601
  131OSM    C3F14123   6.396   6.463   6.761 -0.8436  0.5265 -0.1175
  131OSM    H3F14124   6.325   6.545   6.737  1.2139  2.7471  0.9031
  131OSM    H3G14125   6.498   6.508   6.754 -0.4128 -0.6541 -2.2208
  131OSM    C4F14126   6.385   6.422   6.910  0.1983  0.8384  0.3482
  131OSM    H4F14127   6.465   6.349   6.937 -0.8047 -0.6777 -0.6736
  131OSM    H4G14128   6.284   6.381   6.928 -0.1563  1.7470  0.5161
  131OSM    C5F14129   6.401   6.550   6.991  0.0095 -0.6927 -0.2742
  131OSM    H5F14130   6.332   6.630   6.958  2.0427  0.8219 -1.0045
  131OSM    H5G14131   6.502   6.594   6.983 -0.3009  0.1743  0.3920
  131OSM    C6F14132   6.374   6.533   7.138  0.3100 -0.3859 -0.3124
  131OSM    H6F14133   6.428   6.442   7.172  0.5867 -1.6279 -3.7064
  131OSM    H6G14134   6.264   6.519   7.143  0.5405 -2.3112  0.5798
  131OSM    C7F14135   6.429   6.657   7.221 -0.1531 -0.8817  0.2607
  131OSM    H7F14136   6.368   6.670   7.312 -0.8727 -0.5938 -0.2576
  131OSM    H7G14137   6.409   6.753   7.169  1.1150  0.6869  2.4795
  131OSM    C8F14138   6.575   6.648   7.257  0.5257  0.5694 -0.5601
  131OSM    H8F14139   6.626   6.633   7.159  1.4710  0.2914 -0.0450
  131OSM    H8G14140   6.593   6.555   7.315  0.2101  0.2216 -1.0161
  131OSM    C9F14141   6.620   6.776   7.331  0.7849  0.5551 -0.1862
  131OSM    H9F14142   6.590   6.868   7.278 -2.5708 -0.3332 -0.0389
  131OSM   C10F14143   6.669   6.788   7.454  0.0580 -0.2291 -0.3971
  131OSM   H10F14144   6.683   6.893   7.486 -1.7896  0.1823 -0.8293
  131OSM   C11F14145   6.716   6.673   7.549  0.2743 -0.2011 -0.4866
  131OSM   H11F14146   6.826   6.666   7.559  0.1110 -0.0567  1.9645
  131OSM   H11G14147   6.682   6.577   7.505 -5.0082  1.2259 -0.1589
  131OSM   C12F14148   6.669   6.670   7.702 -0.2897 -0.0349 -0.2999
  131OSM   H12F14149   6.690   6.569   7.743 -0.4325 -0.4274 -1.1665
  131OSM   H12G14150   6.560   6.692   7.691 -0.3106 -0.3515 -0.7948
  131OSM   C13F14151   6.735   6.781   7.793  0.4988  0.4042 -0.1331
  131OSM   H13F14152   6.735   6.879   7.739 -1.5528  1.3503  1.4259
  131OSM   H13G14153   6.841   6.759   7.818  0.3157 -0.5625 -0.1660
  131OSM   C14F14154   6.655   6.798   7.919 -0.4363 -0.2114  0.1919
  131OSM   H14F14155   6.702   6.733   7.996  0.1851 -0.1456 -0.1223
  131OSM   H14G14156   6.547   6.774   7.909 -0.3734 -0.9095  1.0630
  131OSM   C15F14157   6.673   6.937   7.978 -0.4108  0.0308  0.1255
  131OSM   H15F14158   6.666   7.011   7.896  0.2895  2.1604  1.8955
  131OSM   H15G14159   6.777   6.934   8.019 -0.2401  0.8431 -0.2399
  131OSM   C16F14160   6.586   6.987   8.087 -0.1882  0.5446  0.0485
  131OSM   H16F14161   6.610   6.912   8.166  0.2745 -1.4338 -1.8537
  131OSM   H16G14162   6.479   6.976   8.059 -0.1972 -0.2109  0.3398
  131OSM   C17F14163   6.634   7.123   8.148  0.1646  0.3760  0.4251
  131OSM   H17F14164   6.576   7.147   8.240 -0.7134  0.8438 -0.2316
  131OSM   H17G14165   6.608   7.186   8.060 -0.6179 -1.2353 -0.5443
  131OSM   C18F14166   6.783   7.138   8.171 -0.2402 -0.0930 -0.3001
  131OSM   H18F14167   6.787   7.245   8.202 -0.5077  0.7337 -2.8781
  131OSM   H18G14168   6.856   7.119   8.089  0.1006  0.7376 -0.2046
  131OSM   H18H14169   6.814   7.069   8.252 -1.5341  0.5453  0.7696
  132OSM      N14170   0.804   4.977   5.898 -0.8273 -0.0738 -0.2398
  132OSM    C1514171   0.894   4.919   5.993 -0.2087 -1.1949 -0.4398
  132OSM   H15A14172   0.982   4.980   6.004 -1.1186  0.1140 -0.1784
  132OSM   H15B14173   0.925   4.817   5.980  0.0023 -1.1978  0.0820
  132OSM   H15C14174   0.854   4.924   6.094 -0.2314 -2.2203 -0.3811
  132OSM    C1414175   0.794   5.121   5.915  0.0909 -0.9445  0.1626
  132OSM   H14A14176   0.882   5.179   5.890 -0.8130 -0.0647 -1.0999
  132OSM   H14B14177   0.766   5.148   6.016 -2.0999  0.4193 -0.7640
  132OSM   H14C14178   0.716   5.158   5.851 -0.5261 -0.8302  0.9665
  132OSM    C1314179   0.856   4.969   5.767  0.9874  0.3926 -0.1947
  132OSM   H13A14180   0.950   5.022   5.761  0.9790  0.6565  1.3516
  132OSM   H13B14181   0.780   5.006   5.700 -1.5854  0.0833  2.3403
  132OSM   H13C14182   0.863   4.864   5.742 -0.8000  0.4692 -1.1582
  132OSM    C1214183   0.663   4.918   5.914 -0.3104  0.8913  0.0546
  132OSM   H12A14184   0.691   4.813   5.912  2.1163  1.4889 -1.1431
  132OSM   H12B14185   0.608   4.935   5.823  1.8619  0.1532 -1.4934
  132OSM    C1114186   0.580   4.963   6.040  1.0496 -0.7047 -0.2170
  132OSM   H11A14187   0.492   4.895   6.049  1.4252 -1.0874  0.7006
  132OSM   H11B14188   0.533   5.056   6.002 -0.1741 -1.4074 -0.4838
  132OSM      P14189   0.635   4.868   6.273 -0.1795  0.5016  0.1778
  132OSM    O1314190   0.517   4.900   6.360 -0.3332 -0.2960  0.3006
  132OSM    O1414191   0.648   4.731   6.217 -0.1592 -0.5091  0.8574
  132OSM    O1114192   0.764   4.892   6.355  0.0863  0.5216  0.1674
  132OSM    O1214193   0.653   4.977   6.159 -0.3517 -0.1552  0.0411
  132OSM    C1S14194   0.766   4.963   6.479  0.1505 -0.3900  0.6597
  132OSM    H1S14195   0.687   5.040   6.471  1.0399  0.3454 -3.4076
  132OSM    H1T14196   0.860   5.023   6.477 -1.3996  2.1258 -1.3147
  132OSM     NF14197   0.746   4.953   6.727  0.1718 -0.0381  0.1444
  132OSM    HNF14198   0.834   4.974   6.770 -0.4732 -0.9488  2.0076
  132OSM    C2S14199   0.756   4.867   6.607 -0.1278 -0.2910 -0.9508
  132OSM    H2S14200   0.667   4.802   6.595  0.4804 -1.1138 -1.0936
  132OSM    C3S14201   0.883   4.780   6.610 -0.1569 -0.2460  0.5349
  132OSM    H3S14202   0.969   4.850   6.602 -0.2602 -0.0391  1.2235
  132OSM     O314203   0.899   4.682   6.504  0.0637 -0.6412  0.0114
  132OSM    HO314204   0.830   4.701   6.440  0.8411 -1.0682 -0.9832
  132OSM    C4S14205   0.873   4.700   6.739 -0.8430 -0.7507  0.7967
  132OSM    H4S14206   0.770   4.676   6.768 -1.8342  1.9586 -0.1395
  132OSM    C5S14207   0.976   4.672   6.823 -0.1612  0.2395  0.8291
  132OSM    H5S14208   1.075   4.707   6.790  0.5235 -0.6526  1.8303
  132OSM    C6S14209   0.960   4.616   6.956 -0.1696  0.0056 -0.2123
  132OSM    H6S14210   0.868   4.558   6.976 -0.5268  0.4492 -0.5624
  132OSM    H6T14211   0.968   4.692   7.037 -1.3143 -0.4809  0.3752
  132OSM    C7S14212   1.082   4.522   6.987 -0.0968  0.1077  0.3737
  132OSM    H7S14213   1.168   4.591   6.998 -0.5269  1.1922 -2.2915
  132OSM    H7T14214   1.103   4.457   6.899  1.8746 -0.7617  1.4063
  132OSM    C8S14215   1.058   4.429   7.107  0.0806 -0.5034  0.3809
  132OSM    H8S14216   1.130   4.345   7.114  1.1109  0.2451 -0.8004
  132OSM    H8T14217   0.970   4.363   7.095  1.4420 -2.1364 -1.0459
  132OSM    C9S14218   1.042   4.507   7.239 -1.0356  0.1908  0.2087
  132OSM    H9S14219   0.942   4.553   7.249 -0.4671  1.9529 -1.5595
  132OSM    H9T14220   1.114   4.592   7.251 -3.0169  1.7885  1.5588
  132OSM   C10S14221   1.076   4.410   7.352 -0.3745  0.2243  0.2977
  132OSM   H10S14222   1.066   4.474   7.442 -4.7590  0.4613 -0.1310
  132OSM   H10T14223   1.175   4.361   7.343 -0.8983 -0.4493 -2.7125
  132OSM   C11S14224   0.981   4.297   7.371 -0.2704  0.2226 -0.2329
  132OSM   H11S14225   0.969   4.231   7.282 -4.2675 -0.7789  0.8317
  132OSM   H11T14226   0.885   4.331   7.415  1.6322  0.7612  3.8983
  132OSM   C12S14227   1.033   4.195   7.471 -0.3796  0.2380  0.0669
  132OSM   H12S14228   1.100   4.127   7.415 -1.7332 -0.8449 -0.2808
  132OSM   H12T14229   0.939   4.148   7.507 -1.2273  1.9552  0.2292
  132OSM   C13S14230   1.118   4.246   7.590  0.1531 -0.3974  0.2819
  132OSM   H13S14231   1.179   4.337   7.574 -1.1916  0.3738 -0.7217
  132OSM   H13T14232   1.197   4.173   7.616 -0.2694  0.1385  3.4287
  132OSM   C14S14233   1.023   4.280   7.705  0.0391  0.5527  0.4751
  132OSM   H14S14234   0.944   4.202   7.700  1.6510 -1.1609  0.7435
  132OSM   H14T14235   0.966   4.375   7.696  1.2818  1.2508 -0.2948
  132OSM   C15S14236   1.090   4.249   7.840 -0.7415  0.6511 -0.4652
  132OSM   H15S14237   1.127   4.145   7.831 -2.5009 -0.0610  0.1096
  132OSM   H15T14238   1.014   4.265   7.920  0.8812  0.3310  1.2247
  132OSM   C16S14239   1.212   4.335   7.874  0.0976 -0.0767  0.5685
  132OSM   H16S14240   1.189   4.444   7.867 -0.1822 -0.1149  0.8743
  132OSM   H16T14241   1.288   4.322   7.794 -1.3744 -0.0929 -0.8604
  132OSM   C17S14242   1.292   4.313   8.002  0.3148 -0.9040  0.0863
  132OSM   H17S14243   1.378   4.384   8.003  0.2261 -0.8018  0.5527
  132OSM   H17T14244   1.319   4.206   7.995 -2.1106 -1.6890  1.6193
  132OSM   C18S14245   1.198   4.348   8.121  0.4857 -0.2210  0.0596
  132OSM   H18S14246   1.087   4.346   8.106  0.4311 -0.4289  0.4770
  132OSM   H18T14247   1.210   4.457   8.142 -4.1488  0.6532 -0.5935
  132OSM   H18U14248   1.212   4.288   8.213 -2.5325 -0.5566  0.4024
  132OSM    C1F14249   0.647   5.040   6.753  0.0964 -0.0468 -0.0734
  132OSM     OF14250   0.541   5.037   6.694 -0.4055  0.2499 -0.1620
  132OSM    C2F14251   0.692   5.144   6.859  0.4343 -0.1156  0.6944
  132OSM    H2F14252   0.649   5.232   6.807 -1.1905 -2.1725 -1.7127
  132OSM    H2G14253   0.802   5.145   6.871  0.3736 -2.0611  1.8951
  132OSM    C3F14254   0.626   5.106   6.993 -0.3758 -0.3464 -0.1763
  132OSM    H3F14255   0.515   5.097   7.001 -0.3453 -0.0098  0.7355
  132OSM    H3G14256   0.650   5.192   7.059  0.6945 -0.0569 -0.9152
  132OSM    C4F14257   0.696   4.979   7.057  0.0647  0.3895  0.3260
  132OSM    H4F14258   0.807   4.986   7.061  0.2449 -0.9146 -1.4330
  132OSM    H4G14259   0.677   4.905   6.977 -0.9294  0.6461  0.3106
  132OSM    C5F14260   0.651   4.927   7.188 -0.3536 -0.0135  0.2025
  132OSM    H5F14261   0.541   4.942   7.193 -0.1620  1.2065  2.4419
  132OSM    H5G14262   0.694   4.980   7.276 -1.7652 -1.2755  1.7431
  132OSM    C6F14263   0.677   4.774   7.208  0.0477 -0.3389  0.7131
  132OSM    H6F14264   0.785   4.777   7.233  0.1539 -0.4077  0.2648
  132OSM    H6G14265   0.679   4.717   7.113 -1.9934  2.0577 -0.8994
  132OSM    C7F14266   0.588   4.700   7.307  0.0958 -0.2884 -0.3939
  132OSM    H7F14267   0.614   4.592   7.308 -0.8295 -0.7621 -5.0777
  132OSM    H7G14268   0.490   4.715   7.257  1.6324  0.7828 -3.3487
  132OSM    C8F14269   0.580   4.767   7.443 -0.0865 -0.3639 -0.5588
  132OSM    H8F14270   0.506   4.720   7.511  0.9508  1.9156  2.3693
  132OSM    H8G14271   0.549   4.873   7.437  0.0292 -0.3474 -0.8819
  132OSM    C9F14272   0.719   4.758   7.499  0.4212  0.5122 -0.5430
  132OSM    H9F14273   0.792   4.817   7.441  1.2287 -0.3003 -0.3784
  132OSM   C10F14274   0.754   4.687   7.608 -0.4493  0.2397  0.1403
  132OSM   H10F14275   0.862   4.692   7.627 -0.6502  5.2485  1.3239
  132OSM   C11F14276   0.670   4.603   7.700  0.1340  0.0048  0.2362
  132OSM   H11F14277   0.716   4.505   7.725 -0.5204 -0.0823  1.1450
  132OSM   H11G14278   0.581   4.569   7.642  1.9060 -1.7614 -1.6065
  132OSM   C12F14279   0.655   4.688   7.827 -0.2616  0.1987  1.0892
  132OSM   H12F14280   0.627   4.792   7.800 -0.1198 -0.4107 -1.7165
  132OSM   H12G14281   0.744   4.691   7.893 -0.4263 -0.2198  1.3387
  132OSM   C13F14282   0.534   4.633   7.910 -0.0606 -0.6928 -0.8388
  132OSM   H13F14283   0.554   4.525   7.925  0.3081 -0.4818  0.2870
  132OSM   H13G14284   0.439   4.649   7.855 -0.1971  1.2551 -0.1110
  132OSM   C14F14285   0.531   4.699   8.050 -0.5581 -0.3360 -0.2930
  132OSM   H14F14286   0.527   4.807   8.026 -0.5140 -0.7079 -2.1825
  132OSM   H14G14287   0.618   4.670   8.112 -0.3464  0.0972 -0.3867
  132OSM   C15F14288   0.403   4.652   8.119  0.7535  0.1755 -0.1470
  132OSM   H15F14289   0.409   4.547   8.155 -1.6101  0.1090  0.2307
  132OSM   H15G14290   0.325   4.664   8.040  1.3187 -0.0523 -0.7553
  132OSM   C16F14291   0.369   4.745   8.238 -1.0612 -0.0202  0.3603
  132OSM   H16F14292   0.267   4.711   8.266 -1.7313  1.2260 -0.4416
  132OSM   H16G14293   0.382   4.849   8.201 -1.0290 -0.0473  0.2950
  132OSM   C17F14294   0.469   4.727   8.363  0.3374  0.3548  0.2272
  132OSM   H17F14295   0.574   4.732   8.327  0.3324  1.2987  0.3291
  132OSM   H17G14296   0.455   4.637   8.427 -1.9169 -0.1619 -0.8748
  132OSM   C18F14297   0.447   4.846   8.459 -0.3103 -0.8317 -0.1677
  132OSM   H18F14298   0.393   4.922   8.398 -4.0268 -0.3608  3.2664
  132OSM   H18G14299   0.544   4.882   8.500 -0.1567 -0.8029 -0.5550
  132OSM   H18H14300   0.394   4.824   8.554 -1.1250  1.5715 -0.0080
  133SAPE     N14301   5.214   6.049  10.662  0.2280 -0.8870  0.4658
  133SAPE   HN114302   5.267   6.119  10.719  0.0072 -1.1248  0.9700
  133SAPE   HN214303   5.225   5.959  10.714 -1.4696 -1.5262 -0.2297
  133SAPE   HN314304   5.265   6.041  10.572 -0.3265  1.7050 -0.1526
  133SAPE   C1214305   5.065   6.088  10.654 -0.2348  0.7970  0.1582
  133SAPE  H12A14306   5.053   6.156  10.566  1.1352  2.3060  1.0785
  133SAPE  H12B14307   5.037   6.147  10.744 -0.7421 -0.9070  1.1561
  133SAPE   C1114308   4.971   5.959  10.662  0.8256  0.3974 -0.3721
  133SAPE  H11A14309   4.986   5.888  10.578 -1.3144 -1.2359  0.5444
  133SAPE  H11B14310   4.869   5.994  10.636  0.0590 -1.8026 -0.5478
  133SAPE     P14311   5.054   5.779  10.828  0.0396 -0.1799  0.1633
  133SAPE   O1314312   5.201   5.812  10.812  0.4974  0.4130  0.1737
  133SAPE   O1414313   5.003   5.729  10.960  0.3672  0.3029  0.2473
  133SAPE   O1214314   4.973   5.910  10.795  0.5045 -0.1845 -0.4362
  133SAPE   O1114315   5.012   5.680  10.716 -0.6935  0.1012  0.2846
  133SAPE    C114316   5.087   5.568  10.680 -0.3530 -0.4967  1.0378
  133SAPE    HA14317   5.168   5.546  10.753  3.1214  3.0260 -1.3694
  133SAPE    HB14318   5.014   5.485  10.664 -2.2874  0.8984  2.2564
  133SAPE    C214319   5.161   5.590  10.546 -0.2019  0.0560  0.7210
  133SAPE    HS14320   5.256   5.642  10.570  1.6633 -0.7380 -3.9848
  133SAPE   O2114321   5.075   5.666  10.453 -0.1264  0.0144  0.8986
  133SAPE   C2114322   5.142   5.738  10.362 -0.0140  0.0427 -0.4790
  133SAPE   O2214323   5.262   5.763  10.367  0.1213 -0.3728  0.3907
  133SAPE   C2214324   5.036   5.775  10.262  0.3419  0.1284 -0.6833
  133SAPE   H2R14325   4.992   5.683  10.218 -0.5308  0.5658 -0.7562
  133SAPE   H2S14326   4.949   5.820  10.315  1.0462  1.0284 -0.2736
  133SAPE    C314327   5.181   5.452  10.485 -0.0866 -0.0104 -0.1854
  133SAPE    HX14328   5.086   5.394  10.488 -1.8015  2.6710  0.1491
  133SAPE    HY14329   5.258   5.397  10.543  1.3557  2.4514  0.3688
  133SAPE   O3114330   5.219   5.458  10.343 -0.0251  0.3430 -0.4165
  133SAPE   C3114331   5.347   5.477  10.313  0.6826 -0.0233  0.0931
  133SAPE   O3214332   5.440   5.471  10.392  0.2132  0.3686  0.2365
  133SAPE   C3214333   5.364   5.499  10.170  1.4078 -0.2952 -0.5804
  133SAPE   H2X14334   5.326   5.602  10.151 -0.2396 -0.6972  0.3082
  133SAPE   H2Y14335   5.298   5.433  10.111  1.7198  2.1487 -4.0221
  133SAPE   C2314336   5.099   5.853  10.142 -0.6914 -0.2585  0.4554
  133SAPE   H3R14337   5.175   5.793  10.088  0.1520  2.2290 -1.2790
  133SAPE   H3S14338   5.148   5.946  10.178 -0.2037 -0.2106 -0.3061
  133SAPE   C2414339   5.000   5.892  10.040 -0.0690  0.2362  0.7883
  133SAPE   H4R14340   5.047   5.963   9.968  0.6284 -0.6571  0.3454
  133SAPE   H4S14341   4.920   5.945  10.095 -1.6887 -2.2384  0.9368
  133SAPE   C2514342   4.914   5.777   9.976 -0.2250 -0.2167  0.0669
  133SAPE   H5R14343   4.812   5.765  10.015 -1.1257 -0.6943 -2.2671
  133SAPE   C2614344   4.963   5.695   9.885  0.8377 -0.4296  0.1742
  133SAPE   H6R14345   4.894   5.621   9.841 -0.4180  1.7939 -1.8677
  133SAPE   C2714346   5.097   5.682   9.829 -0.4312  0.0114  0.8096
  133SAPE   H7R14347   5.129   5.578   9.853  0.5916  0.3845  1.1295
  133SAPE   H7S14348   5.172   5.751   9.873 -0.7965  1.8963 -1.3369
  133SAPE   C2814349   5.082   5.697   9.679 -0.3000 -0.3686  0.5009
  133SAPE   H8R14350   5.017   5.781   9.651  0.9111  0.3009 -0.3797
  133SAPE   C2914351   5.139   5.629   9.577 -0.4345 -0.3589  0.9529
  133SAPE   H9R14352   5.106   5.643   9.473 -2.3748 -0.7680  1.4795
  133SAPE  C21014353   5.243   5.512   9.590  0.0276  0.0140 -0.0648
  133SAPE  H10R14354   5.309   5.523   9.678  0.7038  2.2627 -0.7949
  133SAPE  H10S14355   5.300   5.516   9.495 -0.3588 -0.3754 -0.3210
  133SAPE  C21114356   5.164   5.385   9.599 -0.2181  0.0275  0.4298
  133SAPE  H11R14357   5.128   5.352   9.698  1.4869 -1.1398  0.7003
  133SAPE  C21214358   5.110   5.325   9.489  0.0192 -0.8180  0.0361
  133SAPE  H12R14359   5.049   5.234   9.504 -0.3798 -0.2512  2.0111
  133SAPE  C21314360   5.122   5.371   9.344 -1.0326  0.1743 -0.3801
  133SAPE  H13R14361   5.226   5.399   9.318 -0.7352 -2.2700 -2.1481
  133SAPE  H13S14362   5.070   5.469   9.332 -1.2348  0.1785  0.4998
  133SAPE  C21414363   5.083   5.263   9.243 -0.0460  0.3808 -0.5956
  133SAPE  H14R14364   5.108   5.160   9.270 -0.6761 -0.0768 -1.7237
  133SAPE  C21514365   5.051   5.287   9.116 -0.2387  0.0123  0.2618
  133SAPE  H15R14366   5.028   5.205   9.046  1.0843  0.2632 -0.5019
  133SAPE  C21614367   5.027   5.425   9.052 -0.2233 -0.3035  0.4463
  133SAPE  H16R14368   5.099   5.495   9.097  0.1148 -1.4237  1.7278
  133SAPE  H16S14369   4.925   5.469   9.058  0.1819  0.4470  2.4057
  133SAPE  C21714370   5.066   5.431   8.901 -0.2167  0.2495 -0.3898
  133SAPE  H17R14371   5.142   5.351   8.893  2.2742  1.9976  3.0692
  133SAPE  H17S14372   5.119   5.526   8.881  0.0965  0.4484  1.2225
  133SAPE  C21814373   4.943   5.410   8.811  0.1333  0.5369 -0.4069
  133SAPE  H18R14374   4.915   5.513   8.781 -3.2337  0.1038  0.8372
  133SAPE  H18S14375   4.853   5.381   8.869 -0.1547 -0.7433 -1.4466
  133SAPE  C21914376   4.961   5.324   8.691 -0.5710  0.0114 -0.0728
  133SAPE  H19R14377   4.864   5.323   8.637 -0.3232 -1.2736 -0.5337
  133SAPE  H19S14378   4.972   5.216   8.714 -1.6828 -0.0084  0.4285
  133SAPE  C22014379   5.079   5.357   8.596 -0.2392  0.0866 -0.2101
  133SAPE  H20R14380   5.175   5.333   8.649 -1.3410 -1.5290  1.1861
  133SAPE  H20S14381   5.081   5.465   8.573  2.0850  0.2817  0.5523
  133SAPE  H20T14382   5.094   5.298   8.503  1.8764  0.6824 -0.2972
  133SAPE   C3314383   5.515   5.495  10.135  0.1910  0.1611  0.6732
  133SAPE   H3X14384   5.575   5.404  10.158  0.4634  0.2746  0.4103
  133SAPE   H3Y14385   5.567   5.579  10.187 -1.9898  1.1104  1.4456
  133SAPE   C3414386   5.536   5.514   9.984  0.0913  0.9191  0.3661
  133SAPE   H4X14387   5.453   5.581   9.952 -0.9344 -0.2893  0.4025
  133SAPE   H4Y14388   5.513   5.422   9.926  1.7949  0.1318  0.8792
  133SAPE   C3514389   5.668   5.571   9.945 -1.4896 -0.6898 -1.1989
  133SAPE   H5X14390   5.745   5.513  10.001 -1.8343  0.5243  0.6507
  133SAPE   H5Y14391   5.680   5.671   9.992  0.2689 -0.7571 -1.4219
  133SAPE   C3614392   5.710   5.578   9.798  0.3111  0.3847  0.2375
  133SAPE   H6X14393   5.792   5.651   9.781  0.0250  0.5933 -0.2919
  133SAPE   H6Y14394   5.626   5.627   9.744  0.2079  0.8030  0.7709
  133SAPE   C3714395   5.744   5.440   9.724 -0.6175 -0.1478  0.1077
  133SAPE   H7X14396   5.668   5.364   9.753  0.0230 -0.8575 -0.0203
  133SAPE   H7Y14397   5.842   5.408   9.767 -0.9622 -1.7688 -0.2576
  133SAPE   C3814398   5.744   5.449   9.571  0.1981 -0.8484 -0.2055
  133SAPE   H8X14399   5.768   5.345   9.541  1.7345 -1.3520  2.4328
  133SAPE   H8Y14400   5.830   5.514   9.542 -0.1083  0.4901  1.7146
  133SAPE   C3914401   5.605   5.476   9.505  0.0012 -0.0280 -0.5978
  133SAPE   H9X14402   5.554   5.545   9.577 -0.0725  0.1688 -0.8361
  133SAPE   H9Y14403   5.540   5.386   9.505  0.0519 -0.0672 -1.1720
  133SAPE  C31014404   5.616   5.545   9.361 -1.2658  0.5254 -0.1912
  133SAPE  H10X14405   5.682   5.472   9.309 -0.9785  1.7862 -1.6629
  133SAPE  H10Y14406   5.675   5.637   9.378 -0.1306 -0.5918  2.5192
  133SAPE  C31114407   5.485   5.563   9.277 -0.1620 -1.1595  0.4285
  133SAPE  H11X14408   5.425   5.644   9.322  2.1671  2.1087 -1.9124
  133SAPE  H11Y14409   5.430   5.466   9.283 -0.9362 -0.7392  0.1877
  133SAPE  C31214410   5.515   5.597   9.128  0.3319 -0.3012  0.1968
  133SAPE  H12X14411   5.575   5.517   9.081 -2.4515 -2.0036 -0.6674
  133SAPE  H12Y14412   5.563   5.697   9.136 -0.8418  0.2874  0.1723
  133SAPE  C31314413   5.393   5.621   9.034 -0.5078  0.7251 -0.9383
  133SAPE  H13X14414   5.314   5.687   9.076  0.4028  2.5344 -1.9580
  133SAPE  H13Y14415   5.353   5.519   9.013  1.3935  0.2158 -2.3370
  133SAPE  C31414416   5.443   5.694   8.913 -0.2904  0.2720  0.0540
  133SAPE  H14X14417   5.487   5.790   8.949 -0.0914 -0.6242  2.3204
  133SAPE  H14Y14418   5.363   5.721   8.841 -0.0254  0.9125 -0.0135
  133SAPE  C31514419   5.553   5.617   8.829  0.0941  0.2349  0.4856
  133SAPE  H15X14420   5.507   5.520   8.801  0.2458  0.0317  0.9418
  133SAPE  H15Y14421   5.645   5.616   8.892  3.5844 -0.0983 -4.0559
  133SAPE  C31614422   5.599   5.692   8.708  0.3939 -0.6657  0.1520
  133SAPE  H16X14423   5.660   5.783   8.731  1.9411 -1.2387 -1.4279
  133SAPE  H16Y14424   5.523   5.746   8.649  2.2425  3.5024  1.1445
  133SAPE  C31714425   5.683   5.612   8.614 -0.3870 -0.2108 -0.1178
  133SAPE  H17X14426   5.615   5.542   8.561 -0.3645 -0.1651 -0.2073
  133SAPE  H17Y14427   5.759   5.547   8.663 -0.4838  0.1003  0.4540
  133SAPE  C31814428   5.753   5.701   8.518  0.0390 -0.3664  0.0477
  133SAPE  H18X14429   5.809   5.641   8.444  0.5139  0.9043 -0.6460
  133SAPE  H18Y14430   5.822   5.770   8.572 -1.3692  0.7863  0.4257
  133SAPE  H18Z14431   5.685   5.773   8.468 -1.5588 -0.4934  1.9027
  134SAPE     N14432   1.532   6.547  10.592  0.3478 -1.0774  0.5922
  134SAPE   HN114433   1.623   6.497  10.583  0.1479 -1.6206  1.4019
  134SAPE   HN214434   1.541   6.602  10.679 -0.4344 -0.7553  0.4760
  134SAPE   HN314435   1.457   6.475  10.588  0.1062 -0.7715 -1.2528
  134SAPE   C1214436   1.509   6.628  10.465  0.6295  0.5750 -0.3680
  134SAPE  H12A14437   1.398   6.636  10.458  0.2998 -1.8691  0.8922
  134SAPE  H12B14438   1.550   6.564  10.385  1.8445 -0.7988  1.2778
  134SAPE   C1114439   1.577   6.768  10.458  0.1977  0.1061 -0.8607
  134SAPE  H11A14440   1.561   6.817  10.359  0.6955  0.7211 -0.6454
  134SAPE  H11B14441   1.686   6.759  10.478  0.2132  0.2347 -0.8814
  134SAPE     P14442   1.583   6.902  10.681  0.3855 -0.3205 -0.3047
  134SAPE   O1314443   1.502   7.000  10.754  0.1548 -0.0582  0.0850
  134SAPE   O1414444   1.623   6.774  10.749  0.2984  0.3803 -0.0096
  134SAPE   O1214445   1.511   6.863  10.549 -0.2469  0.1442  0.2878
  134SAPE   O1114446   1.714   6.976  10.634 -0.3109 -0.1295 -0.6431
  134SAPE    C114447   1.714   7.115  10.626 -0.1382 -0.0670 -0.5716
  134SAPE    HA14448   1.621   7.151  10.577 -0.1821 -0.5490 -0.8521
  134SAPE    HB14449   1.701   7.161  10.726 -1.1186 -0.7857 -0.3458
  134SAPE    C214450   1.831   7.160  10.532 -0.1845  0.0702  0.1015
  134SAPE    HS14451   1.839   7.271  10.528 -0.1080  0.0301 -1.3110
  134SAPE   O2114452   1.819   7.107  10.400 -0.0487 -0.4811  0.2114
  134SAPE   C2114453   1.713   7.154  10.330  0.1599 -0.4688 -0.0538
  134SAPE   O2214454   1.639   7.241  10.372 -0.5545  0.3763  0.0324
  134SAPE   C2214455   1.686   7.067  10.214 -0.6133  0.5231 -0.3060
  134SAPE   H2R14456   1.711   6.960  10.234 -2.2184  0.4060  1.4087
  134SAPE   H2S14457   1.575   7.078  10.210 -0.7303 -0.8201 -3.0918
  134SAPE    C314458   1.974   7.117  10.579  0.2724  0.1522 -0.0488
  134SAPE    HX14459   1.962   7.009  10.601 -0.3405  0.5704  1.8365
  134SAPE    HY14460   2.007   7.165  10.674  5.1656 -0.5830 -1.0904
  134SAPE   O3114461   2.076   7.159  10.488  0.5953  0.4668 -0.0605
  134SAPE   C3114462   2.174   7.073  10.480 -0.2755  0.1873 -0.3543
  134SAPE   O3214463   2.198   6.980  10.558  0.7062  0.4624 -0.1541
  134SAPE   C3214464   2.275   7.120  10.371  0.3960  0.7527  0.3040
  134SAPE   H2X14465   2.363   7.053  10.378  0.5699  1.0275  0.8012
  134SAPE   H2Y14466   2.309   7.220  10.404 -0.4745  1.6934 -1.5418
  134SAPE   C2314467   1.719   7.122  10.074  0.0375 -0.0264  0.1900
  134SAPE   H3R14468   1.682   7.227  10.075  1.7588  0.6704  2.9898
  134SAPE   H3S14469   1.652   7.069  10.003 -2.9092  2.4918  0.8384
  134SAPE   C2414470   1.862   7.109  10.016 -0.6735 -0.6093 -0.4830
  134SAPE   H4R14471   1.923   7.172  10.083 -1.1911 -2.1213  1.4965
  134SAPE   H4S14472   1.862   7.152   9.913  1.0744  1.7239  0.4046
  134SAPE   C2514473   1.920   6.973  10.029 -0.0567  0.1339  0.0276
  134SAPE   H5R14474   1.886   6.917  10.117  0.3143  0.2668  0.2600
  134SAPE   C2614475   2.022   6.924   9.953  0.3289  0.0079 -0.0522
  134SAPE   H6R14476   2.031   6.814   9.958  2.1375  0.0752 -1.0246
  134SAPE   C2714477   2.102   7.003   9.850  0.3418 -0.0272 -1.1201
  134SAPE   H7R14478   2.190   7.030   9.912 -0.5522 -1.0379  0.6407
  134SAPE   H7S14479   2.058   7.101   9.822 -0.1714 -0.5477 -2.1899
  134SAPE   C2814480   2.135   6.929   9.725 -0.6959  0.0736 -0.4899
  134SAPE   H8R14481   2.244   6.917   9.717 -0.6897 -1.6747  1.4585
  134SAPE   C2914482   2.050   6.877   9.636 -0.0323 -1.4665  0.2635
  134SAPE   H9R14483   2.096   6.848   9.541 -0.1751 -3.3348  0.7298
  134SAPE  C21014484   1.898   6.895   9.644 -0.9549  0.5266  0.1537
  134SAPE  H10R14485   1.872   7.001   9.662 -0.1998  0.7695 -0.1494
  134SAPE  H10S14486   1.856   6.835   9.727 -2.3790 -0.0242 -0.9021
  134SAPE  C21114487   1.822   6.833   9.525  0.3792  0.2090  0.2790
  134SAPE  H11R14488   1.869   6.747   9.475 -4.4180 -2.2948 -0.5623
  134SAPE  C21214489   1.714   6.891   9.480  0.7972 -0.3882 -0.4042
  134SAPE  H12R14490   1.657   6.835   9.404  1.5768 -2.0374  0.1792
  134SAPE  C21314491   1.645   7.016   9.530  0.6837 -0.8697 -0.4110
  134SAPE  H13R14492   1.728   7.090   9.533  0.8242 -1.0058 -0.9006
  134SAPE  H13S14493   1.627   6.996   9.638 -0.1605 -1.3320 -0.6227
  134SAPE  C21414494   1.537   7.087   9.452 -0.3914 -0.7338  0.5448
  134SAPE  H14R14495   1.566   7.165   9.380  0.0503 -0.2012  1.2813
  134SAPE  C21514496   1.407   7.080   9.465 -0.8296  0.3181 -0.0043
  134SAPE  H15R14497   1.341   7.136   9.397  0.8152  1.7534 -0.4743
  134SAPE  C21614498   1.337   6.994   9.568  0.0197 -0.6407 -0.0857
  134SAPE  H16R14499   1.409   6.916   9.600 -0.5271  0.0526  3.1373
  134SAPE  H16S14500   1.257   6.934   9.519 -1.3842  0.7667  0.4014
  134SAPE  C21714501   1.297   7.073   9.690  0.2854  0.2116 -0.2455
  134SAPE  H17R14502   1.227   7.154   9.658  2.5099  0.9515 -3.8067
  134SAPE  H17S14503   1.381   7.127   9.738 -1.7403  3.6994 -0.2164
  134SAPE  C21814504   1.241   6.993   9.808  0.3120 -0.1638  0.8159
  134SAPE  H18R14505   1.318   6.913   9.814 -0.0175 -0.4525  1.2634
  134SAPE  H18S14506   1.152   6.928   9.791  1.2918 -1.1909 -0.5289
  134SAPE  C21914507   1.224   7.054   9.946  0.0634 -0.4098  0.3965
  134SAPE  H19R14508   1.133   7.117   9.940  0.7392  0.7011  1.3533
  134SAPE  H19S14509   1.314   7.114   9.969  0.9285 -0.8171 -1.7385
  134SAPE  C22014510   1.206   6.957  10.059 -0.2425  0.6302 -0.0987
  134SAPE  H20R14511   1.130   6.877  10.047  0.8410 -0.4775  0.1230
  134SAPE  H20S14512   1.183   7.007  10.156  2.5829  3.3962 -0.6887
  134SAPE  H20T14513   1.302   6.903  10.078 -0.4750  0.1346 -0.3177
  134SAPE   C3314514   2.224   7.140  10.225 -0.9927  0.3737 -0.3729
  134SAPE   H3X14515   2.143   7.216  10.218  0.2289  1.8387  0.8213
  134SAPE   H3Y14516   2.193   7.042  10.183  0.5578 -0.0732 -0.5055
  134SAPE   C3414517   2.337   7.198  10.133 -1.2361 -0.7482 -0.5958
  134SAPE   H4X14518   2.365   7.128  10.052 -0.5773 -1.1511 -0.0362
  134SAPE   H4Y14519   2.428   7.220  10.194 -0.8657 -3.3784 -0.0832
  134SAPE   C3514520   2.293   7.336  10.069 -0.6164  0.3337 -0.6582
  134SAPE   H5X14521   2.382   7.399  10.049 -0.4567  0.0864 -0.7348
  134SAPE   H5Y14522   2.221   7.378  10.141 -2.9455 -1.2275 -1.9538
  134SAPE   C3614523   2.217   7.323   9.940 -0.3087 -0.5054 -0.2156
  134SAPE   H6X14524   2.124   7.266   9.959 -0.5018  0.1692  0.9983
  134SAPE   H6Y14525   2.280   7.271   9.864 -2.0387  0.1972 -2.2419
  134SAPE   C3714526   2.165   7.461   9.893  0.6480 -0.4999 -1.0586
  134SAPE   H7X14527   2.252   7.524   9.863  0.7963 -0.0019  0.3229
  134SAPE   H7Y14528   2.113   7.510   9.978 -0.0398 -3.2409  0.1772
  134SAPE   C3814529   2.063   7.438   9.786  0.3321 -0.2276 -0.5906
  134SAPE   H8X14530   1.998   7.527   9.775  0.0549 -0.5192 -1.3734
  134SAPE   H8Y14531   1.996   7.352   9.809 -2.3426  1.9637  0.4371
  134SAPE   C3914532   2.126   7.415   9.643 -0.3291  0.0773 -0.8265
  134SAPE   H9X14533   2.199   7.331   9.637 -1.7917 -1.1818 -1.8897
  134SAPE   H9Y14534   2.169   7.515   9.622 -0.1844 -0.0735 -1.2586
  134SAPE  C31014535   2.014   7.390   9.538 -0.4130 -0.7201  0.5615
  134SAPE  H10X14536   1.945   7.475   9.552  0.1396 -0.4840  2.0231
  134SAPE  H10Y14537   1.966   7.294   9.563 -3.0934  0.5647  0.6703
  134SAPE  C31114538   2.074   7.395   9.391 -0.3284 -0.0235  0.0315
  134SAPE  H11X14539   2.142   7.311   9.365 -2.2653 -1.1975 -1.5322
  134SAPE  H11Y14540   2.131   7.489   9.380  1.0043 -0.9927 -2.0023
  134SAPE  C31214541   1.957   7.395   9.291 -0.5469  0.2313 -0.1431
  134SAPE  H12X14542   1.904   7.491   9.309  0.0261  0.4002  0.6700
  134SAPE  H12Y14543   1.891   7.311   9.324  0.2511 -1.1908 -1.9496
  134SAPE  C31314544   1.994   7.379   9.140  0.0961 -0.0413 -0.3077
  134SAPE  H13X14545   2.032   7.276   9.128  0.2478 -0.0516  0.2477
  134SAPE  H13Y14546   2.065   7.458   9.108 -0.6897  0.1960 -1.5456
  134SAPE  C31414547   1.860   7.385   9.064 -0.1140  1.0136  0.3792
  134SAPE  H14X14548   1.812   7.485   9.065 -0.5433  0.8062  0.5176
  134SAPE  H14Y14549   1.776   7.326   9.107  1.4208 -0.8124  0.9978
  134SAPE  C31514550   1.873   7.354   8.913  0.1275 -0.2128  0.0367
  134SAPE  H15X14551   1.767   7.343   8.883  0.2416 -0.0177 -0.4351
  134SAPE  H15Y14552   1.931   7.260   8.901  3.0257  1.4496  0.0928
  134SAPE  C31614553   1.930   7.466   8.834 -0.0608 -0.5077 -0.2065
  134SAPE  H16X14554   2.014   7.510   8.893 -1.5703  2.0810  0.1710
  134SAPE  H16Y14555   1.865   7.556   8.831 -1.0945 -1.0606  2.5519
  134SAPE  C31714556   1.988   7.432   8.692 -0.0386  0.5991 -0.3198
  134SAPE  H17X14557   2.082   7.378   8.718  0.1186  2.2488  2.9355
  134SAPE  H17Y14558   2.024   7.526   8.645 -0.2499  1.3457  0.9814
  134SAPE  C31814559   1.881   7.357   8.604  0.0968  0.1623 -0.5628
  134SAPE  H18X14560   1.799   7.429   8.582  1.1409  1.6038  0.0621
  134SAPE  H18Y14561   1.842   7.264   8.650  0.7188 -0.0861 -0.5395
  134SAPE  H18Z14562   1.927   7.338   8.505 -1.2695  3.2287 -1.9446
  135SAPE     N14563   2.865   5.438  10.506 -0.0886 -0.6317 -0.0110
  135SAPE   HN114564   2.916   5.373  10.443  3.1456 -0.1739  1.9309
  135SAPE   HN214565   2.808   5.506  10.451 -0.3219 -2.2050 -1.8402
  135SAPE   HN314566   2.925   5.474  10.582 -1.4149  0.0087  0.7642
  135SAPE   C1214567   2.762   5.353  10.572 -0.1780 -0.2086 -0.5856
  135SAPE  H12A14568   2.683   5.322  10.500 -2.9853  3.1730  0.7222
  135SAPE  H12B14569   2.707   5.416  10.646 -0.3373 -0.9036 -0.1084
  135SAPE   C1114570   2.817   5.225  10.634  0.5080 -0.2666 -0.0842
  135SAPE  H11A14571   2.726   5.170  10.667 -1.7913  3.3979  0.2340
  135SAPE  H11B14572   2.884   5.256  10.717  0.0959 -0.0150  0.1613
  135SAPE     P14573   2.958   5.020  10.570  0.0576 -0.1406 -0.2135
  135SAPE   O1314574   3.103   5.012  10.535 -0.0340 -0.5988 -0.3973
  135SAPE   O1414575   2.921   4.980  10.711  0.0219 -0.2398  0.3234
  135SAPE   O1214576   2.902   5.163  10.531  0.2752  0.5616  0.4870
  135SAPE   O1114577   2.880   4.927  10.474  0.1313 -0.1218  0.5658
  135SAPE    C114578   2.746   4.939  10.418 -0.1552 -0.3337  0.1595
  135SAPE    HA14579   2.707   4.836  10.401  1.0026 -1.1834  2.1374
  135SAPE    HB14580   2.671   4.987  10.484 -0.3783 -0.9108  0.3328
  135SAPE    C214581   2.767   4.999  10.273 -0.8754  0.2454  0.1766
  135SAPE    HS14582   2.781   5.108  10.289 -1.0109  0.2357  0.3726
  135SAPE   O2114583   2.652   4.975  10.190 -0.5050  0.1359 -0.2311
  135SAPE   C2114584   2.551   5.057  10.217 -0.0036  0.0881 -0.9280
  135SAPE   O2214585   2.553   5.155  10.290 -0.0577  0.4119  0.1157
  135SAPE   C2214586   2.421   5.019  10.145 -0.7139  0.3946 -0.8145
  135SAPE   H2R14587   2.439   4.924  10.090  4.2632  0.8978 -0.5024
  135SAPE   H2S14588   2.343   5.005  10.223 -0.8951 -0.9550 -1.2096
  135SAPE    C314589   2.903   4.938  10.210  0.1746  0.0226 -0.2219
  135SAPE    HX14590   2.885   4.829  10.196  1.0052 -0.4357  1.8677
  135SAPE    HY14591   2.986   4.941  10.284 -1.6499  1.2889  1.8930
  135SAPE   O3114592   2.932   4.998  10.082  0.2795  0.6965 -0.1601
  135SAPE   C3114593   2.998   4.925   9.994  1.1843  0.8322 -0.4004
  135SAPE   O3214594   3.038   4.814  10.005 -0.6072 -0.5035  0.1730
  135SAPE   C3214595   3.008   5.014   9.880 -0.8650 -0.1713  0.5206
  135SAPE   H2X14596   3.063   5.107   9.906  0.1641 -0.5636 -0.1708
  135SAPE   H2Y14597   2.905   5.030   9.843 -0.2364 -1.8886 -2.2528
  135SAPE   C2314598   2.374   5.126  10.047  0.4115 -0.1512 -0.1649
  135SAPE   H3R14599   2.459   5.155   9.981  0.7448  0.2135  0.4095
  135SAPE   H3S14600   2.343   5.218  10.102 -0.0109 -0.7491  0.6090
  135SAPE   C2414601   2.261   5.080   9.951 -0.9014 -0.7157  0.3387
  135SAPE   H4R14602   2.285   4.977   9.915  1.8086 -0.2528  0.5932
  135SAPE   H4S14603   2.266   5.144   9.860 -0.7936 -0.3345  0.6113
  135SAPE   C2514604   2.128   5.088  10.018 -0.1760 -0.1875  0.2847
  135SAPE   H5R14605   2.121   5.160  10.101 -0.0439 -1.6516  1.6056
  135SAPE   C2614606   2.007   5.048   9.973 -0.1084  0.0356  0.2153
  135SAPE   H6R14607   1.916   5.054  10.035  1.2083 -0.1195  2.2510
  135SAPE   C2714608   1.993   4.972   9.843  0.2625  0.2371  0.2678
  135SAPE   H7R14609   2.089   4.956   9.790  0.1004 -0.4415  0.1721
  135SAPE   H7S14610   1.937   5.034   9.769  3.0677  3.4286  0.5772
  135SAPE   C2814611   1.933   4.838   9.868  0.8507  0.0967 -0.1796
  135SAPE   H8R14612   1.867   4.831   9.956  1.6968 -0.2882  0.4345
  135SAPE   C2914613   1.938   4.734   9.786 -0.3194  0.0564  0.0589
  135SAPE   H9R14614   1.896   4.636   9.815  0.3520 -0.7474 -1.5552
  135SAPE  C21014615   2.017   4.725   9.660 -0.5820 -1.2408 -0.4265
  135SAPE  H10R14616   2.116   4.676   9.673 -1.5917 -3.5633 -1.1143
  135SAPE  H10S14617   2.038   4.830   9.630 -1.1073 -0.5010  1.6160
  135SAPE  C21114618   1.945   4.662   9.545  0.3420  0.5188 -0.3669
  135SAPE  H11R14619   1.949   4.553   9.541  0.4194  0.4765  0.6378
  135SAPE  C21214620   1.888   4.716   9.430 -0.2607  0.2467  0.6395
  135SAPE  H12R14621   1.850   4.653   9.349 -0.4748  1.3544 -0.1500
  135SAPE  C21314622   1.872   4.863   9.400  0.1398 -0.8875  0.4473
  135SAPE  H13R14623   1.899   4.922   9.490  0.1320 -1.5004  0.8622
  135SAPE  H13S14624   1.764   4.878   9.382  0.5165  1.3173 -0.2039
  135SAPE  C21414625   1.954   4.901   9.278  0.4232  0.0709 -0.0912
  135SAPE  H14R14626   2.061   4.909   9.302  1.3874  0.9017 -3.8992
  135SAPE  C21514627   1.911   4.914   9.154 -0.0448  0.0430  0.1929
  135SAPE  H15R14628   1.972   4.930   9.064  0.1788 -0.8452  0.1714
  135SAPE  C21614629   1.768   4.892   9.099 -0.8467 -0.1393 -0.3889
  135SAPE  H16R14630   1.729   4.992   9.070 -2.1362  0.0877  1.8794
  135SAPE  H16S14631   1.697   4.860   9.179  0.9757 -0.7563  1.0718
  135SAPE  C21714632   1.757   4.785   8.982 -0.6716 -0.1336 -0.5419
  135SAPE  H17R14633   1.842   4.796   8.911  0.0267 -3.6533 -0.4640
  135SAPE  H17S14634   1.657   4.790   8.933 -0.4821  0.5182 -0.8688
  135SAPE  C21814635   1.771   4.635   9.031 -0.2528 -0.6282 -0.0232
  135SAPE  H18R14636   1.724   4.623   9.130  0.7670 -1.5502  0.3725
  135SAPE  H18S14637   1.879   4.608   9.041 -0.4490 -2.2320 -1.7539
  135SAPE  C21914638   1.705   4.538   8.936 -0.4369  0.1761 -0.1875
  135SAPE  H19R14639   1.738   4.574   8.837  1.0345 -0.3715  0.0786
  135SAPE  H19S14640   1.595   4.545   8.949 -0.6297  1.7642 -2.2533
  135SAPE  C22014641   1.743   4.391   8.952  0.9604  0.0744 -0.7201
  135SAPE  H20R14642   1.666   4.330   8.900 -0.1346  0.8085  0.0075
  135SAPE  H20S14643   1.753   4.363   9.059 -0.2942  3.3934  0.3951
  135SAPE  H20T14644   1.847   4.391   8.912  0.8733  0.2444 -0.9485
  135SAPE   C3314645   3.079   4.956   9.757  0.1040 -0.4062 -0.4354
  135SAPE   H3X14646   3.181   4.921   9.782 -0.0383 -1.3053 -1.0734
  135SAPE   H3Y14647   3.102   5.040   9.689  1.6563 -1.1039 -0.8198
  135SAPE   C3414648   3.002   4.860   9.682 -0.4013 -0.1436 -0.0189
  135SAPE   H4X14649   2.898   4.896   9.669 -0.8185 -1.5568 -0.9085
  135SAPE   H4Y14650   2.988   4.760   9.730  1.4021 -0.5522 -0.2911
  135SAPE   C3514651   3.062   4.829   9.542 -0.0829  0.1582  0.0494
  135SAPE   H5X14652   3.147   4.759   9.554 -1.7262 -1.7007  1.4367
  135SAPE   H5Y14653   3.096   4.919   9.487  1.4905  0.8381  1.9961
  135SAPE   C3614654   2.975   4.757   9.437 -0.5658 -0.3811 -0.1131
  135SAPE   H6X14655   2.931   4.670   9.491 -4.0447  0.4575 -1.3110
  135SAPE   H6Y14656   3.047   4.734   9.356 -0.7199 -0.4826 -0.2220
  135SAPE   C3714657   2.861   4.842   9.387 -0.3439 -0.6889 -0.4025
  135SAPE   H7X14658   2.895   4.928   9.326 -0.2913 -0.5055 -0.1168
  135SAPE   H7Y14659   2.809   4.902   9.464 -0.3923  0.1746 -1.0972
  135SAPE   C3814660   2.754   4.777   9.298 -0.4075  0.6753  0.7484
  135SAPE   H8X14661   2.687   4.856   9.258 -1.3711 -0.8754 -0.8374
  135SAPE   H8Y14662   2.691   4.707   9.356  0.1256 -1.5618 -1.2103
  135SAPE   C3914663   2.815   4.689   9.181  0.6715 -0.0368 -0.6669
  135SAPE   H9X14664   2.725   4.644   9.134  1.0986 -0.8319 -0.7340
  135SAPE   H9Y14665   2.863   4.600   9.227  1.6211  2.0460  2.7092
  135SAPE  C31014666   2.909   4.750   9.073  0.7220  0.3359 -1.1199
  135SAPE  H10X14667   2.998   4.794   9.122 -0.3817  1.3849  0.0228
  135SAPE  H10Y14668   2.846   4.827   9.022  0.2385  0.0297 -0.9946
  135SAPE  C31114669   2.943   4.649   8.960 -0.3272 -0.4154  0.1568
  135SAPE  H11X14670   2.857   4.594   8.917 -1.7842  3.3261 -2.1654
  135SAPE  H11Y14671   3.008   4.572   9.008 -1.2845  1.5807  5.3167
  135SAPE  C31214672   3.015   4.722   8.841  0.5022 -0.1384  0.8521
  135SAPE  H12X14673   3.118   4.750   8.871  0.0201  0.2841  2.2049
  135SAPE  H12Y14674   2.967   4.821   8.827  1.6135  0.5506  1.8047
  135SAPE  C31314675   3.022   4.644   8.705 -0.3388  0.3334  0.6490
  135SAPE  H13X14676   2.931   4.641   8.641 -0.4258  0.9172  0.7436
  135SAPE  H13Y14677   3.055   4.541   8.729 -0.0041 -0.1558 -1.6589
  135SAPE  C31414678   3.126   4.710   8.606 -0.5767 -0.6665 -0.6574
  135SAPE  H14X14679   3.223   4.737   8.655  0.5495 -2.4089 -1.8035
  135SAPE  H14Y14680   3.082   4.811   8.601  2.6792  1.0016  0.8928
  135SAPE  C31514681   3.149   4.642   8.465 -0.1618 -0.2167 -0.3121
  135SAPE  H15X14682   3.217   4.704   8.404 -0.8280  2.4264  1.4523
  135SAPE  H15Y14683   3.053   4.616   8.415  0.3338 -1.3910 -0.6849
  135SAPE  C31614684   3.229   4.511   8.481  0.3528 -0.3624  0.5890
  135SAPE  H16X14685   3.164   4.428   8.515 -0.4817 -0.0170 -0.1194
  135SAPE  H16Y14686   3.299   4.528   8.565 -1.3832 -0.4594  2.1311
  135SAPE  C31714687   3.294   4.462   8.347  0.6937 -0.2545  0.5587
  135SAPE  H17X14688   3.366   4.379   8.362  1.3561  0.5217  1.8810
  135SAPE  H17Y14689   3.355   4.543   8.302 -0.9010  0.1335 -1.0256
  135SAPE  C31814690   3.196   4.437   8.232  0.9692  0.3104 -0.8080
  135SAPE  H18X14691   3.137   4.525   8.199  2.0332  1.0030 -0.9029
  135SAPE  H18Y14692   3.118   4.359   8.244 -0.4350  1.6535 -0.8708
  135SAPE  H18Z14693   3.256   4.414   8.142  1.4954 -1.3773 -0.0584
  136SAPE     N14694   4.815   3.124  10.888  0.3477  0.1353 -0.9550
  136SAPE   HN114695   4.784   3.061  10.964  1.1542  0.3627 -0.4188
  136SAPE   HN214696   4.911   3.097  10.857 -0.8166 -2.6560 -2.4981
  136SAPE   HN314697   4.821   3.220  10.930  0.4604 -0.4826  0.5060
  136SAPE   C1214698   4.717   3.124  10.779 -0.2933 -0.5419  0.3905
  136SAPE  H12A14699   4.709   3.021  10.740 -0.2149 -0.7406  0.8924
  136SAPE  H12B14700   4.773   3.180  10.700 -3.0826 -0.5394 -1.7444
  136SAPE   C1114701   4.581   3.187  10.814 -0.1249  0.5074  0.0535
  136SAPE  H11A14702   4.510   3.169  10.730 -0.1062 -1.1656  0.3719
  136SAPE  H11B14703   4.587   3.298  10.823 -0.5929  0.5476 -0.1079
  136SAPE     P14704   4.384   3.093  10.975  0.0584  0.3805  0.1866
  136SAPE   O1314705   4.384   3.014  11.101 -0.6930  0.1974  0.7282
  136SAPE   O1414706   4.302   3.214  10.976  0.6248 -0.4811 -0.0319
  136SAPE   O1214707   4.536   3.132  10.933 -0.6939 -0.0664 -0.1023
  136SAPE   O1114708   4.340   2.995  10.863  0.2042  0.4730 -0.2386
  136SAPE    C114709   4.416   2.873  10.835 -0.2530  0.1374  0.7824
  136SAPE    HA14710   4.525   2.893  10.823 -0.7578  2.0156 -1.5412
  136SAPE    HB14711   4.403   2.792  10.910  0.5388  0.3836  1.1963
  136SAPE    C214712   4.377   2.818  10.698 -0.0148 -0.0029  0.1121
  136SAPE    HS14713   4.449   2.739  10.667 -0.1808  0.8184 -2.6239
  136SAPE   O2114714   4.376   2.923  10.606 -0.2287  0.3723 -0.0949
  136SAPE   C2114715   4.489   2.947  10.544 -0.4200  0.3113 -0.2806
  136SAPE   O2214716   4.593   2.884  10.541  0.5141 -0.3455 -0.4154
  136SAPE   C2214717   4.463   3.081  10.471  0.4504 -0.0164 -0.1002
  136SAPE   H2R14718   4.412   3.052  10.377  1.7812 -3.0617 -0.0285
  136SAPE   H2S14719   4.400   3.141  10.540  0.8698  1.1658 -0.7283
  136SAPE    C314720   4.234   2.761  10.695 -0.1941  0.2047 -1.1221
  136SAPE    HX14721   4.179   2.844  10.744 -1.3329 -1.4751  0.5601
  136SAPE    HY14722   4.238   2.671  10.760  0.4204  1.5860  0.8295
  136SAPE   O3114723   4.181   2.732  10.566  0.0101 -0.2029 -0.0668
  136SAPE   C3114724   4.044   2.725  10.560 -0.4250 -0.3184  0.4062
  136SAPE   O3214725   3.974   2.710  10.659 -0.4670 -1.2061  0.1468
  136SAPE   C3214726   3.993   2.742  10.423 -0.0021  1.4400 -0.1265
  136SAPE   H2X14727   3.887   2.774  10.433 -0.2063  0.7591 -0.0626
  136SAPE   H2Y14728   4.006   2.653  10.358  0.5069  1.9859 -0.7917
  136SAPE   C2314729   4.589   3.153  10.427 -0.0546 -0.2845 -0.5626
  136SAPE   H3R14730   4.684   3.117  10.473 -0.8424  1.5359  2.8851
  136SAPE   H3S14731   4.566   3.257  10.461  0.8179 -0.0614 -0.6123
  136SAPE   C2414732   4.612   3.155  10.272  0.5016 -0.0834 -0.1675
  136SAPE   H4R14733   4.624   3.052  10.233 -1.5833 -0.3905 -0.1094
  136SAPE   H4S14734   4.707   3.210  10.253  1.1887 -1.7453 -1.8712
  136SAPE   C2514735   4.497   3.226  10.199 -0.2879  0.5758  0.1335
  136SAPE   H5R14736   4.428   3.270  10.273  1.4538  1.2974  1.3849
  136SAPE   C2614737   4.476   3.218  10.062 -0.2650  0.1165 -0.4119
  136SAPE   H6R14738   4.386   3.269  10.025 -1.6030 -1.2851  0.7370
  136SAPE   C2714739   4.575   3.155   9.968  0.3465  0.3282  0.1831
  136SAPE   H7R14740   4.657   3.118  10.032 -0.5861  0.2876  1.4018
  136SAPE   H7S14741   4.614   3.240   9.908  0.5430  0.2759  0.2359
  136SAPE   C2814742   4.512   3.059   9.878 -0.5959 -0.1537  0.5376
  136SAPE   H8R14743   4.455   2.984   9.934 -0.7638 -1.8569 -1.8043
  136SAPE   C2914744   4.512   3.046   9.740 -0.1019  0.4837 -0.1182
  136SAPE   H9R14745   4.450   2.964   9.700 -1.7675  2.1520 -1.1366
  136SAPE  C21014746   4.581   3.129   9.637 -1.3005 -0.6498  0.0744
  136SAPE  H10R14747   4.636   3.218   9.672 -1.2061 -0.7983  0.3082
  136SAPE  H10S14748   4.507   3.176   9.569  0.2847  1.9124  0.0158
  136SAPE  C21114749   4.680   3.039   9.571 -0.4551 -0.2228  0.1281
  136SAPE  H11R14750   4.772   3.012   9.625  0.1763  0.9391 -0.3398
  136SAPE  C21214751   4.667   2.993   9.450 -0.0878 -0.2127  0.2730
  136SAPE  H12R14752   4.748   2.946   9.392 -0.2661  3.2986 -3.2000
  136SAPE  C21314753   4.554   3.042   9.363  0.1193 -0.2373  0.4537
  136SAPE  H13R14754   4.580   3.149   9.347  2.2210 -0.8123 -0.2377
  136SAPE  H13S14755   4.451   3.036   9.404  0.7948 -2.2077  2.0106
  136SAPE  C21414756   4.541   2.971   9.229  0.4226  0.0137  0.3864
  136SAPE  H14R14757   4.551   2.861   9.229  0.0206 -0.0264 -0.0236
  136SAPE  C21514758   4.524   3.029   9.109 -0.4978  0.0130  0.8324
  136SAPE  H15R14759   4.529   2.970   9.016  0.0201 -3.4510  2.8826
  136SAPE  C21614760   4.536   3.178   9.089 -0.3548  0.4082  0.4615
  136SAPE  H16R14761   4.610   3.220   9.160  1.1577 -2.0981  0.5101
  136SAPE  H16S14762   4.437   3.225   9.107 -1.1347 -0.8640 -0.3982
  136SAPE  C21714763   4.589   3.214   8.953 -0.1869  0.1630  0.5726
  136SAPE  H17R14764   4.674   3.147   8.928 -0.2765 -1.0027  3.1016
  136SAPE  H17S14765   4.625   3.319   8.958 -2.5995  1.1120 -0.5234
  136SAPE  C21814766   4.483   3.214   8.845  0.3745  0.1376  0.1842
  136SAPE  H18R14767   4.412   3.295   8.873 -1.7849  0.2141 -4.6133
  136SAPE  H18S14768   4.414   3.126   8.840 -2.8047  2.5485 -2.8821
  136SAPE  C21914769   4.534   3.235   8.697 -0.6169 -0.6752  0.7951
  136SAPE  H19R14770   4.599   3.324   8.694  0.3833 -1.3837  0.9596
  136SAPE  H19S14771   4.443   3.260   8.638 -1.4094 -0.5717  2.0290
  136SAPE  C22014772   4.598   3.108   8.646  0.5490 -0.3770 -0.5300
  136SAPE  H20R14773   4.664   3.069   8.726 -0.7675  0.4037  0.9890
  136SAPE  H20S14774   4.658   3.119   8.553  2.1509  0.0218  0.5020
  136SAPE  H20T14775   4.516   3.033   8.638  0.7754 -0.7295  0.3013
  136SAPE   C3314776   4.062   2.856  10.345 -0.5566 -0.1074  0.0162
  136SAPE   H3X14777   4.165   2.828  10.315 -0.4792  0.4786 -0.2867
  136SAPE   H3Y14778   4.051   2.950  10.403 -3.1141 -1.1242  1.3351
  136SAPE   C3414779   3.991   2.880  10.213 -0.0291  0.0976 -0.7181
  136SAPE   H4X14780   4.053   2.953  10.156 -1.4803 -0.2279 -2.8479
  136SAPE   H4Y14781   3.891   2.928  10.222 -0.9295 -1.9700  1.1791
  136SAPE   C3514782   3.983   2.748  10.127  0.1527  0.6325  0.4568
  136SAPE   H5X14783   3.904   2.678  10.162  0.0955 -0.0728 -1.0056
  136SAPE   H5Y14784   4.085   2.707  10.139  0.0557  0.0061 -0.6761
  136SAPE   C3614785   3.963   2.778   9.976  0.1931  0.1370  0.1329
  136SAPE   H6X14786   4.062   2.819   9.946  1.0442 -2.4198 -0.8554
  136SAPE   H6Y14787   3.880   2.851   9.970 -1.9985 -2.3037 -1.5768
  136SAPE   C3714788   3.902   2.667   9.899  0.4657  0.2037 -0.5717
  136SAPE   H7X14789   3.811   2.636   9.954 -1.2785  1.2282 -2.7009
  136SAPE   H7Y14790   3.968   2.579   9.918  0.4383  0.6459  1.8960
  136SAPE   C3814791   3.869   2.696   9.751  0.2131  0.4505  1.0563
  136SAPE   H8X14792   3.793   2.776   9.740  0.9454  1.1276  0.8258
  136SAPE   H8Y14793   3.824   2.604   9.707  1.3732  0.5938 -0.5395
  136SAPE   C3914794   3.989   2.729   9.659  0.6750 -0.4819 -0.5792
  136SAPE   H9X14795   4.061   2.646   9.675 -1.1709 -1.6154  2.8095
  136SAPE   H9Y14796   4.041   2.821   9.692 -0.9035  0.6361 -1.1187
  136SAPE  C31014797   3.946   2.747   9.519 -0.1993  0.1588  1.0498
  136SAPE  H10X14798   4.023   2.770   9.442 -0.1250 -0.5550  0.9036
  136SAPE  H10Y14799   3.875   2.833   9.514  1.1310  1.2741  0.4570
  136SAPE  C31114800   3.871   2.622   9.463  0.1239 -0.8342 -0.3860
  136SAPE  H11X14801   3.771   2.619   9.512  0.9953 -0.0286  1.5675
  136SAPE  H11Y14802   3.932   2.530   9.481 -1.5332 -1.9414 -0.1984
  136SAPE  C31214803   3.844   2.626   9.319 -0.0405  0.9633  0.5678
  136SAPE  H12X14804   3.937   2.654   9.265 -0.0897 -2.5626 -1.6631
  136SAPE  H12Y14805   3.769   2.707   9.302 -0.5870  0.5205  0.8417
  136SAPE  C31314806   3.780   2.501   9.246 -1.0575 -0.5065  0.0850
  136SAPE  H13X14807   3.717   2.448   9.321  0.5877 -2.4232  0.2034
  136SAPE  H13Y14808   3.874   2.452   9.211 -0.3698  1.1335 -0.4479
  136SAPE  C31414809   3.712   2.542   9.119 -0.3096  0.1074 -0.1658
  136SAPE  H14X14810   3.633   2.618   9.138  0.8223  1.3892 -0.4233
  136SAPE  H14Y14811   3.648   2.460   9.079 -0.0809 -0.7275  1.1437
  136SAPE  C31514812   3.800   2.606   9.006 -0.5850  0.6668 -0.5432
  136SAPE  H15X14813   3.874   2.531   8.971  1.9165  1.4541  2.5973
  136SAPE  H15Y14814   3.859   2.693   9.043  0.6267 -0.6474  0.7111
  136SAPE  C31614815   3.719   2.666   8.891  0.3018  0.2045 -0.3407
  136SAPE  H16X14816   3.638   2.728   8.935 -0.2980 -0.7980 -0.0180
  136SAPE  H16Y14817   3.666   2.591   8.830  0.3781 -2.5593  2.7158
  136SAPE  C31714818   3.813   2.733   8.790  0.6185 -0.4976 -0.0260
  136SAPE  H17X14819   3.892   2.659   8.764 -0.1466 -0.8747 -1.3503
  136SAPE  H17Y14820   3.863   2.821   8.835 -1.5009  0.5823  0.3586
  136SAPE  C31814821   3.739   2.773   8.662  0.6465 -0.7130  0.5497
  136SAPE  H18X14822   3.820   2.808   8.594 -0.6537 -2.0938 -1.8462
  136SAPE  H18Y14823   3.674   2.863   8.667  1.2696  0.0142 -2.6053
  136SAPE  H18Z14824   3.670   2.696   8.622 -0.9021  0.9698 -0.1566
  137SAPE     N14825   2.002   5.351  10.563  0.4022  0.2149 -0.1536
  137SAPE   HN114826   2.052   5.307  10.484 -1.2467 -1.9353 -0.0800
  137SAPE   HN214827   1.899   5.356  10.557 -0.0347 -1.2814  3.4382
  137SAPE   HN314828   2.034   5.450  10.577  1.2021 -0.0432 -0.0814
  137SAPE   C1214829   2.024   5.267  10.690 -0.7997 -0.6312 -0.6006
  137SAPE  H12A14830   1.948   5.297  10.766 -0.7673 -1.3348 -0.2895
  137SAPE  H12B14831   2.126   5.281  10.731 -1.7771 -1.0698  2.1991
  137SAPE   C1114832   2.008   5.113  10.654 -0.0414  0.7449 -1.0469
  137SAPE  H11A14833   2.059   5.069  10.743  0.5446 -0.2155 -1.8393
  137SAPE  H11B14834   2.066   5.079  10.566 -1.6352 -1.9330 -1.1733
  137SAPE     P14835   1.835   4.929  10.694  0.5532  0.1887  0.1020
  137SAPE   O1314836   1.956   4.854  10.730 -0.0029 -0.0407 -0.3042
  137SAPE   O1414837   1.728   4.929  10.797  0.2390  0.1537  0.4050
  137SAPE   O1214838   1.871   5.072  10.644 -0.3232  0.5787  0.4015
  137SAPE   O1114839   1.774   4.862  10.561 -0.6614  0.1483  0.2850
  137SAPE    C114840   1.862   4.791  10.460 -0.5834 -0.3738  0.2473
  137SAPE    HA14841   1.949   4.736  10.501 -0.1272 -0.3647 -0.6600
  137SAPE    HB14842   1.803   4.707  10.418 -1.2220  1.2331 -2.2887
  137SAPE    C214843   1.926   4.881  10.350  0.1346 -0.7285  0.0715
  137SAPE    HS14844   1.943   4.979  10.398 -0.2489 -1.0656  0.9273
  137SAPE   O2114845   1.834   4.900  10.241  0.8602 -0.0348  0.0855
  137SAPE   C2114846   1.747   5.001  10.249 -0.1642  0.1403 -0.0874
  137SAPE   O2214847   1.739   5.086  10.340 -0.4446  0.2606  0.1068
  137SAPE   C2214848   1.649   4.980  10.125  0.2971 -0.0429 -0.6592
  137SAPE   H2R14849   1.712   4.946  10.040  1.1783 -0.0995  0.0027
  137SAPE   H2S14850   1.564   4.914  10.155 -1.1939  1.6010 -1.1295
  137SAPE    C314851   2.061   4.819  10.296  0.4961  0.1017  0.2894
  137SAPE    HX14852   2.135   4.811  10.378  0.5710  0.1971  0.2318
  137SAPE    HY14853   2.111   4.885  10.222  1.6051  0.2552  1.1499
  137SAPE   O3114854   2.034   4.690  10.233 -0.1148  0.5283 -0.0759
  137SAPE   C3114855   2.150   4.648  10.183  0.0173 -0.5039 -0.0890
  137SAPE   O3214856   2.259   4.701  10.203  0.6661 -0.3077  0.2647
  137SAPE   C3214857   2.129   4.516  10.106 -0.0094 -0.8891 -0.2023
  137SAPE   H2X14858   2.030   4.523  10.056 -0.1155 -0.6741  0.0354
  137SAPE   H2Y14859   2.132   4.435  10.182  0.5697  2.0121  3.1545
  137SAPE   C2314860   1.583   5.110  10.080  0.1061 -0.7552 -0.8364
  137SAPE   H3R14861   1.662   5.187  10.066  0.5326 -1.3707 -1.8795
  137SAPE   H3S14862   1.519   5.141  10.167  0.6323 -0.2922 -0.6058
  137SAPE   C2414863   1.488   5.098   9.955 -0.5046 -0.7430 -0.1290
  137SAPE   H4R14864   1.433   5.193   9.941 -0.9305 -0.8141  0.9149
  137SAPE   H4S14865   1.409   5.022   9.976 -2.0290  1.0865  1.2287
  137SAPE   C2514866   1.567   5.079   9.822 -0.2177 -0.7779 -0.2145
  137SAPE   H5R14867   1.601   5.173   9.777 -2.0297  0.3942  0.7303
  137SAPE   C2614868   1.584   4.958   9.762  0.3719 -0.3532  0.1823
  137SAPE   H6R14869   1.635   4.950   9.665  1.5067 -2.3307  0.8748
  137SAPE   C2714870   1.521   4.829   9.805 -0.1415  0.6433 -0.8251
  137SAPE   H7R14871   1.410   4.835   9.796 -0.1933  0.4557 -0.3669
  137SAPE   H7S14872   1.539   4.826   9.914  0.6616  1.4102 -0.9259
  137SAPE   C2814873   1.558   4.689   9.760 -0.1675  0.6657  0.0182
  137SAPE   H8R14874   1.591   4.628   9.845 -0.2583  2.1313  1.1518
  137SAPE   C2914875   1.557   4.639   9.631 -0.2462 -0.5877 -0.2478
  137SAPE   H9R14876   1.589   4.534   9.618  0.5965 -0.4097  0.3193
  137SAPE  C21014877   1.512   4.710   9.504 -0.1987 -0.3975 -0.7450
  137SAPE  H10R14878   1.598   4.696   9.435  0.9921  0.0907  0.5867
  137SAPE  H10S14879   1.523   4.817   9.530  2.4809 -0.3513 -1.6878
  137SAPE  C21114880   1.386   4.680   9.442 -0.3736  0.5670 -0.4465
  137SAPE  H11R14881   1.312   4.685   9.524 -0.5818 -1.6761 -0.4147
  137SAPE  C21214882   1.338   4.664   9.317  0.3314  0.6425 -0.4027
  137SAPE  H12R14883   1.229   4.656   9.308  0.2028 -0.0923  1.4099
  137SAPE  C21314884   1.428   4.663   9.196  0.0934 -0.4334  0.3209
  137SAPE  H13R14885   1.503   4.581   9.204  1.7578  1.0521  0.4964
  137SAPE  H13S14886   1.482   4.759   9.213 -1.5458  0.6930 -0.5130
  137SAPE  C21414887   1.362   4.651   9.058  0.1330  0.8968 -0.8694
  137SAPE  H14R14888   1.340   4.548   9.026  1.0724  0.0847  0.9231
  137SAPE  C21514889   1.318   4.756   8.990  0.1521  0.0610 -0.0162
  137SAPE  H15R14890   1.271   4.745   8.891 -1.8698  2.6760  0.5609
  137SAPE  C21614891   1.332   4.897   9.024 -0.3781  0.5795  0.1397
  137SAPE  H16R14892   1.426   4.938   8.981  0.1485  0.8149  1.4414
  137SAPE  H16S14893   1.322   4.922   9.132  0.5260  1.3200  0.0666
  137SAPE  C21714894   1.211   4.980   8.964  0.6118  0.4458  0.2257
  137SAPE  H17R14895   1.205   5.077   9.020 -0.6642  0.7978 -0.4599
  137SAPE  H17S14896   1.117   4.931   8.998  1.3076 -1.1240 -0.0431
  137SAPE  C21814897   1.208   4.990   8.816  0.0300  0.1549 -0.0648
  137SAPE  H18R14898   1.175   4.898   8.763  1.7791 -0.8327  0.4570
  137SAPE  H18S14899   1.311   5.008   8.777 -0.4742 -0.6227 -1.8730
  137SAPE  C21914900   1.123   5.110   8.773 -0.2681 -0.1576  0.4925
  137SAPE  H19R14901   1.162   5.208   8.805 -1.0412  0.2832  0.0994
  137SAPE  H19S14902   1.017   5.109   8.807  0.1126 -0.5055  1.7468
  137SAPE  C22014903   1.128   5.108   8.623 -0.4423  0.0783 -0.1666
  137SAPE  H20R14904   1.229   5.097   8.578 -0.7312 -0.4871 -0.7023
  137SAPE  H20S14905   1.080   5.205   8.595 -0.5489 -0.6940 -2.9652
  137SAPE  H20T14906   1.060   5.031   8.580 -0.3129  0.1310 -0.4706
  137SAPE   C3314907   2.229   4.507   9.993  0.2500  0.1968 -0.2556
  137SAPE   H3X14908   2.333   4.523  10.031  0.0550  1.8371 -0.3415
  137SAPE   H3Y14909   2.216   4.590   9.921  1.6634  1.3466  0.7531
  137SAPE   C3414910   2.220   4.367   9.921  0.2449  0.3538 -0.1213
  137SAPE   H4X14911   2.121   4.364   9.869  0.2432  4.0148 -0.5686
  137SAPE   H4Y14912   2.217   4.294  10.005 -1.4904  0.6103  0.0782
  137SAPE   C3514913   2.340   4.336   9.821  1.3378  0.3871 -1.0354
  137SAPE   H5X14914   2.329   4.232   9.782  1.4833  0.0294 -0.1472
  137SAPE   H5Y14915   2.437   4.338   9.874  1.6002  1.4475 -1.5392
  137SAPE   C3614916   2.343   4.418   9.694 -0.4689  0.0224  0.5260
  137SAPE   H6X14917   2.394   4.515   9.713 -1.3841  0.4673  0.7700
  137SAPE   H6Y14918   2.241   4.438   9.655 -0.4818  3.1478  1.8744
  137SAPE   C3714919   2.422   4.335   9.585 -0.0584  0.1545  0.0070
  137SAPE   H7X14920   2.361   4.244   9.565  3.0757 -1.6929 -1.9297
  137SAPE   H7Y14921   2.520   4.296   9.619  0.2444 -1.1495 -2.1874
  137SAPE   C3814922   2.439   4.428   9.467 -0.2040  1.1893  0.0131
  137SAPE   H8X14923   2.506   4.508   9.506  1.9347  0.2711 -1.5186
  137SAPE   H8Y14924   2.342   4.473   9.438 -0.3692  0.2095 -1.0269
  137SAPE   C3914925   2.492   4.345   9.348  0.2583  0.5843  0.5551
  137SAPE   H9X14926   2.428   4.255   9.338  0.5140  0.5277 -0.7370
  137SAPE   H9Y14927   2.593   4.308   9.374  1.3256  1.9161 -1.4410
  137SAPE  C31014928   2.500   4.416   9.209 -0.0378  0.3933 -0.1141
  137SAPE  H10X14929   2.557   4.510   9.223  0.1368  0.7302 -2.7057
  137SAPE  H10Y14930   2.394   4.438   9.183 -0.6960 -1.0688  1.1830
  137SAPE  C31114931   2.549   4.319   9.106  0.4788 -0.2636 -0.1122
  137SAPE  H11X14932   2.494   4.223   9.113  0.1839  0.0150  1.9459
  137SAPE  H11Y14933   2.658   4.300   9.119  0.8820 -0.7609 -3.2488
  137SAPE  C31214934   2.539   4.372   8.958  0.4175  1.0736 -0.1644
  137SAPE  H12X14935   2.611   4.456   8.961  0.6633  0.8379  1.0035
  137SAPE  H12Y14936   2.438   4.414   8.938  0.9420  3.7086  2.1283
  137SAPE  C31314937   2.584   4.276   8.851 -0.8942  0.5781 -0.8176
  137SAPE  H13X14938   2.498   4.207   8.839  0.2168 -0.8488 -0.7001
  137SAPE  H13Y14939   2.669   4.215   8.887  0.4699  1.0495 -3.0050
  137SAPE  C31414940   2.613   4.354   8.723 -0.5493 -0.0019  0.7897
  137SAPE  H14X14941   2.711   4.408   8.715 -0.8122  0.3683 -0.1245
  137SAPE  H14Y14942   2.534   4.431   8.709 -1.3311 -0.9439 -0.1312
  137SAPE  C31514943   2.584   4.283   8.587  0.2674  0.7993 -0.1771
  137SAPE  H15X14944   2.478   4.251   8.601  0.5488  0.0253  0.3003
  137SAPE  H15Y14945   2.657   4.201   8.569  1.1063  1.4370  0.2744
  137SAPE  C31614946   2.598   4.386   8.471 -0.3841 -0.0171 -0.4105
  137SAPE  H16X14947   2.576   4.319   8.385  0.5116  0.9155 -1.4143
  137SAPE  H16Y14948   2.703   4.422   8.468 -1.2391  2.6220 -1.5665
  137SAPE  C31714949   2.503   4.504   8.477  0.7927 -0.3681 -0.5082
  137SAPE  H17X14950   2.536   4.565   8.564  1.4446 -0.0334 -0.9762
  137SAPE  H17Y14951   2.408   4.461   8.513  1.0966  0.2967  1.1862
  137SAPE  C31814952   2.482   4.592   8.361  0.0307  0.2703  0.8451
  137SAPE  H18X14953   2.470   4.533   8.268  0.4354  0.5503  0.6135
  137SAPE  H18Y14954   2.573   4.654   8.345 -0.7447  1.1214 -0.3976
  137SAPE  H18Z14955   2.395   4.660   8.373  0.3806  0.7096  0.8825
  138SAPE     N14956   4.098   6.229  10.965 -0.5069 -0.1200  0.0232
  138SAPE   HN114957   4.171   6.155  10.961 -2.5828 -2.2493  0.0126
  138SAPE   HN214958   4.149   6.315  10.936 -2.2514  0.0666 -2.8186
  138SAPE   HN314959   4.065   6.240  11.063  2.3034  1.1541  0.9549
  138SAPE   C1214960   3.996   6.199  10.856 -0.8589 -0.1524  0.0812
  138SAPE  H12A14961   3.903   6.249  10.889 -1.1480 -0.4045 -0.3366
  138SAPE  H12B14962   3.989   6.088  10.851  0.0157 -0.1834 -0.7800
  138SAPE   C1114963   4.049   6.241  10.716  0.1687 -0.3271 -0.5370
  138SAPE  H11A14964   3.977   6.195  10.645 -0.7703 -1.2137  0.9405
  138SAPE  H11B14965   4.145   6.191  10.692  1.3387  1.4546  0.2284
  138SAPE     P14966   4.078   6.443  10.553  0.2142 -0.0626  0.1461
  138SAPE   O1314967   3.949   6.450  10.477 -0.2764  0.8624  0.2929
  138SAPE   O1414968   4.150   6.569  10.566 -0.8300 -0.3095 -0.0897
  138SAPE   O1214969   4.058   6.383  10.697 -0.7198 -0.0246 -0.3068
  138SAPE   O1114970   4.178   6.335  10.486 -0.5386  0.0515 -0.4021
  138SAPE    C114971   4.316   6.322  10.538 -0.4885 -0.9905  0.7625
  138SAPE    HA14972   4.338   6.406  10.607 -1.7071 -1.5114  1.8486
  138SAPE    HB14973   4.327   6.235  10.607  1.6633 -1.8989 -0.6555
  138SAPE    C214974   4.409   6.304  10.413 -0.2529 -0.4497  0.1326
  138SAPE    HS14975   4.514   6.305  10.450  0.5334 -0.3052 -1.9664
  138SAPE   O2114976   4.399   6.405  10.316 -0.1793 -0.0298  0.2718
  138SAPE   C2114977   4.447   6.528  10.349 -0.2912  0.1584  0.0829
  138SAPE   O2214978   4.511   6.544  10.452  0.6610 -0.4600  0.1184
  138SAPE   C2214979   4.419   6.624  10.233 -0.3369 -0.5091 -1.0548
  138SAPE   H2R14980   4.325   6.587  10.187 -0.4985 -1.2983 -0.1207
  138SAPE   H2S14981   4.402   6.726  10.275 -1.7810 -2.2040  2.9713
  138SAPE    C314982   4.383   6.160  10.352 -0.9820  0.5298  1.0598
  138SAPE    HX14983   4.276   6.143  10.376 -1.3497 -2.0117 -1.7353
  138SAPE    HY14984   4.444   6.088  10.411  0.9569 -1.2320 -2.7038
  138SAPE   O3114985   4.412   6.155  10.206 -0.4738 -0.4670 -0.0277
  138SAPE   C3114986   4.543   6.152  10.181  0.0121 -0.2887 -0.2411
  138SAPE   O3214987   4.631   6.162  10.265  0.0281  0.4262 -0.2203
  138SAPE   C3214988   4.562   6.121  10.031  0.1961 -0.0195  0.7904
  138SAPE   H2X14989   4.532   6.220   9.990  0.7953  0.3801  1.2806
  138SAPE   H2Y14990   4.489   6.045   9.997  0.7336  0.0912 -0.6789
  138SAPE   C2314991   4.535   6.625  10.136 -0.8252 -0.4093 -0.1419
  138SAPE   H3R14992   4.639   6.629  10.176  0.2137  0.0383 -2.6968
  138SAPE   H3S14993   4.540   6.720  10.079  0.6118  0.6018  1.5603
  138SAPE   C2414994   4.528   6.519  10.025  0.2183 -0.2192 -0.9790
  138SAPE   H4R14995   4.438   6.539   9.963  0.9016 -0.6092 -2.1398
  138SAPE   H4S14996   4.497   6.431  10.086 -2.8016  1.6324  0.3767
  138SAPE   C2514997   4.651   6.503   9.942 -0.8347 -0.6428  0.3903
  138SAPE   H5R14998   4.732   6.440   9.981 -0.7637 -0.0039  1.2986
  138SAPE   C2614999   4.674   6.579   9.835  0.4527  0.2606  0.1660
  138SAPE   H6R15000   4.766   6.551   9.780  1.7086  2.2694  1.1156
  138SAPE   C2715001   4.576   6.678   9.783 -0.0412  0.0304  0.0546
  138SAPE   H7R15002   4.562   6.756   9.861  0.2774 -0.2282  0.3751
  138SAPE   H7S15003   4.472   6.649   9.755  0.1433  0.8700 -1.5892
  138SAPE   C2815004   4.624   6.761   9.662 -0.0016 -0.3058 -0.4132
  138SAPE   H8R15005   4.633   6.869   9.683  0.7731 -0.5551  0.6804
  138SAPE   C2915006   4.634   6.716   9.536 -0.1844 -1.0270  0.3917
  138SAPE   H9R15007   4.662   6.792   9.461 -2.1516 -0.2833  0.3714
  138SAPE  C21015008   4.608   6.577   9.492 -0.5706  0.7049 -0.2832
  138SAPE  H10R15009   4.534   6.590   9.410 -2.0528  1.7528  1.1662
  138SAPE  H10S15010   4.553   6.525   9.574 -1.5827  2.2845  0.0716
  138SAPE  C21115011   4.732   6.504   9.441  0.0037  0.0213 -0.3395
  138SAPE  H11R15012   4.814   6.530   9.509 -1.1731 -0.8780  1.5362
  138SAPE  C21215013   4.761   6.435   9.333 -0.1126 -0.2347  0.0750
  138SAPE  H12R15014   4.868   6.417   9.315  0.0242 -0.0333  0.6610
  138SAPE  C21315015   4.665   6.400   9.213 -0.2481  0.0360  0.0150
  138SAPE  H13R15016   4.705   6.444   9.119  0.0796 -1.2869 -0.4852
  138SAPE  H13S15017   4.568   6.449   9.236 -0.2654  0.7061 -1.3668
  138SAPE  C21415018   4.647   6.246   9.201  0.4230 -0.2787 -0.0389
  138SAPE  H14R15019   4.633   6.189   9.294  2.3975 -0.5637  0.1223
  138SAPE  C21515020   4.640   6.176   9.085  0.2298 -0.2666 -0.2613
  138SAPE  H15R15021   4.613   6.069   9.088  1.7199 -0.6550  1.2130
  138SAPE  C21615022   4.656   6.241   8.946  0.5477  0.3231 -0.8699
  138SAPE  H16R15023   4.647   6.352   8.946 -0.4042  0.2559 -1.8815
  138SAPE  H16S15024   4.577   6.193   8.885 -1.2838 -0.6898  2.1178
  138SAPE  C21715025   4.799   6.218   8.887 -0.6543  1.0200  0.2408
  138SAPE  H17R15026   4.799   6.289   8.802 -0.3170 -0.5632 -1.1257
  138SAPE  H17S15027   4.800   6.110   8.858 -1.8263  1.4302 -1.4510
  138SAPE  C21815028   4.918   6.268   8.976 -0.3632 -0.3599 -1.3052
  138SAPE  H18R15029   4.925   6.197   9.061  2.5958  1.4072  0.0427
  138SAPE  H18S15030   4.876   6.365   9.010 -1.2085 -1.5168  1.2279
  138SAPE  C21915031   5.053   6.272   8.900  0.5521 -0.0076  0.8633
  138SAPE  H19R15032   5.034   6.224   8.802 -1.3724  0.6268  0.8777
  138SAPE  H19S15033   5.108   6.187   8.944  0.5422 -0.3640  0.1831
  138SAPE  C22015034   5.125   6.405   8.890  0.3319 -0.0834  0.0023
  138SAPE  H20R15035   5.153   6.423   8.784  0.3756  3.1132  0.4641
  138SAPE  H20S15036   5.214   6.399   8.956 -0.5213 -3.0717  1.0795
  138SAPE  H20T15037   5.062   6.493   8.913  0.6898 -0.3192  2.1138
  138SAPE   C3315038   4.706   6.072   9.997 -0.4459 -0.1548 -0.2807
  138SAPE   H3X15039   4.712   5.961  10.006  1.8374 -0.0549  0.1773
  138SAPE   H3Y15040   4.782   6.120  10.062 -1.5178  2.9552 -1.1581
  138SAPE   C3415041   4.752   6.127   9.859 -0.1922  0.3797 -0.1464
  138SAPE   H4X15042   4.853   6.083   9.853 -0.0821  0.2712  1.8064
  138SAPE   H4Y15043   4.771   6.236   9.868 -1.5030  0.5174  1.5070
  138SAPE   C3515044   4.669   6.085   9.737 -0.2826 -0.0357 -0.2713
  138SAPE   H5X15045   4.562   6.106   9.757 -0.1093  1.0974 -0.4677
  138SAPE   H5Y15046   4.662   5.976   9.716 -3.8064  0.2686 -1.4427
  138SAPE   C3615047   4.696   6.160   9.606 -0.3872  0.2109  0.4757
  138SAPE   H6X15048   4.673   6.266   9.628 -1.0108 -0.0456  1.1113
  138SAPE   H6Y15049   4.613   6.130   9.539  0.2599  1.9165 -1.1658
  138SAPE   C3715050   4.841   6.144   9.537 -0.3910  0.2646 -0.0520
  138SAPE   H7X15051   4.912   6.187   9.611 -1.3542  0.2911  0.8895
  138SAPE   H7Y15052   4.841   6.205   9.445  1.1612 -0.0889 -0.3195
  138SAPE   C3815053   4.888   6.000   9.510  0.2476 -0.0252 -0.2030
  138SAPE   H8X15054   4.884   5.944   9.606  0.3056  2.2627  1.2176
  138SAPE   H8Y15055   4.991   6.011   9.469 -0.4709  2.4864 -1.5601
  138SAPE   C3915056   4.821   5.943   9.378 -0.8522 -0.8714 -0.1283
  138SAPE   H9X15057   4.830   6.021   9.300  1.0252 -0.6895  0.2200
  138SAPE   H9Y15058   4.713   5.929   9.397 -1.2045  2.6729  1.2703
  138SAPE  C31015059   4.883   5.811   9.337 -0.0821 -0.1175  0.0573
  138SAPE  H10X15060   4.845   5.738   9.411 -1.5425  0.5619  0.0108
  138SAPE  H10Y15061   4.994   5.816   9.345 -0.0540  3.0424 -0.9888
  138SAPE  C31115062   4.846   5.764   9.196  0.7359 -0.4507 -0.2419
  138SAPE  H11X15063   4.736   5.767   9.180  0.6028 -1.4616  0.4277
  138SAPE  H11Y15064   4.874   5.658   9.182 -0.7158 -1.0548  1.1351
  138SAPE  C31215065   4.908   5.852   9.079 -0.4250 -0.1772 -0.8056
  138SAPE  H12X15066   5.013   5.814   9.080 -0.7768 -1.3212 -2.2705
  138SAPE  H12Y15067   4.896   5.959   9.107  2.0702 -0.4152  1.5780
  138SAPE  C31315068   4.859   5.831   8.931  0.2005 -0.2592 -0.6502
  138SAPE  H13X15069   4.756   5.873   8.928 -0.8244 -2.4633  0.8138
  138SAPE  H13Y15070   4.854   5.720   8.933 -1.2493 -0.3143  3.5989
  138SAPE  C31415071   4.959   5.884   8.825  0.0323 -0.4220  0.2581
  138SAPE  H14X15072   5.055   5.829   8.821  1.2769  1.6919 -1.2860
  138SAPE  H14Y15073   4.990   5.985   8.860 -0.0529 -0.8113  1.5026
  138SAPE  C31515074   4.909   5.894   8.679  0.4742 -0.1075  0.0796
  138SAPE  H15X15075   4.981   5.962   8.628  0.6592  1.1612  1.9316
  138SAPE  H15Y15076   4.807   5.938   8.680  0.1359 -0.8863  1.2530
  138SAPE  C31615077   4.902   5.758   8.608  0.0234  0.7770 -0.2036
  138SAPE  H16X15078   4.804   5.706   8.618 -0.1138  1.2258  0.8913
  138SAPE  H16Y15079   4.990   5.702   8.643 -1.5969 -1.1125  1.0513
  138SAPE  C31715080   4.912   5.773   8.449 -0.0907  0.6275 -0.0085
  138SAPE  H17X15081   5.009   5.822   8.427 -0.6039  0.9284 -1.7496
  138SAPE  H17Y15082   4.834   5.841   8.408 -1.9297  0.7323  3.2809
  138SAPE  C31815083   4.913   5.640   8.383 -0.3701  0.8445 -0.0704
  138SAPE  H18X15084   4.816   5.585   8.393 -0.9878  1.5872 -1.5685
  138SAPE  H18Y15085   4.999   5.585   8.426  0.4071  1.7114 -0.4906
  138SAPE  H18Z15086   4.916   5.646   8.272  2.1531 -2.4194 -0.3243
  139SAPE     N15087   4.119   0.685  11.113 -0.2974 -0.0849  0.0382
  139SAPE   HN115088   4.177   0.603  11.085 -2.5743 -2.1581  0.9127
  139SAPE   HN215089   4.145   0.752  11.039 -0.4661  1.1890  1.1030
  139SAPE   HN315090   4.142   0.718  11.209 -0.8736  0.8054 -0.1163
  139SAPE   C1215091   3.974   0.637  11.098  0.8064 -0.1740  0.1772
  139SAPE  H12A15092   3.914   0.723  11.135  0.7341  0.2192 -0.8352
  139SAPE  H12B15093   3.950   0.556  11.171 -0.0353 -1.3394 -1.3205
  139SAPE   C1115094   3.946   0.611  10.946  0.0314 -0.3701  0.3372
  139SAPE  H11A15095   3.969   0.699  10.882 -1.9699 -0.5840 -0.7588
  139SAPE  H11B15096   3.834   0.609  10.948 -0.0170  1.0256  2.5754
  139SAPE     P15097   3.931   0.350  10.892  0.4499 -0.1027 -0.1678
  139SAPE   O1315098   4.014   0.245  10.837 -0.3583 -0.0401  0.8731
  139SAPE   O1415099   3.887   0.331  11.031  0.2649 -0.2867  0.1750
  139SAPE   O1215100   4.006   0.490  10.887 -0.2785 -0.0946 -0.1830
  139SAPE   O1115101   3.806   0.356  10.807 -0.3029  0.0322  0.0287
  139SAPE    C115102   3.754   0.452  10.714 -0.0298 -0.1151 -0.7355
  139SAPE    HA15103   3.673   0.506  10.768 -0.0984 -0.8829 -0.0522
  139SAPE    HB15104   3.835   0.521  10.682 -0.1772  0.4189  0.0194
  139SAPE    C215105   3.703   0.387  10.579 -0.2340 -0.4784 -0.0731
  139SAPE    HS15106   3.611   0.328  10.600  0.6622 -1.9122 -0.1050
  139SAPE   O2115107   3.808   0.310  10.529  0.1770  0.1394 -0.0910
  139SAPE   C2115108   3.822   0.188  10.574 -0.1697 -0.0897 -0.1021
  139SAPE   O2215109   3.758   0.135  10.666  0.1738 -0.0888 -0.1588
  139SAPE   C2215110   3.934   0.119  10.505 -0.4276 -0.2541 -0.2913
  139SAPE   H2R15111   4.005   0.198  10.472  1.0982 -1.4979 -0.0900
  139SAPE   H2S15112   3.982   0.051  10.577 -1.2336 -2.4441 -1.7156
  139SAPE    C315113   3.661   0.491  10.474  0.2230 -0.5606  0.0552
  139SAPE    HX15114   3.745   0.561  10.458 -1.6839  2.3436  1.8433
  139SAPE    HY15115   3.577   0.548  10.518  0.0517  0.0884 -1.0780
  139SAPE   O3115116   3.631   0.448  10.337  0.5892  0.1487  0.0454
  139SAPE   C3115117   3.542   0.359  10.321 -0.0894 -0.0379  0.8556
  139SAPE   O3215118   3.446   0.334  10.398 -0.2945 -0.0572 -0.6660
  139SAPE   C3215119   3.556   0.284  10.182  0.8896  0.1889 -0.2172
  139SAPE   H2X15120   3.472   0.211  10.177  2.8754 -2.2282 -0.2169
  139SAPE   H2Y15121   3.648   0.223  10.178  1.0742  0.5150 -1.3958
  139SAPE   C2315122   3.899   0.037  10.379  0.1816 -0.1226 -0.1645
  139SAPE   H3R15123   3.827   0.079  10.306  0.5187 -1.2792 -1.1950
  139SAPE   H3S15124   3.853  -0.058  10.412  0.9576 -0.4032  0.1327
  139SAPE   C2415125   4.025  -0.016  10.305 -0.9908 -0.4467 -0.8093
  139SAPE   H4R15126   3.985  -0.095  10.239  1.6211 -2.7016  0.1256
  139SAPE   H4S15127   4.083  -0.079  10.376 -1.6885 -0.4367 -0.2248
  139SAPE   C2515128   4.120   0.085  10.248  0.7710  0.0884 -0.3262
  139SAPE   H5R15129   4.159   0.150  10.327 -0.0130 -1.4731  1.4252
  139SAPE   C2615130   4.150   0.104  10.119 -0.1233  0.8052  0.1042
  139SAPE   H6R15131   4.215   0.188  10.094  0.9535 -1.1017 -4.6338
  139SAPE   C2715132   4.099   0.026  10.000 -0.3440 -0.1630 -0.1363
  139SAPE   H7R15133   4.042   0.102   9.943 -0.8048  0.1341  0.6876
  139SAPE   H7S15134   4.032  -0.061  10.023 -0.3013  0.0697  0.9395
  139SAPE   C2815135   4.215  -0.021   9.920  0.2195 -0.0511  0.2819
  139SAPE   H8R15136   4.310  -0.027   9.974  1.1741  0.0205 -1.3488
  139SAPE   C2915137   4.214  -0.064   9.794  0.2161 -0.5081  0.0101
  139SAPE   H9R15138   4.308  -0.100   9.749  0.5089  1.8306 -1.4029
  139SAPE  C21015139   4.090  -0.064   9.712 -0.1594  0.8253  0.3426
  139SAPE  H10R15140   4.102   0.021   9.642 -1.3259 -0.2762 -1.2724
  139SAPE  H10S15141   4.005  -0.024   9.772  0.7862  1.1523  1.5045
  139SAPE  C21115142   4.047  -0.187   9.641  0.2977  0.4332 -0.0619
  139SAPE  H11R15143   4.013  -0.272   9.702 -0.9818  0.3636 -0.8250
  139SAPE  C21215144   4.037  -0.209   9.506  0.5724 -0.1623 -0.1905
  139SAPE  H12R15145   3.994  -0.304   9.472 -1.0611  0.5013 -0.0636
  139SAPE  C21315146   4.066  -0.118   9.393 -0.3456  0.2178  0.7522
  139SAPE  H13R15147   4.036  -0.012   9.407  0.2371  0.7141 -1.2799
  139SAPE  H13S15148   3.995  -0.145   9.312  1.2801 -1.0462 -0.3252
  139SAPE  C21415149   4.214  -0.121   9.360  0.3708  0.2095  0.3268
  139SAPE  H14R15150   4.287  -0.096   9.438  2.3017 -0.4292 -1.1742
  139SAPE  C21515151   4.268  -0.167   9.245  0.7918  0.2173 -0.5998
  139SAPE  H15R15152   4.378  -0.168   9.237  0.8429  0.3880  0.0215
  139SAPE  C21615153   4.201  -0.223   9.123 -0.0287 -0.2060  0.2996
  139SAPE  H16R15154   4.237  -0.166   9.034  2.3066 -3.6192 -1.1265
  139SAPE  H16S15155   4.091  -0.211   9.135 -0.6337 -1.5229 -2.8196
  139SAPE  C21715156   4.226  -0.372   9.087 -0.3728  0.1607  0.1255
  139SAPE  H17R15157   4.157  -0.421   9.158 -0.6811  1.1232  0.5024
  139SAPE  H17S15158   4.332  -0.392   9.113 -0.1097 -1.5718 -1.9500
  139SAPE  C21815159   4.190  -0.404   8.939 -0.4091  0.8785 -0.5822
  139SAPE  H18R15160   4.211  -0.512   8.922 -1.1258  0.3667  1.5093
  139SAPE  H18S15161   4.254  -0.345   8.869 -0.1124  0.0047 -1.0654
  139SAPE  C21915162   4.037  -0.396   8.916 -0.5674 -0.0777 -0.0755
  139SAPE  H19R15163   3.998  -0.292   8.923  0.9838  0.5059  0.3843
  139SAPE  H19S15164   3.980  -0.458   8.989  0.8362 -1.3240  0.0153
  139SAPE  C22015165   3.997  -0.452   8.777 -0.8142 -0.5921 -0.5838
  139SAPE  H20R15166   4.074  -0.420   8.703 -1.5483  0.1984 -1.0107
  139SAPE  H20S15167   3.897  -0.424   8.738 -0.1593 -0.3655 -2.1537
  139SAPE  H20T15168   3.987  -0.563   8.774  0.4416 -0.8515  1.7621
  139SAPE   C3315169   3.549   0.385  10.069  0.8463 -0.7630 -0.4233
  139SAPE   H3X15170   3.628   0.463  10.079  0.7304 -0.6091 -0.7276
  139SAPE   H3Y15171   3.451   0.436  10.072  0.4490 -1.5502  1.5872
  139SAPE   C3415172   3.561   0.317   9.929  0.3179  0.7804  0.3153
  139SAPE   H4X15173   3.496   0.226   9.927  0.4376  0.6684  1.2681
  139SAPE   H4Y15174   3.664   0.277   9.925 -0.7337 -2.2556  1.0339
  139SAPE   C3515175   3.515   0.406   9.815  0.4352 -1.0739 -0.0344
  139SAPE   H5X15176   3.587   0.490   9.807  1.2208 -1.3468  2.8916
  139SAPE   H5Y15177   3.415   0.450   9.831  0.9148  1.2019 -2.5977
  139SAPE   C3615178   3.498   0.325   9.687  0.4019  0.4305  0.1078
  139SAPE   H6X15179   3.402   0.269   9.697 -1.3294  3.2970  1.0482
  139SAPE   H6Y15180   3.589   0.268   9.662  0.8631  1.9514 -1.9513
  139SAPE   C3715181   3.476   0.409   9.564 -0.1523 -0.2544  0.1519
  139SAPE   H7X15182   3.561   0.475   9.538 -0.9996  1.3733  1.3414
  139SAPE   H7Y15183   3.391   0.480   9.563  0.1621  0.1265 -1.1545
  139SAPE   C3815184   3.462   0.315   9.438 -0.6394  0.8198 -0.9249
  139SAPE   H8X15185   3.381   0.240   9.452 -0.1551  0.4586  0.0312
  139SAPE   H8Y15186   3.560   0.264   9.430 -0.2949  1.4292 -0.6345
  139SAPE   C3915187   3.449   0.388   9.305  0.1652  0.6539  0.1750
  139SAPE   H9X15188   3.537   0.454   9.290  0.6135 -0.0492 -0.3844
  139SAPE   H9Y15189   3.360   0.453   9.304  0.1195  0.6599  1.8856
  139SAPE  C31015190   3.430   0.290   9.190  0.1401 -0.4103 -0.6863
  139SAPE  H10X15191   3.344   0.226   9.219  0.5960  0.0141  1.8587
  139SAPE  H10Y15192   3.519   0.225   9.201 -0.2862 -0.6162  2.6160
  139SAPE  C31115193   3.422   0.342   9.046  0.3993 -0.4059 -0.3222
  139SAPE  H11X15194   3.347   0.423   9.032 -1.2155 -1.9762 -1.2092
  139SAPE  H11Y15195   3.379   0.264   8.979 -0.1878  0.8317 -1.4371
  139SAPE  C31215196   3.553   0.383   8.979  0.3904 -0.2913 -0.1570
  139SAPE  H12X15197   3.614   0.291   8.992  2.4008  1.1485  1.1482
  139SAPE  H12Y15198   3.594   0.464   9.044  0.6379 -1.1840  0.8183
  139SAPE  C31315199   3.544   0.406   8.827 -0.1649 -0.1071  0.0702
  139SAPE  H13X15200   3.533   0.309   8.774 -2.8134  0.3727 -0.4224
  139SAPE  H13Y15201   3.641   0.445   8.791  0.5606 -1.3385  0.6136
  139SAPE  C31415202   3.438   0.513   8.789  0.9555  0.1881 -0.1315
  139SAPE  H14X15203   3.465   0.610   8.837 -0.7249 -0.1134  1.5690
  139SAPE  H14Y15204   3.340   0.497   8.838  1.0113  1.3802  0.4242
  139SAPE  C31515205   3.412   0.514   8.638  0.2905 -0.5561 -0.2510
  139SAPE  H15X15206   3.390   0.410   8.608  1.1932 -0.9417  0.3821
  139SAPE  H15Y15207   3.508   0.559   8.603 -0.3080 -0.0648 -1.3317
  139SAPE  C31615208   3.294   0.600   8.590 -0.3773 -0.3792  0.1491
  139SAPE  H16X15209   3.198   0.582   8.641 -1.8054 -0.0632 -2.2840
  139SAPE  H16Y15210   3.323   0.707   8.590 -0.5111 -0.3421  0.4634
  139SAPE  C31715211   3.259   0.551   8.450  0.4228  0.4461 -0.6793
  139SAPE  H17X15212   3.172   0.604   8.406  0.4481 -0.6783 -2.1513
  139SAPE  H17Y15213   3.225   0.446   8.457  0.5057  0.4023 -0.9242
  139SAPE  C31815214   3.372   0.557   8.344 -0.2011 -0.1538  0.5189
  139SAPE  H18X15215   3.466   0.519   8.389 -0.1908 -1.6327 -0.6772
  139SAPE  H18Y15216   3.395   0.659   8.305  1.9005 -1.0264 -0.6967
  139SAPE  H18Z15217   3.337   0.491   8.262 -0.5187 -0.6651  1.0572
  140SAPE     N15218   0.955   2.373  10.844 -0.2524 -0.5393  0.2554
  140SAPE   HN115219   1.030   2.377  10.916 -0.2041  0.1600  0.1747
  140SAPE   HN215220   0.864   2.419  10.864 -0.0169  0.5813 -1.0523
  140SAPE   HN315221   0.937   2.273  10.824  0.7482 -0.5984 -0.4269
  140SAPE   C1215222   0.995   2.448  10.722  0.5562  0.2473 -0.0766
  140SAPE  H12A15223   0.918   2.431  10.644  2.6910 -1.8898 -1.8653
  140SAPE  H12B15224   1.085   2.401  10.676  2.3274  0.6310  2.7559
  140SAPE   C1115225   1.008   2.589  10.777  0.0562  0.0166  1.0891
  140SAPE  H11A15226   0.907   2.624  10.806 -0.4184 -2.0037  2.0202
  140SAPE  H11B15227   1.034   2.650  10.688 -1.2497  0.0414  0.7112
  140SAPE     P15228   1.249   2.620  10.842  0.6333 -0.2167 -0.2513
  140SAPE   O1315229   1.259   2.731  10.744  0.4358 -0.2870 -0.2721
  140SAPE   O1415230   1.332   2.638  10.962  0.1411  0.3124 -0.0197
  140SAPE   O1215231   1.097   2.605  10.884 -0.3288 -0.4917  0.0755
  140SAPE   O1115232   1.283   2.487  10.772  0.2564  0.4899 -0.0774
  140SAPE    C115233   1.400   2.444  10.716 -0.1786 -0.0631  0.2480
  140SAPE    HA15234   1.479   2.522  10.725  0.6204 -0.9972  1.6461
  140SAPE    HB15235   1.437   2.368  10.788 -0.4533  0.4162  0.9043
  140SAPE    C215236   1.386   2.395  10.572 -0.7690 -0.2897  0.0433
  140SAPE    HS15237   1.485   2.384  10.525 -1.2869 -0.2634 -1.0818
  140SAPE   O2115238   1.302   2.479  10.491  0.3006 -0.5632  0.1475
  140SAPE   C2115239   1.350   2.601  10.472  0.5916  0.9486  0.0123
  140SAPE   O2215240   1.467   2.630  10.484  0.2272  0.2517 -0.1245
  140SAPE   C2215241   1.251   2.703  10.414 -0.6673 -0.0547  0.6054
  140SAPE   H2R15242   1.162   2.708  10.481 -1.7645 -1.5286 -0.6649
  140SAPE   H2S15243   1.309   2.797  10.406 -0.9665  0.0776 -0.1254
  140SAPE    C315244   1.317   2.257  10.571 -0.6584 -1.1038 -0.2340
  140SAPE    HX15245   1.225   2.261  10.634  0.0729 -0.8824  0.8498
  140SAPE    HY15246   1.392   2.186  10.614  1.5840  2.8575  3.1359
  140SAPE   O3115247   1.282   2.212  10.446  0.3087  0.3016  0.4516
  140SAPE   C3115248   1.150   2.216  10.406  0.5257 -0.3190  0.6460
  140SAPE   O3215249   1.061   2.267  10.469 -0.5238 -0.0408 -0.0537
  140SAPE   C3215250   1.139   2.141  10.278 -0.3552 -0.7241  0.1685
  140SAPE   H2X15251   1.196   2.047  10.295  2.0903  0.7019  0.2667
  140SAPE   H2Y15252   1.189   2.203  10.201 -0.1099 -1.0881  0.0365
  140SAPE   C2315253   1.210   2.671  10.264 -1.0206  0.1430 -0.3444
  140SAPE   H3R15254   1.303   2.655  10.205 -0.7892 -1.3907  0.3899
  140SAPE   H3S15255   1.158   2.757  10.218  0.7182  0.4301 -1.9062
  140SAPE   C2415256   1.121   2.550  10.254  0.4303  0.3700  0.0046
  140SAPE   H4R15257   1.066   2.559  10.350  1.0042 -1.8788  0.6213
  140SAPE   H4S15258   1.170   2.451  10.264  0.6806  0.6400  1.6565
  140SAPE   C2515259   1.020   2.550  10.142 -0.5959 -0.3457  0.9123
  140SAPE   H5R15260   0.913   2.562  10.166 -0.6565  1.4680 -0.0642
  140SAPE   C2615261   1.053   2.550  10.009  0.0549  0.1412  0.4231
  140SAPE   H6R15262   0.973   2.559   9.935  1.9405 -0.6522 -1.8523
  140SAPE   C2715263   1.191   2.550   9.936  0.0325  0.2745 -0.4837
  140SAPE   H7R15264   1.190   2.482   9.848  2.1607  0.3408 -0.6096
  140SAPE   H7S15265   1.265   2.499  10.001  0.5125  0.9926 -0.4530
  140SAPE   C2815266   1.220   2.694   9.913 -0.3578  0.4371  0.5003
  140SAPE   H8R15267   1.266   2.742  10.002 -0.4793  0.2043  0.6880
  140SAPE   C2915268   1.193   2.760   9.802  0.5795 -0.1060  0.1294
  140SAPE   H9R15269   1.229   2.864   9.795  0.5363 -0.0481  0.6814
  140SAPE  C21015270   1.120   2.704   9.679 -0.0112 -0.3570  0.4390
  140SAPE  H10R15271   1.021   2.753   9.666 -0.5161 -1.6801 -0.9657
  140SAPE  H10S15272   1.113   2.595   9.698 -0.6169 -0.1118  1.7511
  140SAPE  C21115273   1.226   2.720   9.570  0.1379  0.6057 -0.4527
  140SAPE  H11R15274   1.326   2.680   9.592 -0.0250 -0.1601 -1.0388
  140SAPE  C21215275   1.199   2.787   9.458  0.0126 -0.8613  0.0544
  140SAPE  H12R15276   1.272   2.789   9.376  0.7405  0.8522  0.6971
  140SAPE  C21315277   1.067   2.852   9.417  0.2207  0.5063 -0.1112
  140SAPE  H13R15278   1.026   2.902   9.508  3.7173  3.4097  0.1055
  140SAPE  H13S15279   0.996   2.770   9.392 -1.5500  0.5247  3.9883
  140SAPE  C21415280   1.076   2.960   9.311  0.3597  0.0631 -0.0911
  140SAPE  H14R15281   1.048   3.061   9.344 -2.3006 -0.8288  0.6458
  140SAPE  C21515282   1.070   2.939   9.179 -0.3399  0.0365  0.6532
  140SAPE  H15R15283   1.076   3.028   9.114  2.0323  0.1725  0.9532
  140SAPE  C21615284   1.065   2.816   9.101  0.4062  0.1750 -0.1322
  140SAPE  H16R15285   0.978   2.754   9.134  2.3649 -1.6926  1.8713
  140SAPE  H16S15286   1.166   2.777   9.122  0.4491  0.5973  0.4617
  140SAPE  C21715287   1.055   2.845   8.943  0.2851  0.6383 -0.1089
  140SAPE  H17R15288   1.090   2.752   8.893  1.1823  1.5659 -1.2833
  140SAPE  H17S15289   1.130   2.922   8.917  1.1305 -0.6751 -1.8196
  140SAPE  C21815290   0.911   2.881   8.892 -0.3431  0.8512 -0.1960
  140SAPE  H18R15291   0.887   2.974   8.949  0.5190  0.4807  0.8090
  140SAPE  H18S15292   0.837   2.805   8.925 -0.7112  2.3601  2.7906
  140SAPE  C21915293   0.905   2.926   8.745  0.3594  0.0607  0.0605
  140SAPE  H19R15294   0.983   3.004   8.733 -2.4442  3.4615  1.9718
  140SAPE  H19S15295   0.810   2.974   8.715  1.3474  1.7083 -0.5470
  140SAPE  C22015296   0.925   2.803   8.650  0.4822  0.1109 -0.4659
  140SAPE  H20R15297   0.840   2.734   8.664  0.3600  0.6860  1.9363
  140SAPE  H20S15298   1.022   2.750   8.663 -0.0721 -0.6313  0.7161
  140SAPE  H20T15299   0.925   2.842   8.545  1.6837  0.3321 -0.4010
  140SAPE   C3315300   0.996   2.095  10.246  0.9135 -0.0703  0.1382
  140SAPE   H3X15301   0.927   2.177  10.218 -1.0175 -1.6067  0.1345
  140SAPE   H3Y15302   0.954   2.043  10.335  1.3372 -0.2740  0.2234
  140SAPE   C3415303   0.998   1.991  10.131 -0.2200 -0.4834 -0.5419
  140SAPE   H4X15304   0.903   1.935  10.144 -0.7880  0.4693 -0.5017
  140SAPE   H4Y15305   1.070   1.911  10.158  2.9493  1.2401 -3.0928
  140SAPE   C3515306   1.024   2.038   9.995  0.2102 -0.1964 -0.0163
  140SAPE   H5X15307   1.117   2.098   9.996  0.0601  0.0606 -0.7664
  140SAPE   H5Y15308   0.938   2.097   9.956  0.5666 -0.9968 -2.1617
  140SAPE   C3615309   1.038   1.908   9.906 -0.0410  0.2491  0.4564
  140SAPE   H6X15310   0.939   1.856   9.904 -0.9195  1.8625  0.3049
  140SAPE   H6Y15311   1.115   1.840   9.949  0.1820  1.1203  1.4571
  140SAPE   C3715312   1.079   1.940   9.766  0.4237 -0.2489  0.2082
  140SAPE   H7X15313   1.173   1.999   9.771  1.0815 -1.2865  0.4584
  140SAPE   H7Y15314   0.998   1.999   9.718 -0.4136 -0.2383  1.5857
  140SAPE   C3815315   1.100   1.815   9.675 -0.0028 -0.2068 -0.3519
  140SAPE   H8X15316   0.999   1.772   9.661  1.2678 -3.6369  0.0646
  140SAPE   H8Y15317   1.157   1.731   9.721 -0.9365 -0.7610 -0.1891
  140SAPE   C3915318   1.149   1.837   9.534  0.2776 -0.2722  0.4056
  140SAPE   H9X15319   1.152   1.731   9.498 -1.0400 -0.3538  0.4600
  140SAPE   H9Y15320   1.252   1.877   9.535  1.3505 -2.8110  2.3430
  140SAPE  C31015321   1.060   1.925   9.448  0.1423 -0.6111 -0.3752
  140SAPE  H10X15322   1.083   2.034   9.457  2.3619 -1.1327  0.9341
  140SAPE  H10Y15323   0.958   1.911   9.489  0.1331  1.7260  0.5724
  140SAPE  C31115324   1.070   1.891   9.292  1.2177 -0.4365 -0.3831
  140SAPE  H11X15325   1.058   1.781   9.280  1.2969 -0.2340 -2.8943
  140SAPE  H11Y15326   1.174   1.908   9.257  1.5904 -0.5557  0.6289
  140SAPE  C31215327   0.961   1.968   9.213 -0.9692 -0.0062 -0.4591
  140SAPE  H12X15328   0.981   2.077   9.220  0.2107 -0.2642  0.6471
  140SAPE  H12Y15329   0.857   1.959   9.250 -0.6742 -1.3462  0.0829
  140SAPE  C31315330   0.960   1.929   9.062  0.2916  0.9555  0.3800
  140SAPE  H13X15331   0.925   1.824   9.047  1.3845  0.6764 -0.3037
  140SAPE  H13Y15332   1.061   1.931   9.016  0.9578 -0.5705  1.6624
  140SAPE  C31415333   0.863   2.009   8.969  0.3192  0.2764  0.2754
  140SAPE  H14X15334   0.880   2.118   8.981 -0.2606  0.3514  0.4723
  140SAPE  H14Y15335   0.754   1.995   8.987  0.1178 -0.3982 -1.2790
  140SAPE  C31515336   0.883   1.984   8.820  0.2690  0.3208  0.9230
  140SAPE  H15X15337   0.856   1.880   8.793  0.8184  0.5308 -0.5140
  140SAPE  H15Y15338   0.989   1.994   8.788 -0.9409  1.6905 -3.3281
  140SAPE  C31615339   0.797   2.074   8.727 -0.0739  0.0490  0.7809
  140SAPE  H16X15340   0.850   2.079   8.629  0.3435 -0.0249  0.9996
  140SAPE  H16Y15341   0.803   2.170   8.783  0.0337  0.8344 -0.5318
  140SAPE  C31715342   0.653   2.025   8.713  0.4247 -0.1607  0.5268
  140SAPE  H17X15343   0.600   2.005   8.809  1.1420 -1.0532  0.7451
  140SAPE  H17Y15344   0.638   1.937   8.647  1.0582 -1.3180  1.8765
  140SAPE  C31815345   0.563   2.137   8.656  0.2668 -0.1894  1.0006
  140SAPE  H18X15346   0.558   2.227   8.721  2.0649  0.2064  0.6547
  140SAPE  H18Y15347   0.459   2.100   8.641  0.4419  0.6506 -4.2078
  140SAPE  H18Z15348   0.612   2.156   8.558  0.7406 -2.3996  0.7609
  141SAPE     N15349   1.554   2.758  11.040 -0.5154  0.4129  0.0038
  141SAPE   HN115350   1.473   2.700  11.010 -0.5243  0.4349 -0.0144
  141SAPE   HN215351   1.534   2.778  11.140 -1.8082 -1.1751  0.1225
  141SAPE   HN315352   1.565   2.843  10.982 -1.3849  2.7746  3.0595
  141SAPE   C1215353   1.686   2.685  11.048 -0.2302 -0.3406 -1.3437
  141SAPE  H12A15354   1.714   2.649  10.947 -1.5820  0.8096 -2.1665
  141SAPE  H12B15355   1.680   2.603  11.123 -3.2958  0.5170 -0.5350
  141SAPE   C1115356   1.793   2.783  11.090  0.2281  0.1382  0.5126
  141SAPE  H11A15357   1.890   2.728  11.090 -0.9949 -2.1390 -0.3500
  141SAPE  H11B15358   1.775   2.818  11.194 -0.1480  0.2668  0.4055
  141SAPE     P15359   1.909   3.001  11.003  0.1660  0.3587 -0.3203
  141SAPE   O1315360   1.863   3.113  11.088 -0.0870 -0.3818  0.1212
  141SAPE   O1415361   2.039   2.941  11.042 -0.2420 -0.6728 -0.1189
  141SAPE   O1215362   1.794   2.889  10.994 -0.2205  0.4773  0.4144
  141SAPE   O1115363   1.933   3.049  10.854 -0.4023  0.5876 -0.7787
  141SAPE    C115364   1.835   3.016  10.755  0.7068  0.6795  0.3384
  141SAPE    HA15365   1.814   2.907  10.746 -0.4370  0.7817  1.4387
  141SAPE    HB15366   1.741   3.071  10.779 -0.6973 -2.0179  1.4414
  141SAPE    C215367   1.875   3.067  10.620  0.0357 -0.2487 -0.3637
  141SAPE    HS15368   1.793   3.052  10.547  1.1007  0.3630 -1.7422
  141SAPE   O2115369   1.998   2.999  10.571 -0.1023 -0.2418  0.1664
  141SAPE   C2115370   1.987   2.869  10.527 -0.4680 -0.3584 -0.0458
  141SAPE   O2215371   1.877   2.811  10.521 -0.7281 -0.1766 -0.1234
  141SAPE   C2215372   2.124   2.821  10.471  0.3566  0.1859  0.4323
  141SAPE   H2R15373   2.188   2.792  10.558 -0.2818 -2.9611 -0.0294
  141SAPE   H2S15374   2.104   2.729  10.412 -4.8801  1.4043 -0.2190
  141SAPE    C315375   1.910   3.213  10.633  0.2680 -0.0564  0.0538
  141SAPE    HX15376   1.968   3.232  10.726 -0.1311  0.3596  0.2240
  141SAPE    HY15377   1.812   3.262  10.654  0.8507  0.7577  0.9118
  141SAPE   O3115378   1.969   3.265  10.519 -0.2156 -0.4146  0.7369
  141SAPE   C3115379   2.091   3.302  10.530 -0.6017  0.5639  0.3180
  141SAPE   O3215380   2.168   3.301  10.626  0.0466  0.8794 -0.1513
  141SAPE   C3215381   2.131   3.338  10.391 -0.3183 -0.3329  0.2096
  141SAPE   H2X15382   2.052   3.398  10.342 -0.8363 -1.2681 -0.1044
  141SAPE   H2Y15383   2.137   3.244  10.332 -0.6919 -0.2310  0.0070
  141SAPE   C2315384   2.183   2.916  10.375 -0.1556  0.5335 -0.2159
  141SAPE   H3R15385   2.188   3.016  10.422 -3.2565  0.2675  0.8737
  141SAPE   H3S15386   2.116   2.918  10.287 -1.8753 -2.9702  0.8033
  141SAPE   C2415387   2.332   2.884  10.334  0.7669  0.1057  0.4665
  141SAPE   H4R15388   2.350   2.940  10.240 -0.8453 -2.3440 -1.4204
  141SAPE   H4S15389   2.339   2.781  10.295 -0.6586  0.1222  0.0866
  141SAPE   C2515390   2.437   2.914  10.436  0.0512  0.1725  0.5615
  141SAPE   H5R15391   2.427   2.877  10.539  0.8154  3.4219  1.9204
  141SAPE   C2615392   2.538   2.997  10.424 -0.6896 -1.0396  0.1019
  141SAPE   H6R15393   2.610   3.017  10.504 -0.7523 -1.4837  0.2745
  141SAPE   C2715394   2.566   3.071  10.296  0.4203  0.3165 -0.8007
  141SAPE   H7R15395   2.616   3.166  10.325 -1.5631  0.8435  1.2071
  141SAPE   H7S15396   2.473   3.111  10.251 -1.1219 -0.3817  1.5500
  141SAPE   C2815397   2.649   2.992  10.198 -0.0073 -0.1663  0.4537
  141SAPE   H8R15398   2.732   2.935  10.244  1.2405  1.0424 -0.2192
  141SAPE   C2915399   2.654   2.976  10.065  0.0127 -0.5431 -1.7447
  141SAPE   H9R15400   2.734   2.908  10.032  2.5388  1.7706 -0.8520
  141SAPE  C21015401   2.554   3.050   9.970 -0.2841  0.0246 -0.6804
  141SAPE  H10R15402   2.608   3.146   9.952 -0.1302 -0.2580 -1.8259
  141SAPE  H10S15403   2.464   3.079  10.026  1.0027 -1.7590  2.5997
  141SAPE  C21115404   2.514   2.971   9.844  0.3827 -0.0316 -0.6056
  141SAPE  H11R15405   2.463   2.877   9.870  2.0761 -0.6937  0.4710
  141SAPE  C21215406   2.507   3.007   9.719  0.5888 -0.0811 -0.4826
  141SAPE  H12R15407   2.470   2.935   9.643 -0.1961 -1.5097  1.1884
  141SAPE  C21315408   2.545   3.137   9.658 -0.6720  0.1226  1.1109
  141SAPE  H13R15409   2.640   3.133   9.600  0.7946  3.9263  2.8960
  141SAPE  H13S15410   2.572   3.218   9.729  0.5618 -0.6035  1.5111
  141SAPE  C21415411   2.454   3.196   9.561 -0.4555 -0.0675 -0.6719
  141SAPE  H14R15412   2.362   3.238   9.605 -0.5874  0.2043 -1.2011
  141SAPE  C21515413   2.450   3.187   9.433 -0.0263  0.2338  0.1536
  141SAPE  H15R15414   2.377   3.237   9.368  0.9881  1.5670 -0.0114
  141SAPE  C21615415   2.540   3.098   9.356  0.3961  0.1867 -0.1448
  141SAPE  H16R15416   2.518   2.990   9.376  0.6916  0.1117 -0.2143
  141SAPE  H16S15417   2.646   3.117   9.384  0.3747 -1.7142  1.4682
  141SAPE  C21715418   2.528   3.134   9.204  0.6401 -0.5345  0.9686
  141SAPE  H17R15419   2.628   3.123   9.157 -0.2116  0.0715 -1.1546
  141SAPE  H17S15420   2.492   3.236   9.177  0.2177 -1.1659 -1.0745
  141SAPE  C21815421   2.442   3.032   9.118 -0.5488  0.4449 -0.1919
  141SAPE  H18R15422   2.336   3.047   9.149 -0.3891 -1.1111  1.2908
  141SAPE  H18S15423   2.473   2.929   9.146  0.8980  1.2354  1.3396
  141SAPE  C21915424   2.465   3.061   8.966 -0.4658 -0.4779  0.1102
  141SAPE  H19R15425   2.482   3.170   8.956 -1.2740 -0.3247  0.3422
  141SAPE  H19S15426   2.364   3.037   8.927 -0.5312 -0.9784  0.5802
  141SAPE  C22015427   2.559   2.962   8.900 -0.1591  0.1060  0.0899
  141SAPE  H20R15428   2.566   2.982   8.792 -1.6400  1.1482  0.1626
  141SAPE  H20S15429   2.513   2.861   8.903 -2.0763  0.9663  2.0882
  141SAPE  H20T15430   2.655   2.976   8.955  0.6110 -0.7305 -0.9881
  141SAPE   C3315431   2.264   3.405  10.376  0.2629  0.0037 -0.2027
  141SAPE   H3X15432   2.337   3.347  10.435 -1.5597 -4.2488 -1.7574
  141SAPE   H3Y15433   2.264   3.512  10.407  1.4882 -0.1660  0.4464
  141SAPE   C3415434   2.317   3.407  10.233 -0.1944 -0.0180  0.7000
  141SAPE   H4X15435   2.298   3.304  10.196 -1.9263  0.2323  0.7943
  141SAPE   H4Y15436   2.426   3.428  10.230 -0.6024  2.2368 -0.7188
  141SAPE   C3515437   2.246   3.492  10.119 -0.7357 -0.6211 -0.1776
  141SAPE   H5X15438   2.262   3.593  10.162 -0.9136 -0.3924 -0.6511
  141SAPE   H5Y15439   2.139   3.463  10.117 -0.1955 -3.4090  2.2211
  141SAPE   C3615440   2.300   3.470   9.979  0.1791  0.5735 -0.0372
  141SAPE   H6X15441   2.284   3.367   9.940 -0.7889  1.6889 -2.8022
  141SAPE   H6Y15442   2.410   3.487   9.981  0.2464  0.1856 -0.2633
  141SAPE   C3715443   2.238   3.557   9.870 -0.3839  0.1981  0.1148
  141SAPE   H7X15444   2.246   3.667   9.888 -0.6241  0.5234 -1.5769
  141SAPE   H7Y15445   2.130   3.533   9.879 -0.5404  1.2251  1.3345
  141SAPE   C3815446   2.276   3.521   9.725 -0.1273  0.4131 -0.4542
  141SAPE   H8X15447   2.222   3.430   9.693  0.9993  0.0716 -1.4538
  141SAPE   H8Y15448   2.384   3.500   9.712 -0.1322 -0.6665  1.0851
  141SAPE   C3915449   2.237   3.652   9.643 -0.5524  1.0618 -0.2268
  141SAPE   H9X15450   2.301   3.733   9.684  1.4294 -0.9219  0.8467
  141SAPE   H9Y15451   2.135   3.691   9.665 -0.3459  0.9235  1.0324
  141SAPE  C31015452   2.266   3.642   9.492 -0.1471 -0.2336  0.2111
  141SAPE  H10X15453   2.371   3.629   9.455 -0.7666 -0.6304 -1.5198
  141SAPE  H10Y15454   2.228   3.729   9.434 -1.0078 -1.0631 -0.5074
  141SAPE  C31115455   2.186   3.523   9.431  0.8152  0.5895 -0.5241
  141SAPE  H11X15456   2.088   3.528   9.483  1.5786  0.2882  0.9858
  141SAPE  H11Y15457   2.244   3.435   9.465 -0.7433 -0.3965 -0.3608
  141SAPE  C31215458   2.158   3.497   9.278  0.3284 -1.1231  0.0238
  141SAPE  H12X15459   2.075   3.564   9.250  0.0222 -0.7893  1.6387
  141SAPE  H12Y15460   2.133   3.390   9.263  0.7581 -0.9213 -2.3951
  141SAPE  C31315461   2.279   3.512   9.187  1.1583 -0.4178 -0.5056
  141SAPE  H13X15462   2.372   3.480   9.240  0.5773 -1.1382  0.1160
  141SAPE  H13Y15463   2.288   3.618   9.156  1.4806 -0.3651 -0.2457
  141SAPE  C31415464   2.268   3.434   9.061  0.8322 -0.7342 -0.0471
  141SAPE  H14X15465   2.236   3.331   9.084 -2.5439  0.7070  2.6385
  141SAPE  H14Y15466   2.367   3.422   9.012  0.4525 -0.6462 -0.8592
  141SAPE  C31515467   2.163   3.490   8.967  0.4085 -0.1992  0.6301
  141SAPE  H15X15468   2.164   3.601   8.976 -0.7057 -0.0379 -0.7435
  141SAPE  H15Y15469   2.065   3.472   9.016 -0.4710  1.7023 -0.3150
  141SAPE  C31615470   2.147   3.434   8.825  0.2874  0.4041 -0.2904
  141SAPE  H16X15471   2.216   3.490   8.758 -0.5391  2.5217  0.5398
  141SAPE  H16Y15472   2.047   3.462   8.786 -0.5831  1.1252  2.2650
  141SAPE  C31715473   2.174   3.283   8.817 -0.6547  0.1180 -0.1171
  141SAPE  H17X15474   2.134   3.220   8.899  0.7602  0.9816  1.2949
  141SAPE  H17Y15475   2.284   3.282   8.830 -0.7736 -2.2299  1.2349
  141SAPE  C31815476   2.141   3.215   8.681 -0.8652 -0.1148 -0.2358
  141SAPE  H18X15477   2.034   3.185   8.680 -0.9606  0.1730 -2.2299
  141SAPE  H18Y15478   2.194   3.118   8.669  0.5889  0.6181  0.0275
  141SAPE  H18Z15479   2.160   3.285   8.597 -0.0163 -0.5611 -0.4268
  142SAPE     N15480   1.774   3.362  11.107 -0.2381 -0.1336 -0.3663
  142SAPE   HN115481   1.869   3.400  11.126  0.5181 -1.2547 -1.7313
  142SAPE   HN215482   1.710   3.389  11.185 -1.1299 -1.2100 -0.6962
  142SAPE   HN315483   1.800   3.261  11.106  0.1565 -0.0427 -2.2262
  142SAPE   C1215484   1.732   3.410  10.970  0.3040 -0.1143 -0.1901
  142SAPE  H12A15485   1.806   3.359  10.905  1.1996  3.1120 -1.8943
  142SAPE  H12B15486   1.733   3.521  10.973 -2.9299 -0.0161  1.0220
  142SAPE   C1115487   1.594   3.355  10.928  0.3016 -0.0091  0.6919
  142SAPE  H11A15488   1.579   3.379  10.820  0.1331 -0.8426  0.5192
  142SAPE  H11B15489   1.524   3.409  10.995  1.4602  1.8730  0.4603
  142SAPE     P15490   1.473   3.120  10.959 -0.0403  0.3028  0.0254
  142SAPE   O1315491   1.510   2.986  10.902 -0.1227 -0.1092 -0.7342
  142SAPE   O1415492   1.425   3.114  11.099 -0.2553 -0.2253  0.0072
  142SAPE   O1215493   1.593   3.214  10.944  0.3821 -0.0593  0.4517
  142SAPE   O1115494   1.362   3.186  10.871  0.9875  0.1992  0.2006
  142SAPE    C115495   1.314   3.137  10.746 -0.3916 -0.3316  0.1683
  142SAPE    HA15496   1.309   3.026  10.743 -0.8151 -0.3184  0.3075
  142SAPE    HB15497   1.209   3.171  10.736 -0.5078  0.2684  2.8791
  142SAPE    C215498   1.404   3.181  10.621  0.3162  0.3102  0.2384
  142SAPE    HS15499   1.510   3.162  10.647 -0.0920 -0.0305  1.7358
  142SAPE   O2115500   1.371   3.315  10.585  0.9579 -0.0590 -0.0985
  142SAPE   C2115501   1.476   3.384  10.538 -0.5741  0.8525  0.1627
  142SAPE   O2215502   1.591   3.347  10.550  0.2729  0.7267 -0.6380
  142SAPE   C2215503   1.437   3.516  10.485 -0.0525 -0.1015  0.1669
  142SAPE   H2R15504   1.353   3.549  10.549 -0.2411 -0.3957  0.0728
  142SAPE   H2S15505   1.521   3.587  10.500  0.6962 -0.6447 -1.2522
  142SAPE    C315506   1.384   3.094  10.494  0.0507  0.5001 -0.9601
  142SAPE    HX15507   1.280   3.113  10.458  0.4867  1.5365 -1.7275
  142SAPE    HY15508   1.397   2.988  10.524  0.8576  0.9435  0.2786
  142SAPE   O3115509   1.473   3.116  10.384  0.0701 -0.1285  0.1908
  142SAPE   C3115510   1.585   3.052  10.379 -0.2028  0.1075  0.3867
  142SAPE   O3215511   1.621   2.953  10.441  0.4453  0.2588 -0.3555
  142SAPE   C3215512   1.670   3.126  10.274  0.1735 -0.5401  0.2304
  142SAPE   H2X15513   1.718   3.209  10.331 -0.4407 -0.1878  0.2377
  142SAPE   H2Y15514   1.607   3.167  10.192  0.0835 -0.3417  0.3969
  142SAPE   C2315515   1.383   3.492  10.337 -0.2764 -0.1697 -0.1727
  142SAPE   H3R15516   1.297   3.422  10.342 -1.6144  1.3227 -1.4770
  142SAPE   H3S15517   1.465   3.452  10.273 -0.2607 -2.3709  1.1112
  142SAPE   C2415518   1.324   3.623  10.281 -0.0322 -0.6400  0.0625
  142SAPE   H4R15519   1.290   3.614  10.176  1.3274  0.5857 -0.5054
  142SAPE   H4S15520   1.401   3.702  10.290 -0.6107 -0.0108 -0.5122
  142SAPE   C2515521   1.201   3.655  10.357  0.4383 -0.1848 -0.0564
  142SAPE   H5R15522   1.224   3.711  10.448 -0.6705 -0.3106  0.3135
  142SAPE   C2615523   1.073   3.646  10.314 -0.0756  1.2981 -0.2285
  142SAPE   H6R15524   0.995   3.681  10.383  1.1289  4.3630 -0.2727
  142SAPE   C2715525   1.015   3.589  10.189  0.1596 -0.2475  0.9045
  142SAPE   H7R15526   0.945   3.506  10.212 -0.8178 -0.0792 -1.2402
  142SAPE   H7S15527   1.093   3.546  10.123 -0.0953  2.0944 -1.0574
  142SAPE   C2815528   0.926   3.693  10.122 -0.5066 -0.1853  0.0712
  142SAPE   H8R15529   0.883   3.769  10.189  2.5431  1.3390  0.4679
  142SAPE   C2915530   0.899   3.698   9.993 -0.4555 -0.1632  0.2639
  142SAPE   H9R15531   0.832   3.779   9.962  1.2146  1.7196  1.3651
  142SAPE  C21015532   0.940   3.604   9.879 -0.3772 -0.5106  0.6947
  142SAPE  H10R15533   0.913   3.497   9.896  0.1907 -0.5667  1.2873
  142SAPE  H10S15534   1.050   3.610   9.864 -0.4034 -1.1903  0.2102
  142SAPE  C21115535   0.871   3.638   9.746  0.2127  0.2769  0.1118
  142SAPE  H11R15536   0.793   3.715   9.750 -0.8229 -0.8136  2.6337
  142SAPE  C21215537   0.904   3.591   9.621  0.7087  0.1641  0.3019
  142SAPE  H12R15538   0.839   3.617   9.537  2.1350 -0.4996 -1.0593
  142SAPE  C21315539   1.013   3.494   9.599 -0.3472  0.2610  0.5330
  142SAPE  H13R15540   1.088   3.477   9.679  0.2958  1.4830  0.2271
  142SAPE  H13S15541   1.087   3.518   9.519 -0.5991 -1.4799 -0.2775
  142SAPE  C21415542   0.943   3.371   9.554  0.4595  0.2223 -0.5173
  142SAPE  H14R15543   0.920   3.303   9.637  1.3458  2.6001  1.8238
  142SAPE  C21515544   0.906   3.342   9.426 -0.1307  0.0073 -0.1080
  142SAPE  H15R15545   0.853   3.247   9.409  3.2548 -2.2596  0.8469
  142SAPE  C21615546   0.918   3.432   9.305 -0.2745 -0.7083  0.7123
  142SAPE  H16R15547   0.993   3.514   9.319  1.0451 -1.3866 -1.8746
  142SAPE  H16S15548   0.819   3.471   9.271  1.4304  1.5201 -2.2004
  142SAPE  C21715549   0.952   3.352   9.182 -0.4698  0.2241 -0.1845
  142SAPE  H17R15550   0.897   3.256   9.174 -1.3382  0.6511  0.5686
  142SAPE  H17S15551   1.055   3.310   9.184 -1.0876 -1.8470 -3.6914
  142SAPE  C21815552   0.930   3.430   9.050 -0.1974 -0.2964  0.3889
  142SAPE  H18R15553   0.975   3.530   9.064 -2.1014  0.3844  2.1876
  142SAPE  H18S15554   0.821   3.450   9.045  0.2681  2.3744 -0.2715
  142SAPE  C21915555   0.980   3.361   8.927 -0.1559 -0.2385  0.1746
  142SAPE  H19R15556   0.930   3.263   8.941  0.4552 -0.4062  1.3650
  142SAPE  H19S15557   1.091   3.361   8.934 -0.0377  0.4316 -1.3599
  142SAPE  C22015558   0.942   3.412   8.788 -0.3524 -0.5902  0.2686
  142SAPE  H20R15559   0.831   3.420   8.786 -0.2985  0.1747 -0.0957
  142SAPE  H20S15560   0.962   3.335   8.711 -1.0105 -0.5967  0.0999
  142SAPE  H20T15561   1.000   3.503   8.762  1.3547 -1.7883 -0.2589
  142SAPE   C3315562   1.792   3.045  10.208 -0.1528 -0.5280 -0.7701
  142SAPE   H3X15563   1.764   2.941  10.182  0.5625 -1.0635  0.5061
  142SAPE   H3Y15564   1.872   3.041  10.285 -0.5756 -0.2150 -0.3078
  142SAPE   C3415565   1.851   3.130  10.094  0.6426 -0.1998  0.2835
  142SAPE   H4X15566   1.853   3.238  10.118  0.3181  0.2754 -1.6334
  142SAPE   H4Y15567   1.778   3.141  10.010  0.1972 -0.2456  0.6598
  142SAPE   C3515568   1.987   3.077  10.053  0.3181 -0.2912  0.3694
  142SAPE   H5X15569   1.979   2.970  10.024  0.9407 -0.2142 -0.1161
  142SAPE   H5Y15570   2.061   3.093  10.135 -0.8542  1.5806  1.1187
  142SAPE   C3615571   2.032   3.135   9.919 -0.3391  0.2666 -0.0407
  142SAPE   H6X15572   2.117   3.070   9.889  0.7276  1.5891 -0.0052
  142SAPE   H6Y15573   2.074   3.238   9.919 -2.1191  1.0189  0.6659
  142SAPE   C3715574   1.927   3.132   9.805  0.2304 -0.1162  0.4378
  142SAPE   H7X15575   1.855   3.215   9.824 -0.3591 -0.3480 -0.6756
  142SAPE   H7Y15576   1.876   3.035   9.823 -0.4626  0.1831  0.1454
  142SAPE   C3815577   1.988   3.135   9.660 -0.2125 -0.3590 -0.2042
  142SAPE   H8X15578   2.043   3.038   9.659 -0.2589 -0.3843 -0.5707
  142SAPE   H8Y15579   2.053   3.224   9.656 -0.3615 -0.2300  0.1916
  142SAPE   C3915580   1.888   3.162   9.542 -0.3984 -0.5586 -0.1304
  142SAPE   H9X15581   1.836   3.260   9.551 -0.6323 -0.7312  0.4627
  142SAPE   H9Y15582   1.814   3.079   9.537 -0.8195 -0.1964  0.0725
  142SAPE  C31015583   1.949   3.178   9.403 -1.0001  0.3477 -0.3060
  142SAPE  H10X15584   2.013   3.089   9.383  2.5516  2.9852 -2.0095
  142SAPE  H10Y15585   2.019   3.265   9.403 -1.0144  0.6227 -4.7900
  142SAPE  C31115586   1.854   3.202   9.285  0.0819 -0.4344  0.0088
  142SAPE  H11X15587   1.788   3.289   9.304  0.5690 -0.1050  0.2078
  142SAPE  H11Y15588   1.787   3.114   9.269 -0.0483 -0.0698 -1.6120
  142SAPE  C31215589   1.922   3.232   9.152  0.1417 -0.0022  0.0978
  142SAPE  H12X15590   2.014   3.175   9.128  0.7791  1.4494 -1.1347
  142SAPE  H12Y15591   1.942   3.342   9.148  0.0159  0.0253  0.2284
  142SAPE  C31315592   1.818   3.213   9.039  0.0818 -0.4573 -0.6403
  142SAPE  H13X15593   1.720   3.256   9.070  0.8250  1.4484 -0.7882
  142SAPE  H13Y15594   1.817   3.104   9.018 -0.2907 -0.8797  1.3663
  142SAPE  C31415595   1.844   3.286   8.900  0.2629  0.1248 -0.7287
  142SAPE  H14X15596   1.912   3.220   8.842  0.8566 -0.9342  1.0821
  142SAPE  H14Y15597   1.903   3.376   8.927 -1.1183 -0.1827  4.4191
  142SAPE  C31515598   1.715   3.301   8.821  0.3786  0.1157  1.7139
  142SAPE  H15X15599   1.630   3.342   8.880  0.2866  0.8510  1.0797
  142SAPE  H15Y15600   1.688   3.205   8.771  1.3931  0.8398 -0.3304
  142SAPE  C31615601   1.744   3.399   8.704 -0.3017  0.1925  0.0604
  142SAPE  H16X15602   1.819   3.365   8.629  0.2961 -1.4084  1.3171
  142SAPE  H16Y15603   1.799   3.480   8.757  1.7465 -2.5534  2.5695
  142SAPE  C31715604   1.620   3.463   8.633 -0.1654  0.2761  0.0132
  142SAPE  H17X15605   1.546   3.484   8.713 -0.1403 -0.5863  0.2727
  142SAPE  H17Y15606   1.571   3.382   8.575  0.7482 -0.5859  0.4148
  142SAPE  C31815607   1.655   3.582   8.550 -0.4544 -0.3007  0.2297
  142SAPE  H18X15608   1.674   3.672   8.612  0.1300 -0.9466  1.0154
  142SAPE  H18Y15609   1.566   3.613   8.491 -2.0159 -0.5267  2.3365
  142SAPE  H18Z15610   1.751   3.571   8.495 -1.0664 -0.3293 -0.8511
  143SAPE     N15611   6.013   4.256  10.750  0.0372  0.4865  0.3772
  143SAPE   HN115612   6.014   4.185  10.825  1.9036  1.3320  1.1972
  143SAPE   HN215613   6.067   4.220  10.668  0.3853  3.0855 -0.6285
  143SAPE   HN315614   6.061   4.341  10.786  2.9673 -1.6045  1.8349
  143SAPE   C1215615   5.871   4.275  10.728 -0.5743 -0.7373 -0.4825
  143SAPE  H12A15616   5.821   4.176  10.733 -2.2087  0.0636 -0.1872
  143SAPE  H12B15617   5.844   4.326  10.633 -1.8594 -0.3564  0.0675
  143SAPE   C1115618   5.809   4.352  10.844 -0.4171 -0.6879  0.5757
  143SAPE  H11A15619   5.793   4.283  10.929 -2.2764 -1.0650 -0.0243
  143SAPE  H11B15620   5.706   4.382  10.815 -0.2983  1.2126  1.9039
  143SAPE     P15621   5.842   4.573  10.983 -0.0518  0.1789  0.0357
  143SAPE   O1315622   5.820   4.523  11.121  0.1056  0.2773  0.2482
  143SAPE   O1415623   5.932   4.686  10.977  0.8060  0.0401  0.3218
  143SAPE   O1215624   5.893   4.469  10.878 -1.0194 -0.2640  0.2399
  143SAPE   O1115625   5.702   4.614  10.923  0.8219 -0.2782 -0.0152
  143SAPE    C115626   5.682   4.663  10.790 -0.2356  0.7715 -0.7703
  143SAPE    HA15627   5.693   4.772  10.811  1.1840  0.8257 -1.6341
  143SAPE    HB15628   5.757   4.623  10.718 -0.6435  1.9079 -1.8675
  143SAPE    C215629   5.546   4.651  10.724  0.1738  0.2191 -0.0757
  143SAPE    HS15630   5.479   4.715  10.786  0.8230 -0.4924  1.4111
  143SAPE   O2115631   5.504   4.513  10.716 -0.4621 -0.5300  0.1934
  143SAPE   C2115632   5.380   4.496  10.704  0.1481 -0.7824 -0.3934
  143SAPE   O2215633   5.291   4.585  10.711 -0.7488  0.4918  0.2123
  143SAPE   C2215634   5.359   4.345  10.692 -0.5622 -0.4111  0.0481
  143SAPE   H2R15635   5.438   4.303  10.625  0.2852  2.1828 -0.6673
  143SAPE   H2S15636   5.376   4.320  10.799  1.3693 -1.3367 -0.4223
  143SAPE    C315637   5.547   4.717  10.577  0.7623  0.1780 -0.4501
  143SAPE    HX15638   5.590   4.816  10.601  1.9737 -0.6323  0.8233
  143SAPE    HY15639   5.441   4.731  10.543  0.3665  1.3621  1.1874
  143SAPE   O3115640   5.646   4.651  10.492  0.7281 -0.0035  0.0336
  143SAPE   C3115641   5.601   4.551  10.418  0.6643  0.3686 -0.0855
  143SAPE   O3215642   5.485   4.505  10.420 -0.1253 -0.0524 -0.2157
  143SAPE   C3215643   5.702   4.512  10.313 -0.4453 -0.2975 -0.5418
  143SAPE   H2X15644   5.692   4.402  10.300  1.2027 -0.2733 -2.5682
  143SAPE   H2Y15645   5.799   4.523  10.367 -1.3024  1.7534  0.6689
  143SAPE   C2315646   5.224   4.307  10.632 -0.2753 -0.5284  0.2572
  143SAPE   H3R15647   5.153   4.383  10.672 -1.1363 -2.5216  2.7943
  143SAPE   H3S15648   5.182   4.215  10.678 -0.9431  0.3185  1.4139
  143SAPE   C2415649   5.228   4.283  10.480  0.8106 -0.0452  0.8049
  143SAPE   H4R15650   5.303   4.200  10.483  0.3630 -0.4499  0.8790
  143SAPE   H4S15651   5.270   4.377  10.439  0.0298  0.1238  0.3900
  143SAPE   C2515652   5.089   4.237  10.434  0.1026  0.2604 -0.6531
  143SAPE   H5R15653   5.040   4.181  10.515  0.0687  0.3097 -0.6391
  143SAPE   C2615654   5.031   4.243  10.315 -0.1513  0.1913 -0.5981
  143SAPE   H6R15655   4.927   4.209  10.305  0.0250 -0.6554  0.3176
  143SAPE   C2715656   5.105   4.303  10.194  0.5591 -0.4017  0.1537
  143SAPE   H7R15657   5.174   4.375  10.242 -2.3559  0.2505  3.8441
  143SAPE   H7S15658   5.032   4.365  10.136  1.4481  2.2525  1.6840
  143SAPE   C2815659   5.177   4.205  10.111  0.4571 -0.3413  0.1941
  143SAPE   H8R15660   5.125   4.111  10.087  0.5356  0.0879 -1.8107
  143SAPE   C2915661   5.302   4.225  10.056  1.0840 -0.1500 -0.2927
  143SAPE   H9R15662   5.348   4.151   9.989  1.9670 -0.3453  0.5089
  143SAPE  C21015663   5.390   4.345  10.079 -0.3578  1.0489  0.2126
  143SAPE  H10R15664   5.489   4.323  10.034 -1.0409 -0.3329 -0.6737
  143SAPE  H10S15665   5.400   4.357  10.189 -1.0360  0.4914  0.3472
  143SAPE  C21115666   5.341   4.478  10.042 -0.2139  0.4535  0.8291
  143SAPE  H11R15667   5.293   4.526  10.129 -0.7620 -0.9165  1.3222
  143SAPE  C21215668   5.361   4.541   9.924 -0.4057  0.4148 -0.0375
  143SAPE  H12R15669   5.331   4.646   9.906  2.5346  1.1236 -1.4226
  143SAPE  C21315670   5.446   4.483   9.816  0.4596  0.0389 -0.8009
  143SAPE  H13R15671   5.434   4.372   9.815 -1.4087  0.2029 -0.2646
  143SAPE  H13S15672   5.551   4.513   9.835  0.2869 -1.5036  4.2114
  143SAPE  C21415673   5.385   4.536   9.692  0.5072  0.4612  1.0945
  143SAPE  H14R15674   5.281   4.572   9.693 -0.8855 -3.0742  0.9488
  143SAPE  C21515675   5.442   4.518   9.574 -0.8351  0.5601 -0.5468
  143SAPE  H15R15676   5.391   4.539   9.479 -1.2220  0.9246 -0.2651
  143SAPE  C21615677   5.571   4.444   9.566 -0.9754  0.7383  0.6277
  143SAPE  H16R15678   5.556   4.336   9.585 -0.8317  0.0807 -2.5038
  143SAPE  H16S15679   5.643   4.475   9.645 -2.1900 -1.0134  2.5290
  143SAPE  C21715680   5.633   4.440   9.423  0.1510 -0.2003 -0.1716
  143SAPE  H17R15681   5.565   4.378   9.360 -0.0200  1.0259 -1.2507
  143SAPE  H17S15682   5.727   4.380   9.427 -2.4353 -4.7421  0.0069
  143SAPE  C21815683   5.668   4.582   9.357 -0.5122  0.5252 -0.3714
  143SAPE  H18R15684   5.737   4.648   9.413  0.4679 -0.9296  0.2191
  143SAPE  H18S15685   5.570   4.634   9.361 -0.6296  0.3359 -0.7281
  143SAPE  C21915686   5.729   4.579   9.217 -0.9471 -1.0864  0.0340
  143SAPE  H19R15687   5.840   4.572   9.214 -0.9505 -1.2962  0.4078
  143SAPE  H19S15688   5.703   4.681   9.182  1.0116 -0.3460  0.6252
  143SAPE  C22015689   5.686   4.471   9.119 -0.2527 -0.3935  0.4551
  143SAPE  H20R15690   5.575   4.473   9.111 -0.1519 -2.1528 -3.8603
  143SAPE  H20S15691   5.721   4.373   9.157  1.1686 -0.0789 -0.0056
  143SAPE  H20T15692   5.699   4.490   9.011  0.5150  0.1770  0.6388
  143SAPE   C3315693   5.686   4.580  10.176 -0.2117 -0.1355 -1.1494
  143SAPE   H3X15694   5.748   4.672  10.184 -0.0561 -0.2037 -1.5238
  143SAPE   H3Y15695   5.584   4.618  10.157 -0.3350 -0.8614 -1.9793
  143SAPE   C3415696   5.749   4.496  10.068  0.1684  0.1248 -0.1192
  143SAPE   H4X15697   5.696   4.518   9.973  1.7363  0.7258 -0.8867
  143SAPE   H4Y15698   5.741   4.388  10.090  2.5017 -0.3934 -1.4715
  143SAPE   C3515699   5.902   4.514  10.053 -0.4224  0.4886 -0.1801
  143SAPE   H5X15700   5.952   4.488  10.148  1.4456  0.8392 -1.0299
  143SAPE   H5Y15701   5.912   4.619  10.018 -1.8469  1.4250  1.9834
  143SAPE   C3615702   5.968   4.424   9.947  0.2713  0.1769  0.2641
  143SAPE   H6X15703   5.939   4.318   9.962  0.1248  0.3161  0.9804
  143SAPE   H6Y15704   6.078   4.434   9.955  0.1523  2.3953 -0.0470
  143SAPE   C3715705   5.944   4.482   9.812 -0.0752 -0.4873  0.9034
  143SAPE   H7X15706   6.001   4.576   9.804 -1.6295  0.4286  0.1293
  143SAPE   H7Y15707   5.840   4.505   9.779 -0.1191 -0.5548  0.9928
  143SAPE   C3815708   6.009   4.400   9.698  0.2113  0.1158 -0.2768
  143SAPE   H8X15709   5.957   4.307   9.668  1.9232 -1.6038  1.7749
  143SAPE   H8Y15710   6.100   4.348   9.733  1.9667  1.1204 -3.0043
  143SAPE   C3915711   6.043   4.488   9.577 -0.1483 -0.5842  0.2181
  143SAPE   H9X15712   6.100   4.578   9.609  0.6452 -0.7315 -0.7484
  143SAPE   H9Y15713   5.944   4.525   9.542 -0.4232 -0.1947  1.3652
  143SAPE  C31015714   6.118   4.420   9.454  0.3404 -0.4202  0.1655
  143SAPE  H10X15715   6.220   4.399   9.495  0.9299  0.6595 -0.6991
  143SAPE  H10Y15716   6.122   4.502   9.379 -0.8890 -0.9001 -0.4480
  143SAPE  C31115717   6.047   4.299   9.395  0.1314 -0.0847 -0.1196
  143SAPE  H11X15718   5.949   4.337   9.362 -0.1932  0.3665  1.2885
  143SAPE  H11Y15719   6.024   4.229   9.479  1.4437  0.0609  0.3865
  143SAPE  C31215720   6.129   4.227   9.295 -1.2000  0.6025  0.0535
  143SAPE  H12X15721   6.130   4.117   9.287 -0.0957  0.5763  0.3266
  143SAPE  H12Y15722   6.234   4.239   9.330 -0.4422  0.6349 -2.1055
  143SAPE  C31315723   6.121   4.263   9.146  0.2663  0.0103  0.4062
  143SAPE  H13X15724   6.132   4.374   9.142 -0.9703  0.1241 -0.2133
  143SAPE  H13Y15725   6.019   4.233   9.114 -1.5126  3.9873  1.7335
  143SAPE  C31415726   6.220   4.200   9.054  0.4994  0.9040  0.4822
  143SAPE  H14X15727   6.205   4.090   9.047 -0.8722  1.1552 -1.2144
  143SAPE  H14Y15728   6.325   4.213   9.089  1.0846 -0.4163 -0.6721
  143SAPE  C31515729   6.216   4.244   8.904  0.3369  0.1071  0.1722
  143SAPE  H15X15730   6.131   4.198   8.849 -0.9347  1.5600  0.8244
  143SAPE  H15Y15731   6.305   4.206   8.850 -0.3033  0.0621 -0.8900
  143SAPE  C31615732   6.218   4.396   8.876 -0.3046 -0.5383  0.6779
  143SAPE  H16X15733   6.320   4.438   8.889 -0.8033  0.4532  1.6538
  143SAPE  H16Y15734   6.151   4.460   8.938 -0.0696  0.8017 -0.4157
  143SAPE  C31715735   6.174   4.418   8.735 -1.0385 -0.0674 -0.4411
  143SAPE  H17X15736   6.248   4.364   8.671 -0.0472 -1.5506  1.8266
  143SAPE  H17Y15737   6.189   4.526   8.718 -1.8055 -0.0764 -1.1950
  143SAPE  C31815738   6.036   4.372   8.696 -0.4851 -0.5464  0.6436
  143SAPE  H18X15739   6.012   4.414   8.597  1.4855 -0.2094  0.2655
  143SAPE  H18Y15740   5.959   4.404   8.769  0.3190 -1.5933  2.0058
  143SAPE  H18Z15741   6.025   4.263   8.678  0.7571 -0.6160  0.2277
  144SAPE     N15742   0.601   1.395  10.950  0.5464 -0.8848  0.5595
  144SAPE   HN115743   0.644   1.311  10.991 -1.9847 -1.8194  1.5067
  144SAPE   HN215744   0.527   1.358  10.886  1.1744 -0.4954 -0.4211
  144SAPE   HN315745   0.670   1.448  10.893 -0.8382 -1.1440 -1.4792
  144SAPE   C1215746   0.542   1.481  11.055  0.4183  0.2915 -0.5442
  144SAPE  H12A15747   0.624   1.510  11.124  0.4707  0.9754 -0.8842
  144SAPE  H12B15748   0.456   1.420  11.091  0.1451 -0.8691 -2.9313
  144SAPE   C1115749   0.468   1.607  10.998  0.1723  0.1042 -0.3985
  144SAPE  H11A15750   0.416   1.656  11.083  0.2315 -0.4888 -0.0079
  144SAPE  H11B15751   0.395   1.567  10.924 -0.4205  0.1622  0.1407
  144SAPE     P15752   0.508   1.827  10.868  0.3558 -0.0884  0.0117
  144SAPE   O1315753   0.407   1.882  10.963 -1.4018  0.1318  0.3085
  144SAPE   O1415754   0.626   1.913  10.840 -0.3532 -0.4718 -0.1149
  144SAPE   O1215755   0.564   1.694  10.935 -0.4194 -0.4109  0.3982
  144SAPE   O1115756   0.439   1.788  10.731 -0.4466  0.0654  0.2483
  144SAPE    C115757   0.459   1.666  10.664 -0.1668  0.2296  0.2393
  144SAPE    HA15758   0.560   1.659  10.617 -0.6056 -0.9201 -0.5533
  144SAPE    HB15759   0.447   1.579  10.732 -0.0719 -0.2303 -0.3249
  144SAPE    C215760   0.365   1.638  10.543 -0.3826 -0.1687  0.1652
  144SAPE    HS15761   0.410   1.546  10.501  2.2372 -0.5171  3.3277
  144SAPE   O2115762   0.369   1.756  10.448 -0.6025 -1.2219  0.4506
  144SAPE   C2115763   0.469   1.752  10.366  0.2066 -1.0112 -0.2220
  144SAPE   O2215764   0.561   1.671  10.366  0.8762  0.0875 -0.0319
  144SAPE   C2215765   0.444   1.862  10.258  0.2627  0.2782  0.6160
  144SAPE   H2R15766   0.337   1.848  10.232  0.9272  0.2899 -2.4995
  144SAPE   H2S15767   0.442   1.956  10.316 -3.7135  0.6875  0.0524
  144SAPE    C315768   0.216   1.622  10.588 -0.1172  0.3068  0.4416
  144SAPE    HX15769   0.184   1.723  10.621  0.4275  0.4093  0.6594
  144SAPE    HY15770   0.219   1.556  10.677  0.1466  0.5805  0.6394
  144SAPE   O3115771   0.141   1.561  10.483 -0.5721 -0.4284  0.3136
  144SAPE   C3115772   0.087   1.659  10.399 -0.5953 -0.0503 -0.3120
  144SAPE   O3215773   0.084   1.777  10.427  0.4092  0.2301 -0.4174
  144SAPE   C3215774   0.051   1.597  10.266 -0.2998 -0.1214  0.3470
  144SAPE   H2X15775  -0.021   1.516  10.291 -2.9492  1.6666 -1.0428
  144SAPE   H2Y15776   0.147   1.556  10.225  0.7468  0.9722  1.6214
  144SAPE   C2315777   0.547   1.866  10.143 -0.5501  0.0402 -0.2405
  144SAPE   H3R15778   0.650   1.847  10.179 -1.3131 -2.2011  0.9605
  144SAPE   H3S15779   0.562   1.966  10.096  3.8754 -0.6150 -0.6246
  144SAPE   C2415780   0.511   1.774  10.025 -0.7139 -0.0191  0.5175
  144SAPE   H4R15781   0.433   1.825   9.964 -1.2482 -2.4846 -0.9736
  144SAPE   H4S15782   0.458   1.682  10.059 -2.0071 -0.4569 -2.4108
  144SAPE   C2515783   0.633   1.743   9.943  0.1121  0.3655  0.9437
  144SAPE   H5R15784   0.704   1.672   9.989 -0.2888  0.1497  1.2286
  144SAPE   C2615785   0.652   1.784   9.817  0.5958  0.2608  0.4582
  144SAPE   H6R15786   0.745   1.761   9.763 -0.1463 -1.0504 -0.3230
  144SAPE   C2715787   0.561   1.877   9.741  0.9010  0.3416  1.2829
  144SAPE   H7R15788   0.630   1.941   9.682  1.6522 -0.5951  1.1138
  144SAPE   H7S15789   0.501   1.943   9.807 -0.7736 -0.4603  0.6091
  144SAPE   C2815790   0.453   1.805   9.652 -0.4560 -0.4079  0.0783
  144SAPE   H8R15791   0.363   1.771   9.705 -0.1371  1.0869  1.6843
  144SAPE   C2915792   0.462   1.794   9.514 -0.5034 -0.1178 -1.4464
  144SAPE   H9R15793   0.387   1.733   9.461 -0.0578 -0.7305 -1.3888
  144SAPE  C21015794   0.576   1.841   9.424  0.6439  0.1361 -0.2938
  144SAPE  H10R15795   0.583   1.765   9.343  0.8300  1.0894 -1.1942
  144SAPE  H10S15796   0.679   1.845   9.465  0.0377 -2.6018  1.7507
  144SAPE  C21115797   0.536   1.979   9.376 -0.0417  0.1247  0.3321
  144SAPE  H11R15798   0.536   2.064   9.446 -0.6744  0.5078 -0.1174
  144SAPE  C21215799   0.489   2.012   9.253  0.1853 -0.8652  0.8286
  144SAPE  H12R15800   0.460   2.114   9.222  0.8226 -0.7448  0.6266
  144SAPE  C21315801   0.465   1.918   9.132 -0.0958  0.4485 -0.8092
  144SAPE  H13R15802   0.559   1.860   9.117  1.1946  1.8683  1.1543
  144SAPE  H13S15803   0.463   1.973   9.035 -0.9119  2.1717  0.1258
  144SAPE  C21415804   0.347   1.832   9.142 -0.1572  0.5880  0.1903
  144SAPE  H14R15805   0.341   1.768   9.230  0.3588  0.1229 -0.1085
  144SAPE  C21515806   0.248   1.819   9.046  0.0094 -0.0797  0.3541
  144SAPE  H15R15807   0.164   1.751   9.064 -0.5487  0.0966 -1.4253
  144SAPE  C21615808   0.236   1.890   8.913 -0.2032 -0.0381  0.2632
  144SAPE  H16R15809   0.332   1.932   8.876  0.1798 -1.2093 -0.1205
  144SAPE  H16S15810   0.181   1.984   8.932  0.1261 -0.2616  2.5518
  144SAPE  C21715811   0.172   1.804   8.812  0.3950 -0.1601  0.4784
  144SAPE  H17R15812   0.162   1.859   8.716  1.1424  2.1642  1.6579
  144SAPE  H17S15813   0.067   1.789   8.846  0.6302  1.1641  1.9119
  144SAPE  C21815814   0.244   1.675   8.789 -0.5152 -0.3011 -0.1352
  144SAPE  H18R15815   0.236   1.612   8.880  0.9761 -0.5875 -0.1783
  144SAPE  H18S15816   0.351   1.703   8.773 -1.2989  1.6421 -2.6632
  144SAPE  C21915817   0.205   1.592   8.666  0.1275 -0.2307  0.2876
  144SAPE  H19R15818   0.243   1.631   8.568 -0.2327 -2.8081 -0.9467
  144SAPE  H19S15819   0.095   1.594   8.655  0.0643 -0.6927  0.8474
  144SAPE  C22015820   0.256   1.446   8.689 -0.5323 -0.3441 -0.5378
  144SAPE  H20R15821   0.244   1.389   8.595 -1.7232  0.9359 -1.2038
  144SAPE  H20S15822   0.194   1.404   8.770 -0.3950  0.3243 -0.0741
  144SAPE  H20T15823   0.363   1.439   8.719 -1.0751 -2.2556  1.1290
  144SAPE   C3315824  -0.016   1.702  10.171  0.2170 -0.6762  0.4889
  144SAPE   H3X15825   0.057   1.782  10.147 -0.1598 -0.6012 -0.4316
  144SAPE   H3Y15826  -0.104   1.753  10.218  0.1264  0.4307 -0.8298
  144SAPE   C3415827  -0.071   1.639  10.040  0.0283  0.5498 -0.1156
  144SAPE   H4X15828  -0.154   1.706  10.008 -0.5732 -0.2734 -0.3152
  144SAPE   H4Y15829  -0.120   1.540  10.050  0.3883  0.3788 -0.0277
  144SAPE   C3515830   0.035   1.628   9.930 -1.0662 -0.5257  0.0203
  144SAPE   H5X15831   0.122   1.575   9.975 -0.9203  1.0510  1.6725
  144SAPE   H5Y15832   0.074   1.730   9.911 -2.0209 -0.5266 -2.3179
  144SAPE   C3615833  -0.004   1.552   9.804  0.1208  0.3173 -0.3740
  144SAPE   H6X15834  -0.079   1.618   9.755 -0.3601  1.5164  1.8448
  144SAPE   H6Y15835  -0.068   1.469   9.841 -2.6820  1.7669 -1.6800
  144SAPE   C3715836   0.109   1.521   9.716 -0.2120  0.5913  0.3866
  144SAPE   H7X15837   0.192   1.467   9.765 -0.4065  0.5739  0.7028
  144SAPE   H7Y15838   0.156   1.616   9.684  0.1540  1.1118  2.3134
  144SAPE   C3815839   0.061   1.447   9.589  0.5130  0.1748  0.4423
  144SAPE   H8X15840  -0.029   1.501   9.553 -0.6154 -1.1580  1.1560
  144SAPE   H8Y15841   0.032   1.345   9.621  0.6019 -0.1416 -0.4539
  144SAPE   C3915842   0.151   1.436   9.469 -0.7576 -0.1509 -0.0193
  144SAPE   H9X15843   0.123   1.359   9.394 -0.2742 -1.5851  1.2275
  144SAPE   H9Y15844   0.246   1.391   9.506 -1.2519 -0.9397  0.3178
  144SAPE  C31015845   0.166   1.565   9.395 -0.1908 -0.1308  0.3823
  144SAPE  H10X15846   0.258   1.566   9.333  1.5355  0.7422  2.8427
  144SAPE  H10Y15847   0.186   1.653   9.460  2.1340  3.0895 -4.1263
  144SAPE  C31115848   0.048   1.604   9.306  0.1175 -0.0135 -0.3354
  144SAPE  H11X15849   0.053   1.707   9.265 -0.4190 -0.4670 -1.6178
  144SAPE  H11Y15850  -0.044   1.603   9.369  1.9683  1.2917  2.5414
  144SAPE  C31215851   0.021   1.500   9.189  0.3126  0.0103 -0.3739
  144SAPE  H12X15852   0.003   1.399   9.231 -0.0969 -0.3981 -1.4727
  144SAPE  H12Y15853   0.116   1.484   9.134 -0.3039 -2.5947 -0.7701
  144SAPE  C31315854  -0.100   1.546   9.102 -0.1696  0.2246 -0.1981
  144SAPE  H13X15855  -0.113   1.487   9.008 -0.6998 -1.4883  0.9038
  144SAPE  H13Y15856  -0.082   1.652   9.073  1.0763  0.3796  1.0415
  144SAPE  C31415857  -0.234   1.522   9.170  0.0057 -0.7833 -0.5772
  144SAPE  H14X15858  -0.227   1.570   9.270 -0.8318  0.5315 -1.1184
  144SAPE  H14Y15859  -0.251   1.413   9.176  2.1018 -1.1701 -0.9689
  144SAPE  C31515860  -0.370   1.584   9.111  0.5034 -0.0548 -0.3903
  144SAPE  H15X15861  -0.399   1.519   9.025  1.1148 -0.0213 -0.6274
  144SAPE  H15Y15862  -0.348   1.684   9.069 -1.8097  0.4581 -0.4978
  144SAPE  C31615863  -0.490   1.591   9.216 -0.1393  0.4345 -0.4118
  144SAPE  H16X15864  -0.495   1.491   9.263  0.3998 -0.4977 -2.2685
  144SAPE  H16Y15865  -0.585   1.614   9.162 -0.0672  1.0630 -0.2858
  144SAPE  C31715866  -0.476   1.703   9.321  0.1974 -0.5768 -0.5446
  144SAPE  H17X15867  -0.462   1.796   9.261 -1.8005 -0.1501 -0.4222
  144SAPE  H17Y15868  -0.383   1.686   9.379  0.9438 -0.0827 -1.5476
  144SAPE  C31815869  -0.596   1.713   9.407 -1.1139 -0.1295  0.1416
  144SAPE  H18X15870  -0.597   1.628   9.479 -0.8667  1.1023  1.6683
  144SAPE  H18Y15871  -0.683   1.708   9.338  0.1335  3.0649 -1.8899
  144SAPE  H18Z15872  -0.604   1.805   9.469 -2.9875 -0.6546  0.7694
  145SAPE     N15873   6.110   3.143  10.977 -0.3858  0.0461  0.4872
  145SAPE   HN115874   6.117   3.235  10.929  1.3484 -0.4684 -0.3073
  145SAPE   HN215875   6.152   3.068  10.919  0.5338 -0.5546  1.8784
  145SAPE   HN315876   6.008   3.131  10.993 -0.0599 -0.3089  2.7299
  145SAPE   C1215877   6.189   3.157  11.106 -0.0327 -0.2305  0.7518
  145SAPE  H12A15878   6.171   3.069  11.170 -1.0134 -0.5808  0.0259
  145SAPE  H12B15879   6.150   3.256  11.140  1.5804  0.7548 -0.1277
  145SAPE   C1115880   6.336   3.190  11.073 -0.2293  0.9727  0.3303
  145SAPE  H11A15881   6.395   3.102  11.041  2.6257  2.2224  1.6939
  145SAPE  H11B15882   6.382   3.227  11.168  0.2604 -1.8369  1.2863
  145SAPE     P15883   6.443   3.410  10.991 -0.1095  0.5574 -0.3822
  145SAPE   O1315884   6.379   3.505  11.088  0.5555  0.7793 -0.2863
  145SAPE   O1415885   6.572   3.349  11.041  0.0289 -0.0681 -0.0814
  145SAPE   O1215886   6.349   3.285  10.970  0.5524 -0.4860  0.6840
  145SAPE   O1115887   6.467   3.481  10.852 -0.2182  0.3725  0.2241
  145SAPE    C115888   6.542   3.406  10.755 -0.0235 -0.1674 -0.3522
  145SAPE    HA15889   6.630   3.466  10.725  0.2597  0.6089  1.8488
  145SAPE    HB15890   6.590   3.311  10.786  2.5573  0.8246 -1.0199
  145SAPE    C215891   6.462   3.373  10.627  0.2629 -0.1315  0.1844
  145SAPE    HS15892   6.528   3.307  10.567 -1.4438 -1.9687  0.1961
  145SAPE   O2115893   6.432   3.501  10.568  0.0341  0.2642 -0.1038
  145SAPE   C2115894   6.420   3.495  10.438  0.2204 -0.9081  0.0891
  145SAPE   O2215895   6.433   3.402  10.365  0.1212 -0.0002  0.2864
  145SAPE   C2215896   6.404   3.644  10.395 -0.3636  0.3153 -0.9047
  145SAPE   H2R15897   6.312   3.678  10.448 -1.4533 -1.1558 -1.7574
  145SAPE   H2S15898   6.487   3.710  10.428 -0.8300  0.4819 -0.0315
  145SAPE    C315899   6.333   3.298  10.664  0.7746 -0.3751 -0.0867
  145SAPE    HX15900   6.259   3.366  10.710 -0.9471  0.5363 -3.8385
  145SAPE    HY15901   6.354   3.215  10.735  1.9085 -1.5589 -1.7122
  145SAPE   O3115902   6.273   3.240  10.554  0.0427 -0.6202  0.5768
  145SAPE   C3115903   6.135   3.241  10.553  0.7872  0.1582 -0.1084
  145SAPE   O3215904   6.065   3.261  10.649  0.0074  0.3231 -0.0405
  145SAPE   C3215905   6.083   3.241  10.408 -1.7882  0.1579 -0.4839
  145SAPE   H2X15906   6.122   3.154  10.351 -0.0758  1.3990 -1.3070
  145SAPE   H2Y15907   6.130   3.326  10.353 -0.3961 -0.0359  0.3603
  145SAPE   C2315908   6.375   3.658  10.250  0.6396  0.0065  0.3850
  145SAPE   H3R15909   6.299   3.739  10.243 -0.7197 -0.7434  4.1423
  145SAPE   H3S15910   6.336   3.565  10.204  1.1124  0.6422 -1.3855
  145SAPE   C2415911   6.501   3.683  10.162  0.7248 -0.5896 -0.4794
  145SAPE   H4R15912   6.579   3.604  10.166  2.2814  0.9208 -0.2562
  145SAPE   H4S15913   6.546   3.778  10.197 -0.0452  0.5042 -2.3529
  145SAPE   C2515914   6.460   3.715  10.025 -0.0323  0.2532 -0.0725
  145SAPE   H5R15915   6.460   3.821   9.997  1.0034 -0.1839 -1.8787
  145SAPE   C2615916   6.440   3.626   9.926  0.5128  0.3203 -0.6283
  145SAPE   H6R15917   6.400   3.660   9.830 -2.3293 -0.8130  0.0464
  145SAPE   C2715918   6.465   3.473   9.938  0.0494  0.1715  0.2180
  145SAPE   H7R15919   6.534   3.450  10.022  1.8236  2.8336 -0.3453
  145SAPE   H7S15920   6.529   3.447   9.850  0.4574  0.5420  0.3990
  145SAPE   C2815921   6.339   3.387   9.945 -0.3196 -0.0131 -0.1955
  145SAPE   H8R15922   6.248   3.439   9.977 -0.2495  0.0206 -0.0492
  145SAPE   C2915923   6.338   3.257   9.906  0.3003  0.2844 -0.0045
  145SAPE   H9R15924   6.250   3.191   9.908 -0.0578  0.7625 -0.0013
  145SAPE  C21015925   6.456   3.190   9.849 -0.3331 -0.4030 -0.1921
  145SAPE  H10R15926   6.544   3.211   9.914 -1.3480 -0.0077  1.0994
  145SAPE  H10S15927   6.473   3.238   9.751 -1.1829  0.3411  0.0036
  145SAPE  C21115928   6.441   3.039   9.829  0.0449 -0.3269  0.1647
  145SAPE  H11R15929   6.451   2.983   9.923  2.4244  2.2987  1.6309
  145SAPE  C21215930   6.429   2.980   9.708 -0.4160  0.3478  0.5774
  145SAPE  H12R15931   6.418   2.871   9.720  0.3348  0.2304  0.2649
  145SAPE  C21315932   6.413   3.040   9.567 -0.6173  0.2772 -0.5661
  145SAPE  H13R15933   6.373   3.144   9.568 -0.5541  0.5008  4.7925
  145SAPE  H13S15934   6.345   2.970   9.515  0.4402  0.4219 -2.2087
  145SAPE  C21415935   6.543   3.046   9.493  0.3678  0.1408  0.5647
  145SAPE  H14R15936   6.633   3.038   9.556 -1.1809 -1.3166  2.7135
  145SAPE  C21515937   6.555   3.074   9.366 -0.7468  0.2497 -0.2958
  145SAPE  H15R15938   6.653   3.072   9.317 -0.4697  0.4977  0.2401
  145SAPE  C21615939   6.448   3.095   9.273 -0.1553  0.2470  0.0235
  145SAPE  H16R15940   6.395   3.190   9.297  1.6527  1.1509  0.6765
  145SAPE  H16S15941   6.378   3.010   9.282 -1.8336  1.5393 -0.4178
  145SAPE  C21715942   6.498   3.111   9.127  0.2156  0.2655 -0.3662
  145SAPE  H17R15943   6.579   3.187   9.128 -0.5182  1.2147  3.5277
  145SAPE  H17S15944   6.420   3.159   9.063  2.3279  2.5050 -1.4592
  145SAPE  C21815945   6.523   2.973   9.064 -0.3590 -0.6975 -1.0028
  145SAPE  H18R15946   6.487   2.889   9.127 -0.0717  1.2399  1.9474
  145SAPE  H18S15947   6.632   2.960   9.049 -0.2445  1.0074 -1.9435
  145SAPE  C21915948   6.466   2.962   8.922 -0.6758 -0.1579  0.3305
  145SAPE  H19R15949   6.497   3.051   8.864  0.1660 -1.8359 -1.9285
  145SAPE  H19S15950   6.357   2.978   8.933 -0.3903  1.8519  0.6971
  145SAPE  C22015951   6.498   2.835   8.840  0.0730 -0.1843 -0.0403
  145SAPE  H20R15952   6.596   2.795   8.873  0.8264  0.5731 -1.2836
  145SAPE  H20S15953   6.479   2.860   8.734 -2.0565  3.7815  1.0745
  145SAPE  H20T15954   6.427   2.753   8.865 -1.6051  0.3636 -2.6157
  145SAPE   C3315955   5.934   3.235  10.394 -0.3736 -0.0069 -0.1376
  145SAPE   H3X15956   5.888   3.318  10.452 -1.1337 -0.7353  0.3365
  145SAPE   H3Y15957   5.890   3.142  10.435 -0.8952 -0.1754 -1.0427
  145SAPE   C3415958   5.887   3.240  10.242 -0.3221 -0.3355  0.2529
  145SAPE   H4X15959   5.911   3.347  10.221 -0.3943 -0.2254  0.7269
  145SAPE   H4Y15960   5.777   3.247  10.238 -0.2113  4.1678  0.1158
  145SAPE   C3515961   5.932   3.132  10.147 -0.4343  0.0699  0.8532
  145SAPE   H5X15962   5.881   3.033  10.150  1.8879 -1.1841  0.9044
  145SAPE   H5Y15963   6.038   3.107  10.167 -1.3126 -2.8054  2.6411
  145SAPE   C3615964   5.917   3.170   9.994 -0.3631 -0.2405 -0.0304
  145SAPE   H6X15965   5.983   3.250   9.954  0.2938 -0.7015  0.1122
  145SAPE   H6Y15966   5.810   3.196   9.980  0.3246  3.1314  0.1589
  145SAPE   C3715967   5.956   3.040   9.921 -0.1348 -0.2671 -0.1255
  145SAPE   H7X15968   5.878   2.961   9.930 -0.5511  0.3239  1.7701
  145SAPE   H7Y15969   6.055   3.004   9.955  0.7760  2.1404 -0.0386
  145SAPE   C3815970   5.971   3.069   9.769  0.2037  0.1798 -0.3434
  145SAPE   H8X15971   5.992   2.968   9.727  0.6902  0.3494 -0.5161
  145SAPE   H8Y15972   6.055   3.137   9.743  0.7202 -0.7499 -1.2093
  145SAPE   C3915973   5.845   3.118   9.686 -0.8179 -0.0715 -0.0485
  145SAPE   H9X15974   5.832   3.220   9.726  3.8338  1.0828 -0.8908
  145SAPE   H9Y15975   5.758   3.052   9.707 -1.4121  0.6665 -0.1642
  145SAPE  C31015976   5.872   3.116   9.537 -0.3486  0.8032  0.1699
  145SAPE  H10X15977   5.855   3.011   9.507 -0.5002  0.9569 -0.2856
  145SAPE  H10Y15978   5.972   3.152   9.505 -1.0915  1.4636 -1.5527
  145SAPE  C31115979   5.761   3.202   9.462  0.2544  0.4033 -0.0474
  145SAPE  H11X15980   5.782   3.311   9.462  4.7392 -0.2744  1.3273
  145SAPE  H11Y15981   5.668   3.186   9.521  0.4555  0.7943  0.3814
  145SAPE  C31215982   5.732   3.149   9.321  0.4113 -0.3543 -0.7542
  145SAPE  H12X15983   5.738   3.038   9.319 -1.1564 -0.4615 -0.9831
  145SAPE  H12Y15984   5.812   3.171   9.247  2.4789 -1.9941  0.8597
  145SAPE  C31315985   5.587   3.163   9.271  0.5695  0.7108  0.1090
  145SAPE  H13X15986   5.573   3.269   9.243  0.5007  1.2788  2.1272
  145SAPE  H13Y15987   5.520   3.138   9.356  1.4443  1.6128  1.0898
  145SAPE  C31415988   5.550   3.070   9.147 -0.2292  0.6112 -0.2999
  145SAPE  H14X15989   5.439   3.068   9.149 -0.2241 -0.7384  2.1134
  145SAPE  H14Y15990   5.592   2.968   9.161  0.7008  0.8031 -1.5480
  145SAPE  C31515991   5.601   3.119   9.018 -0.3767 -0.1090 -0.3311
  145SAPE  H15X15992   5.650   3.029   8.976 -0.6274  0.5825 -2.2081
  145SAPE  H15Y15993   5.673   3.202   9.032 -1.1119  0.8957 -2.1690
  145SAPE  C31615994   5.490   3.176   8.924  0.2853 -0.0077  0.0825
  145SAPE  H16X15995   5.550   3.223   8.843  3.2599 -2.1165  0.9109
  145SAPE  H16Y15996   5.435   3.258   8.976  1.4054  0.2446  0.9279
  145SAPE  C31715997   5.399   3.070   8.868 -0.1793 -0.1759  0.4733
  145SAPE  H17X15998   5.348   3.017   8.951 -0.5756 -0.4476  0.0579
  145SAPE  H17Y15999   5.456   2.989   8.818 -0.0584 -0.4233  1.0031
  145SAPE  C31816000   5.302   3.126   8.764 -0.0555 -0.1424  0.0097
  145SAPE  H18X16001   5.244   3.043   8.717 -0.8088 -1.3443  2.8771
  145SAPE  H18Y16002   5.358   3.176   8.682 -0.9067  0.6128 -0.1261
  145SAPE  H18Z16003   5.224   3.186   8.816 -0.2804 -0.1983 -0.2613
  146SAPE     N16004   1.763   1.891  10.837 -0.2257 -0.3122  0.4209
  146SAPE   HN116005   1.739   1.990  10.853  1.4647  0.1791  0.1330
  146SAPE   HN216006   1.679   1.841  10.800  0.3661 -0.3947 -0.8803
  146SAPE   HN316007   1.776   1.848  10.931 -1.6237 -1.6640  0.0477
  146SAPE   C1216008   1.883   1.896  10.748 -0.7089 -0.0997  0.1345
  146SAPE  H12A16009   1.906   1.797  10.703  0.4514  0.6907 -1.0843
  146SAPE  H12B16010   1.972   1.924  10.807  0.7380 -4.0952  0.1546
  146SAPE   C1116011   1.858   1.994  10.630  0.3872  0.0305 -0.6049
  146SAPE  H11A16012   1.761   1.958  10.591  0.4540 -0.0877 -0.6602
  146SAPE  H11B16013   1.941   1.991  10.557  1.0011 -2.6231  0.1075
  146SAPE     P16014   1.706   2.201  10.696 -0.0055 -0.2367 -0.0161
  146SAPE   O1316015   1.608   2.107  10.747 -0.4017  0.1538 -0.4096
  146SAPE   O1416016   1.728   2.323  10.771  0.5071  0.4303 -0.4749
  146SAPE   O1216017   1.844   2.126  10.682  0.3988 -0.1692 -0.3154
  146SAPE   O1116018   1.678   2.235  10.548  0.2537 -0.3415 -0.0800
  146SAPE    C116019   1.776   2.297  10.458 -0.0060 -0.3060 -0.4818
  146SAPE    HA16020   1.832   2.370  10.520 -0.1331 -0.6613  0.0571
  146SAPE    HB16021   1.847   2.220  10.420 -0.4374 -0.8727 -0.1464
  146SAPE    C216022   1.725   2.378  10.337 -0.1447 -0.0940 -0.4305
  146SAPE    HS16023   1.646   2.443  10.381 -1.3596 -1.4709 -0.4969
  146SAPE   O2116024   1.681   2.287  10.237 -0.5575 -0.0826  0.2299
  146SAPE   C2116025   1.559   2.311  10.190  0.0826  0.3124 -0.4298
  146SAPE   O2216026   1.480   2.393  10.229 -0.6738 -0.3333  0.1698
  146SAPE   C2216027   1.539   2.221  10.069 -0.7627  0.3843  1.1495
  146SAPE   H2R16028   1.580   2.120  10.091  1.6735  1.2505  0.9621
  146SAPE   H2S16029   1.429   2.212  10.057 -0.5898  1.3520 -2.0716
  146SAPE    C316030   1.834   2.471  10.281 -0.0011 -0.4681 -0.0417
  146SAPE    HX16031   1.928   2.414  10.266 -0.0306 -0.9296  1.3439
  146SAPE    HY16032   1.860   2.550  10.355  0.9305 -1.6825  0.9892
  146SAPE   O3116033   1.785   2.533  10.162  0.1298  0.0625 -0.0236
  146SAPE   C3116034   1.726   2.647  10.169 -0.4953 -0.6585  0.0684
  146SAPE   O3216035   1.709   2.703  10.279 -0.0920 -0.1937 -0.3355
  146SAPE   C3216036   1.674   2.696  10.032  0.9606  0.0244 -0.6619
  146SAPE   H2X16037   1.661   2.806  10.040  2.4335  0.0731  2.9949
  146SAPE   H2Y16038   1.578   2.642  10.021 -0.5027  2.1378  1.1101
  146SAPE   C2316039   1.594   2.290   9.940 -0.2337  0.2289  0.0919
  146SAPE   H3R16040   1.702   2.313   9.952  0.5066 -0.4016 -3.9506
  146SAPE   H3S16041   1.537   2.385   9.929  0.2192  0.4893 -0.0144
  146SAPE   C2416042   1.568   2.214   9.811  0.0892  0.6258 -0.4325
  146SAPE   H4R16043   1.607   2.111   9.826 -2.2919 -0.0087  2.5043
  146SAPE   H4S16044   1.623   2.268   9.732  0.5475  2.2770  0.9467
  146SAPE   C2516045   1.418   2.210   9.783  0.1728 -0.3715  0.1085
  146SAPE   H5R16046   1.356   2.194   9.872  1.2393 -3.4088  0.4242
  146SAPE   C2616047   1.362   2.223   9.661  0.0537 -0.2873 -0.1457
  146SAPE   H6R16048   1.253   2.217   9.654  0.1789 -1.8412 -1.2681
  146SAPE   C2716049   1.428   2.238   9.524  0.1671 -0.2284 -0.1651
  146SAPE   H7R16050   1.537   2.217   9.516 -0.0603 -1.3314 -0.6544
  146SAPE   H7S16051   1.409   2.346   9.505 -2.3273 -0.6538 -0.3847
  146SAPE   C2816052   1.357   2.155   9.419 -0.2074 -0.6242  0.3806
  146SAPE   H8R16053   1.323   2.057   9.457  0.2233  0.1986  3.1115
  146SAPE   C2916054   1.323   2.190   9.292  0.2784 -0.2553 -0.0076
  146SAPE   H9R16055   1.244   2.136   9.239 -0.9569 -0.9161  2.3727
  146SAPE  C21016056   1.350   2.330   9.242 -0.2452 -0.2293 -0.0431
  146SAPE  H10R16057   1.413   2.309   9.153  1.0009 -1.0019  0.9939
  146SAPE  H10S16058   1.409   2.397   9.308  0.8560 -0.0207 -1.2012
  146SAPE  C21116059   1.230   2.407   9.204 -0.0802  0.3331 -0.0894
  146SAPE  H11R16060   1.177   2.451   9.289  1.6700 -0.0434  1.2485
  146SAPE  C21216061   1.177   2.434   9.082 -0.6125  0.3836  0.4326
  146SAPE  H12R16062   1.079   2.484   9.077 -0.7411  0.1767  0.8307
  146SAPE  C21316063   1.230   2.384   8.947 -0.2544  0.4534 -0.4391
  146SAPE  H13R16064   1.197   2.280   8.926  0.5129 -0.4284  2.4012
  146SAPE  H13S16065   1.341   2.380   8.949 -0.1711 -1.9744 -3.1879
  146SAPE  C21416066   1.179   2.470   8.834  0.6395 -0.2793  0.0749
  146SAPE  H14R16067   1.205   2.577   8.840 -1.3236  0.2117  0.4171
  146SAPE  C21516068   1.114   2.430   8.718  0.4584 -0.9856  0.0807
  146SAPE  H15R16069   1.093   2.505   8.641 -2.4306 -1.5139  0.2389
  146SAPE  C21616070   1.084   2.287   8.682  0.9608 -0.7197 -0.1447
  146SAPE  H16R16071   0.983   2.292   8.637 -0.4090  1.0650  2.8388
  146SAPE  H16S16072   1.068   2.222   8.770  0.7047 -2.8032 -1.6656
  146SAPE  C21716073   1.189   2.227   8.585 -0.7619 -0.3181 -0.4240
  146SAPE  H17R16074   1.185   2.118   8.562  1.0841 -0.1503 -1.7360
  146SAPE  H17S16075   1.286   2.239   8.636 -1.3396 -1.4803  1.0070
  146SAPE  C21816076   1.202   2.313   8.458 -0.1686  0.9998  0.0696
  146SAPE  H18R16077   1.288   2.272   8.401 -0.8401 -0.7018  0.2226
  146SAPE  H18S16078   1.220   2.418   8.489 -1.7048  0.6586  2.2763
  146SAPE  C21916079   1.075   2.323   8.367 -0.4525  0.2506  0.8234
  146SAPE  H19R16080   1.098   2.398   8.289  0.0402 -0.4818  0.2473
  146SAPE  H19S16081   0.988   2.356   8.428 -1.2281  0.8350 -0.5605
  146SAPE  C22016082   1.036   2.188   8.308  0.2333 -0.4931 -0.0142
  146SAPE  H20R16083   0.948   2.187   8.240 -0.1535 -1.9268  0.4662
  146SAPE  H20S16084   1.010   2.129   8.399 -0.5868  0.1571  0.1954
  146SAPE  H20T16085   1.114   2.135   8.250 -0.4995 -1.0641 -0.4937
  146SAPE   C3316086   1.783   2.694   9.920  0.0590  0.0111  0.0178
  146SAPE   H3X16087   1.824   2.591   9.915 -0.3789 -0.1286 -0.7804
  146SAPE   H3Y16088   1.866   2.761   9.952  0.9017  0.3629 -2.6846
  146SAPE   C3416089   1.732   2.734   9.782  0.3478  0.2652 -0.3744
  146SAPE   H4X16090   1.815   2.723   9.709  0.8998 -0.8797  0.3849
  146SAPE   H4Y16091   1.700   2.840   9.791  0.5882  0.1855  2.1247
  146SAPE   C3516092   1.621   2.642   9.725 -0.1692 -0.2783 -0.2154
  146SAPE   H5X16093   1.533   2.686   9.778 -1.6055 -1.6941 -1.3411
  146SAPE   H5Y16094   1.637   2.537   9.756  3.8114  0.3758  0.4745
  146SAPE   C3616095   1.603   2.648   9.569  0.1725 -0.4580  0.0601
  146SAPE   H6X16096   1.511   2.592   9.542  1.2537 -2.1393 -0.3476
  146SAPE   H6Y16097   1.684   2.589   9.521  0.7620  0.5884 -0.2673
  146SAPE   C3716098   1.602   2.794   9.514 -0.3852  0.1510 -0.4134
  146SAPE   H7X16099   1.701   2.837   9.541 -0.5389  1.0709 -1.2793
  146SAPE   H7Y16100   1.525   2.851   9.570  0.6432  2.1060 -0.9129
  146SAPE   C3816101   1.578   2.825   9.368  0.5381  0.0252  0.7168
  146SAPE   H8X16102   1.556   2.934   9.364 -0.6569 -0.2182 -0.0112
  146SAPE   H8Y16103   1.483   2.777   9.335 -0.8662  0.9466  3.1880
  146SAPE   C3916104   1.687   2.784   9.265  0.9269  0.3105 -0.3963
  146SAPE   H9X16105   1.709   2.677   9.281  0.7299  0.4475  0.9117
  146SAPE   H9Y16106   1.779   2.843   9.286  1.6542 -0.8758 -0.1745
  146SAPE  C31016107   1.644   2.799   9.117  0.4273  0.0438  0.2359
  146SAPE  H10X16108   1.730   2.785   9.048  0.4721 -0.5801  0.4051
  146SAPE  H10Y16109   1.613   2.903   9.096 -0.6205 -0.3326 -0.1223
  146SAPE  C31116110   1.536   2.692   9.075  0.3342  0.3618 -0.7559
  146SAPE  H11X16111   1.439   2.709   9.127 -0.4359 -2.0848 -1.2424
  146SAPE  H11Y16112   1.574   2.600   9.125  1.2842  1.0473 -0.1673
  146SAPE  C31216113   1.505   2.663   8.936  0.9715 -0.2237 -0.1765
  146SAPE  H12X16114   1.424   2.589   8.918  0.6751  0.4786 -1.9364
  146SAPE  H12Y16115   1.591   2.615   8.884  0.3958  1.1561 -2.5298
  146SAPE  C31316116   1.462   2.788   8.857 -0.4380  0.5814 -0.5785
  146SAPE  H13X16117   1.542   2.865   8.854  0.5691 -0.4299 -0.3163
  146SAPE  H13Y16118   1.375   2.832   8.910 -0.8928  0.0712 -0.8952
  146SAPE  C31416119   1.435   2.740   8.716  0.2686 -0.5110  0.4220
  146SAPE  H14X16120   1.364   2.656   8.700  0.5237 -0.4348 -1.3324
  146SAPE  H14Y16121   1.531   2.706   8.672  1.3152 -0.8779  2.8554
  146SAPE  C31516122   1.361   2.848   8.626 -0.5415  0.3584 -0.2689
  146SAPE  H15X16123   1.429   2.934   8.606 -0.0676 -0.1027 -0.6754
  146SAPE  H15Y16124   1.271   2.885   8.680 -1.3367 -2.0044  0.1576
  146SAPE  C31616125   1.318   2.791   8.490  0.9704 -0.0370  0.2337
  146SAPE  H16X16126   1.255   2.706   8.524  2.0970  0.4754  3.9613
  146SAPE  H16Y16127   1.412   2.760   8.439  0.9337  0.5772 -0.2207
  146SAPE  C31716128   1.234   2.894   8.416 -0.3653  0.2070 -0.1615
  146SAPE  H17X16129   1.299   2.983   8.401  0.2747 -0.2157  0.0354
  146SAPE  H17Y16130   1.140   2.920   8.467 -1.6493 -0.4321 -2.0952
  146SAPE  C31816131   1.178   2.840   8.285  0.0970 -0.5024 -0.1728
  146SAPE  H18X16132   1.118   2.748   8.300 -3.2854  1.0516 -2.6331
  146SAPE  H18Y16133   1.249   2.809   8.205 -2.8354 -0.3318 -3.0592
  146SAPE  H18Z16134   1.113   2.922   8.246  2.1063  1.2356 -0.0278
  147SAPE     N16135   3.589   2.836   6.041  0.5089 -0.2358 -0.1716
  147SAPE   HN116136   3.531   2.922   6.044 -2.3569 -2.0660  0.2572
  147SAPE   HN216137   3.596   2.795   6.136  3.0613  0.1373 -0.1176
  147SAPE   HN316138   3.683   2.846   5.997 -0.2716  1.3322 -1.6075
  147SAPE   C1216139   3.518   2.732   5.971  0.6161  0.1548  0.3045
  147SAPE  H12A16140   3.577   2.653   5.921  0.5719 -0.5785  1.3902
  147SAPE  H12B16141   3.459   2.783   5.892  0.7055 -0.8008 -0.3857
  147SAPE   C1116142   3.411   2.673   6.062  1.1837 -0.0377  0.4647
  147SAPE  H11A16143   3.350   2.602   6.004 -2.1653  1.8884  1.3614
  147SAPE  H11B16144   3.342   2.759   6.074  1.8338  1.0704 -2.7921
  147SAPE     P16145   3.383   2.525   6.270  0.4835  0.2938 -0.1592
  147SAPE   O1316146   3.400   2.386   6.221  0.2859 -0.6374 -0.0528
  147SAPE   O1416147   3.412   2.545   6.411  0.4638  0.0319  0.1030
  147SAPE   O1216148   3.468   2.616   6.183 -0.2284 -0.2694  0.2718
  147SAPE   O1116149   3.230   2.560   6.245  0.0129 -0.0184 -0.3256
  147SAPE    C116150   3.171   2.665   6.329 -1.0072  0.5539  0.2264
  147SAPE    HA16151   3.247   2.742   6.353  0.8160 -1.0339 -0.1148
  147SAPE    HB16152   3.097   2.715   6.265 -0.5673 -2.3920 -2.8935
  147SAPE    C216153   3.117   2.621   6.465  0.6380  0.4788 -0.3400
  147SAPE    HS16154   3.211   2.613   6.524  0.0883  0.9716  0.6237
  147SAPE   O2116155   3.052   2.491   6.461 -0.2846  0.4750  0.8384
  147SAPE   C2116156   3.060   2.420   6.581 -0.0791  0.5484  0.2655
  147SAPE   O2216157   3.124   2.444   6.678  0.2839  0.3333 -0.1365
  147SAPE   C2216158   2.964   2.304   6.569  0.2507 -0.0069 -0.7889
  147SAPE   H2R16159   2.932   2.289   6.464  2.0546  0.9114 -1.5100
  147SAPE   H2S16160   3.018   2.214   6.606  0.9449  1.0453  0.8788
  147SAPE    C316161   3.015   2.734   6.524 -1.6479  0.6279 -0.3916
  147SAPE    HX16162   2.933   2.725   6.450 -0.9415 -1.2825 -1.0041
  147SAPE    HY16163   3.047   2.840   6.530 -0.3943  0.1791  2.5237
  147SAPE   O3116164   2.977   2.700   6.662 -0.0057  0.2635 -0.2647
  147SAPE   C3116165   3.062   2.745   6.751 -0.1830 -0.9873  0.6270
  147SAPE   O3216166   3.158   2.816   6.729  0.8824 -0.3134 -0.2193
  147SAPE   C3216167   3.008   2.693   6.890 -0.2514 -0.4856 -0.4355
  147SAPE   H2X16168   2.993   2.583   6.886  2.2496 -0.8721 -1.7184
  147SAPE   H2Y16169   2.912   2.735   6.926 -0.0821 -2.6835  3.0234
  147SAPE   C2316170   2.853   2.314   6.682  0.1752 -0.1486 -0.9782
  147SAPE   H3R16171   2.908   2.324   6.778 -0.9487 -0.1738 -0.3102
  147SAPE   H3S16172   2.792   2.222   6.678 -2.3208  1.4527 -4.0391
  147SAPE   C2416173   2.742   2.425   6.678 -0.3348  0.0886 -0.2248
  147SAPE   H4R16174   2.700   2.415   6.575 -1.0301  0.7538 -0.0142
  147SAPE   H4S16175   2.788   2.526   6.683  0.7503 -0.4494  1.9190
  147SAPE   C2516176   2.629   2.395   6.779 -0.0500  0.2451  0.1695
  147SAPE   H5R16177   2.567   2.310   6.748  1.5712 -0.6974 -0.6017
  147SAPE   C2616178   2.584   2.453   6.896 -0.7916 -0.9131 -0.4014
  147SAPE   H6R16179   2.498   2.405   6.945 -1.1190 -0.2481 -0.3039
  147SAPE   C2716180   2.638   2.573   6.962 -0.5836 -0.2771 -0.5356
  147SAPE   H7R16181   2.695   2.638   6.892  1.0711  0.0132  1.0078
  147SAPE   H7S16182   2.710   2.558   7.044  1.3555  0.1108 -2.0860
  147SAPE   C2816183   2.526   2.653   7.021 -0.3454 -0.0954  0.6363
  147SAPE   H8R16184   2.433   2.652   6.962  0.0934  0.1871 -0.0806
  147SAPE   C2916185   2.535   2.735   7.127  0.2425 -0.3434  0.6788
  147SAPE   H9R16186   2.445   2.793   7.152 -0.3243  0.2721 -2.3577
  147SAPE  C21016187   2.651   2.762   7.216  0.0314 -0.4555 -0.1534
  147SAPE  H10R16188   2.631   2.857   7.270 -0.0585 -1.3845  1.5373
  147SAPE  H10S16189   2.741   2.772   7.152  1.9700 -0.5993  2.3759
  147SAPE  C21116190   2.671   2.653   7.324 -0.1921  0.1299 -0.5021
  147SAPE  H11R16191   2.598   2.571   7.317  0.2013 -0.2909  0.2020
  147SAPE  C21216192   2.771   2.646   7.419  0.4358  0.5024  0.6724
  147SAPE  H12R16193   2.760   2.565   7.494 -1.5856 -0.3196 -0.4132
  147SAPE  C21316194   2.884   2.742   7.449 -0.7757 -0.5493 -0.0355
  147SAPE  H13R16195   2.866   2.810   7.536 -2.1897  1.7829 -2.0164
  147SAPE  H13S16196   2.885   2.822   7.371  1.1833  1.7526  2.1450
  147SAPE  C21416197   3.018   2.671   7.465  0.3128  0.8811  0.9130
  147SAPE  H14R16198   3.080   2.651   7.376 -0.1756 -1.8934  1.1352
  147SAPE  C21516199   3.071   2.644   7.586  0.0034  0.3372  0.2696
  147SAPE  H15R16200   3.157   2.575   7.591  0.5427  0.8170 -1.6329
  147SAPE  C21616201   3.002   2.672   7.724 -0.0720 -0.0003  0.9224
  147SAPE  H16R16202   2.892   2.680   7.734  0.0611  2.7934  0.8705
  147SAPE  H16S16203   3.030   2.774   7.758 -1.5305  1.3032 -1.4787
  147SAPE  C21716204   3.064   2.577   7.833  0.8052  0.9229 -0.0020
  147SAPE  H17R16205   3.174   2.569   7.816  0.4364 -1.9121 -1.7747
  147SAPE  H17S16206   3.030   2.472   7.828  1.7781  0.6051 -0.2444
  147SAPE  C21816207   3.038   2.627   7.981  0.2143 -0.4057 -0.2439
  147SAPE  H18R16208   2.931   2.656   7.986 -0.1037 -1.6712  1.1783
  147SAPE  H18S16209   3.107   2.712   7.997  1.6419 -1.2775 -1.5606
  147SAPE  C21916210   3.055   2.512   8.083 -0.1143 -0.1599  0.5021
  147SAPE  H19R16211   3.158   2.474   8.066  1.5470  3.6000  0.9428
  147SAPE  H19S16212   2.989   2.433   8.041  0.5977 -1.2051  1.3017
  147SAPE  C22016213   3.014   2.566   8.217 -0.3250 -0.7121 -1.1451
  147SAPE  H20R16214   2.991   2.488   8.293 -2.9417  0.0334 -1.0731
  147SAPE  H20S16215   2.916   2.616   8.203 -1.5027 -2.0877  1.5353
  147SAPE  H20T16216   3.089   2.640   8.253 -1.2116 -0.3758  0.0729
  147SAPE   C3316217   3.101   2.719   7.004  0.0901  0.3100 -0.2481
  147SAPE   H3X16218   3.194   2.660   6.987 -0.5875 -1.8057  2.6401
  147SAPE   H3Y16219   3.056   2.688   7.100 -3.7841 -0.8205 -2.2526
  147SAPE   C3416220   3.136   2.864   7.034 -0.1499  0.0146  0.7304
  147SAPE   H4X16221   3.128   2.928   6.944  0.9168  0.1092  0.6905
  147SAPE   H4Y16222   3.244   2.858   7.060  0.5208  0.6923 -1.6118
  147SAPE   C3516223   3.063   2.935   7.150 -0.2575  0.4126  0.0429
  147SAPE   H5X16224   3.104   2.874   7.234  0.1230  0.7144  0.0775
  147SAPE   H5Y16225   2.953   2.922   7.144 -0.4284  0.1808  2.5300
  147SAPE   C3616226   3.112   3.077   7.187 -0.2370 -0.5831 -0.3168
  147SAPE   H6X16227   3.073   3.136   7.102 -1.0509 -1.1738 -0.3726
  147SAPE   H6Y16228   3.223   3.084   7.187 -0.1778 -0.9159  1.7284
  147SAPE   C3716229   3.071   3.140   7.321  0.2533 -0.0806  0.3974
  147SAPE   H7X16230   2.961   3.157   7.326 -0.4718 -3.6106 -0.9629
  147SAPE   H7Y16231   3.107   3.246   7.328  0.7083 -0.2862  1.4229
  147SAPE   C3816232   3.118   3.072   7.449  0.9001  0.0392  0.5445
  147SAPE   H8X16233   3.227   3.050   7.456  1.1368  0.9955  0.1312
  147SAPE   H8Y16234   3.056   2.981   7.461  0.1865  0.4241 -0.1747
  147SAPE   C3916235   3.107   3.160   7.578 -0.2188 -0.3026  0.5250
  147SAPE   H9X16236   3.013   3.220   7.579 -1.3424 -1.7207 -3.4779
  147SAPE   H9Y16237   3.189   3.235   7.569 -0.8936  0.1932 -4.1125
  147SAPE  C31016238   3.116   3.089   7.712  0.3822 -0.0050  0.3644
  147SAPE  H10X16239   3.186   3.003   7.715 -0.5691 -0.7686  1.2469
  147SAPE  H10Y16240   3.014   3.045   7.719 -0.8019  2.3808 -0.6114
  147SAPE  C31116241   3.150   3.175   7.831  0.5728 -0.0537 -0.1063
  147SAPE  H11X16242   3.067   3.249   7.837 -0.0301 -0.7480  0.2090
  147SAPE  H11Y16243   3.246   3.227   7.807  0.6738  0.5719  1.5215
  147SAPE  C31216244   3.164   3.092   7.959 -0.4776 -0.2855 -0.2619
  147SAPE  H12X16245   3.256   3.031   7.955 -0.6270 -0.4272 -2.1213
  147SAPE  H12Y16246   3.084   3.015   7.958 -1.3775  0.6164 -1.5106
  147SAPE  C31316247   3.162   3.179   8.087  0.1414 -0.0268 -0.2686
  147SAPE  H13X16248   3.058   3.218   8.088 -0.7053 -2.1214 -0.1380
  147SAPE  H13Y16249   3.226   3.270   8.085 -0.6399  0.5209 -0.9037
  147SAPE  C31416250   3.198   3.103   8.211  0.5722  0.6083  0.7656
  147SAPE  H14X16251   3.283   3.036   8.186 -0.0284  0.5091 -1.0926
  147SAPE  H14Y16252   3.115   3.040   8.250 -1.1190  2.5945  0.5229
  147SAPE  C31516253   3.257   3.192   8.317  0.4342  0.1255  0.1054
  147SAPE  H15X16254   3.188   3.274   8.348 -3.1694 -2.6897  0.1685
  147SAPE  H15Y16255   3.354   3.234   8.283  0.0164  0.4881 -0.6537
  147SAPE  C31616256   3.299   3.110   8.442 -0.0365 -0.0040  0.4180
  147SAPE  H16X16257   3.350   3.018   8.407  3.4894  1.7281  0.5655
  147SAPE  H16Y16258   3.200   3.081   8.483 -0.9239 -1.9579 -2.7817
  147SAPE  C31716259   3.395   3.188   8.537  0.9270 -1.0324 -0.2583
  147SAPE  H17X16260   3.475   3.235   8.476  1.0635 -2.8251 -1.5556
  147SAPE  H17Y16261   3.441   3.117   8.609 -0.5057 -0.6299  1.1213
  147SAPE  C31816262   3.322   3.304   8.610  0.9256 -0.4605  0.3368
  147SAPE  H18X16263   3.353   3.327   8.714 -0.7118 -0.2423  0.7997
  147SAPE  H18Y16264   3.215   3.277   8.621  0.6640  0.2344 -0.3851
  147SAPE  H18Z16265   3.336   3.401   8.558 -1.8676 -0.2412 -0.1443
  148SAPE     N16266   3.108   5.799   6.332 -0.2762 -0.0846 -0.1596
  148SAPE   HN116267   3.097   5.718   6.267 -1.7745  1.2419 -1.6669
  148SAPE   HN216268   3.026   5.860   6.311  1.3608  1.8817 -1.2705
  148SAPE   HN316269   3.191   5.855   6.305 -1.1378  1.1713 -0.3151
  148SAPE   C1216270   3.134   5.767   6.478 -0.0255 -0.0386  0.0532
  148SAPE  H12A16271   3.228   5.710   6.484 -1.6326 -2.7556  1.1743
  148SAPE  H12B16272   3.062   5.688   6.510  0.1653 -0.4503 -0.5165
  148SAPE   C1116273   3.144   5.883   6.579  0.5551 -0.4431  0.7805
  148SAPE  H11A16274   3.164   5.845   6.682 -0.7804 -1.8074  0.5622
  148SAPE  H11B16275   3.048   5.936   6.598  0.4829 -0.5819  0.8082
  148SAPE     P16276   3.247   6.125   6.557  0.0855  0.4881  0.0182
  148SAPE   O1316277   3.375   6.180   6.511  0.6143 -0.6329  0.0972
  148SAPE   O1416278   3.119   6.189   6.515  0.9227 -0.2119  0.3004
  148SAPE   O1216279   3.243   5.977   6.518  0.2977  0.0657  0.1452
  148SAPE   O1116280   3.236   6.115   6.712  0.7679 -0.3330  0.1323
  148SAPE    C116281   3.330   6.062   6.807 -0.4225  0.0761  0.3304
  148SAPE    HA16282   3.353   5.956   6.780  1.2923  0.3522  0.5724
  148SAPE    HB16283   3.427   6.117   6.807 -0.4693  0.1914  1.4803
  148SAPE    C216284   3.273   6.062   6.957 -0.4836  0.3445  0.5317
  148SAPE    HS16285   3.357   6.046   7.028  1.0625  0.8241 -1.1295
  148SAPE   O2116286   3.181   5.956   6.955 -0.0214 -0.5580  0.0860
  148SAPE   C2116287   3.174   5.880   7.070 -0.0583  1.0051 -0.0567
  148SAPE   O2216288   3.249   5.882   7.166 -0.2685  0.3809  0.0944
  148SAPE   C2216289   3.060   5.769   7.052 -0.3029  0.0898  0.1163
  148SAPE   H2R16290   2.972   5.809   6.997 -2.1097 -1.7454  1.5100
  148SAPE   H2S16291   3.106   5.696   6.982  2.0847  0.2718  1.4017
  148SAPE    C316292   3.204   6.194   6.996 -0.6170  0.4614  0.2520
  148SAPE    HX16293   3.118   6.206   6.927  1.0562  0.5188 -1.9185
  148SAPE    HY16294   3.263   6.283   6.968 -1.5245  1.3988  1.2051
  148SAPE   O3116295   3.148   6.190   7.134 -0.3200 -0.0224  0.4738
  148SAPE   C3116296   3.167   6.302   7.209  0.2407  0.2665  0.2891
  148SAPE   O3216297   3.189   6.413   7.171  0.1997 -0.5426  0.7269
  148SAPE   C3216298   3.157   6.256   7.357  0.3458  0.6025 -0.2201
  148SAPE   H2X16299   3.210   6.159   7.357  1.8395  1.3598  1.3171
  148SAPE   H2Y16300   3.051   6.240   7.385  0.2943 -1.6496 -1.4913
  148SAPE   C2316301   3.014   5.712   7.189  0.6046 -0.2004  0.0480
  148SAPE   H3R16302   2.923   5.650   7.172  1.6721 -1.3035 -2.0972
  148SAPE   H3S16303   2.988   5.794   7.259 -1.1694 -1.5545  1.0716
  148SAPE   C2416304   3.115   5.618   7.264  0.2305  0.4455  0.0121
  148SAPE   H4R16305   3.213   5.666   7.288  1.4564 -2.9379  2.7019
  148SAPE   H4S16306   3.126   5.529   7.198 -2.6317 -0.4431  0.6121
  148SAPE   C2516307   3.051   5.570   7.395  0.5394  0.2325  0.5033
  148SAPE   H5R16308   2.943   5.550   7.396  0.8918 -2.0349  2.7293
  148SAPE   C2616309   3.120   5.554   7.507 -0.0784 -0.0238 -0.0506
  148SAPE   H6R16310   3.063   5.523   7.596 -0.8714 -2.3012 -1.2684
  148SAPE   C2716311   3.267   5.600   7.516  0.7184  0.1891 -0.3119
  148SAPE   H7R16312   3.322   5.590   7.420 -2.1091 -0.7426 -1.9529
  148SAPE   H7S16313   3.312   5.524   7.584 -1.0280  0.9549  1.8241
  148SAPE   C2816314   3.264   5.743   7.567  0.3763  0.1639 -0.5453
  148SAPE   H8R16315   3.215   5.815   7.501 -0.0660  0.0609 -0.3334
  148SAPE   C2916316   3.309   5.787   7.690  0.1958 -0.1121  0.4013
  148SAPE   H9R16317   3.313   5.895   7.709  1.1622 -0.0998  0.1605
  148SAPE  C21016318   3.373   5.692   7.786 -0.3794 -0.0029 -0.1137
  148SAPE  H10R16319   3.476   5.735   7.790  0.6140 -2.2075 -0.7013
  148SAPE  H10S16320   3.391   5.589   7.749  0.0480 -0.4429  1.2510
  148SAPE  C21116321   3.313   5.681   7.926 -0.3149 -0.5599  0.6130
  148SAPE  H11R16322   3.223   5.741   7.944 -1.7561 -1.8733 -1.7007
  148SAPE  C21216323   3.381   5.628   8.038 -0.4574 -0.2358  0.0300
  148SAPE  H12R16324   3.336   5.623   8.138  3.0191  0.6443  1.7940
  148SAPE  C21316325   3.525   5.576   8.036  0.2613  0.4519 -0.0096
  148SAPE  H13R16326   3.605   5.640   8.080 -0.3564  1.1423  0.1223
  148SAPE  H13S16327   3.563   5.567   7.932 -4.4544  0.2174 -1.9200
  148SAPE  C21416328   3.520   5.446   8.108  0.3848 -0.5257 -0.3181
  148SAPE  H14R16329   3.441   5.374   8.082 -0.9290 -0.1426  2.2734
  148SAPE  C21516330   3.599   5.408   8.212 -0.1733 -0.0574  0.7435
  148SAPE  H15R16331   3.584   5.314   8.267 -0.2357 -1.4453 -1.5238
  148SAPE  C21616332   3.699   5.487   8.281  0.3813  0.6601 -0.0477
  148SAPE  H16R16333   3.658   5.578   8.329  0.0877  1.2515 -1.3598
  148SAPE  H16S16334   3.787   5.513   8.218  1.6814 -0.6755  1.1528
  148SAPE  C21716335   3.758   5.398   8.395  0.0316  0.8044 -0.4013
  148SAPE  H17R16336   3.827   5.469   8.447  0.7779  1.1134 -1.7615
  148SAPE  H17S16337   3.834   5.323   8.365  1.0220  0.9197  1.6598
  148SAPE  C21816338   3.658   5.363   8.505 -0.2848  0.3141 -0.9874
  148SAPE  H18R16339   3.570   5.302   8.475  1.3795 -3.0856  0.5488
  148SAPE  H18S16340   3.615   5.457   8.548 -0.6577  0.5412 -1.8468
  148SAPE  C21916341   3.722   5.280   8.624 -0.0679 -0.4746 -0.2907
  148SAPE  H19R16342   3.770   5.185   8.592  0.0522  0.5182 -3.3284
  148SAPE  H19S16343   3.646   5.262   8.703 -0.8913  1.2752 -0.6319
  148SAPE  C22016344   3.827   5.364   8.692 -1.1829 -0.4883  0.2975
  148SAPE  H20R16345   3.896   5.404   8.615 -1.3661 -0.6813  0.0332
  148SAPE  H20S16346   3.889   5.309   8.766  3.2693  2.7021 -0.6150
  148SAPE  H20T16347   3.795   5.458   8.743 -0.4977  0.4201 -0.8843
  148SAPE   C3316348   3.228   6.352   7.464 -0.7852 -0.3924  0.3617
  148SAPE   H3X16349   3.166   6.443   7.480 -1.0302 -0.3294 -0.8425
  148SAPE   H3Y16350   3.324   6.385   7.419 -0.5725 -1.7879 -0.2653
  148SAPE   C3416351   3.250   6.290   7.608 -0.3478 -0.0144  0.6059
  148SAPE   H4X16352   3.343   6.336   7.647  1.1673  0.1003 -2.8182
  148SAPE   H4Y16353   3.273   6.185   7.579  0.7623 -0.1223  1.7892
  148SAPE   C3516354   3.132   6.292   7.704 -0.2500  0.8814 -0.0209
  148SAPE   H5X16355   3.044   6.252   7.649  0.4711 -0.8048  0.0187
  148SAPE   H5Y16356   3.112   6.396   7.739  1.0545  1.6726 -1.4699
  148SAPE   C3616357   3.156   6.197   7.816  1.0118  0.2455 -0.4849
  148SAPE   H6X16358   3.163   6.099   7.764  1.8345 -0.0837  0.2296
  148SAPE   H6Y16359   3.067   6.191   7.882  2.9629 -2.5273  2.2267
  148SAPE   C3716360   3.275   6.223   7.908 -0.2318  0.1335  0.4082
  148SAPE   H7X16361   3.276   6.326   7.949  3.0693 -0.0304  1.0314
  148SAPE   H7Y16362   3.368   6.220   7.847 -1.5089  0.5334 -1.6694
  148SAPE   C3816363   3.281   6.122   8.018  1.1827  0.3726 -0.3929
  148SAPE   H8X16364   3.277   6.016   7.985 -0.6999  1.1942 -3.1672
  148SAPE   H8Y16365   3.201   6.136   8.094  0.6751 -0.3525 -0.7829
  148SAPE   C3916366   3.415   6.146   8.097 -0.3203  0.2404  0.1510
  148SAPE   H9X16367   3.493   6.104   8.030 -0.2757 -1.9817  1.4958
  148SAPE   H9Y16368   3.416   6.079   8.186 -0.9480 -0.2550 -0.2034
  148SAPE  C31016369   3.440   6.290   8.127  0.1245  0.3776  0.5968
  148SAPE  H10X16370   3.342   6.332   8.159  0.3225  1.5184 -0.2134
  148SAPE  H10Y16371   3.493   6.354   8.053 -0.2583  0.9413  0.8036
  148SAPE  C31116372   3.524   6.306   8.253 -0.3896 -0.8071  0.6614
  148SAPE  H11X16373   3.625   6.261   8.242  1.3651  2.9372 -0.3183
  148SAPE  H11Y16374   3.488   6.242   8.337 -0.5406  0.9754  2.0327
  148SAPE  C31216375   3.537   6.450   8.312 -0.3660 -0.1416  0.2813
  148SAPE  H12X16376   3.431   6.483   8.321 -1.6756 -4.0059  1.3516
  148SAPE  H12Y16377   3.588   6.513   8.238 -0.3274 -2.3964 -1.7415
  148SAPE  C31316378   3.589   6.452   8.460  0.0166  0.2976  0.7608
  148SAPE  H13X16379   3.696   6.421   8.462  0.7978  2.5221 -1.5655
  148SAPE  H13Y16380   3.544   6.374   8.525  2.6792 -2.3789 -0.3271
  148SAPE  C31416381   3.572   6.586   8.527  0.3440 -0.2582 -0.3814
  148SAPE  H14X16382   3.472   6.581   8.576  1.0912 -2.0814  1.1193
  148SAPE  H14Y16383   3.570   6.651   8.438  0.6081 -0.9331 -0.8913
  148SAPE  C31516384   3.687   6.630   8.625  0.5052  0.0013 -0.0567
  148SAPE  H15X16385   3.784   6.625   8.572  1.8840 -1.9204  2.4411
  148SAPE  H15Y16386   3.700   6.561   8.711 -1.0072  1.9329  1.8591
  148SAPE  C31616387   3.678   6.778   8.663  0.2731  0.2947 -0.0622
  148SAPE  H16X16388   3.593   6.791   8.734 -0.5374  1.1237 -1.1395
  148SAPE  H16Y16389   3.663   6.854   8.583 -0.5179  1.7828  1.4356
  148SAPE  C31716390   3.800   6.818   8.753 -0.0518  0.1109 -0.8386
  148SAPE  H17X16391   3.797   6.928   8.765  1.4322  0.3537 -2.3521
  148SAPE  H17Y16392   3.893   6.795   8.697  0.7013  1.4268 -0.1627
  148SAPE  C31816393   3.805   6.754   8.893 -0.6724  0.0663  0.6853
  148SAPE  H18X16394   3.713   6.762   8.955 -1.6108 -0.9164 -0.5375
  148SAPE  H18Y16395   3.883   6.798   8.959  1.8099 -0.8493 -1.4379
  148SAPE  H18Z16396   3.841   6.650   8.882 -0.0236  0.4323 -1.1692
  149SAPE     N16397   1.854   5.110   6.567 -0.3683 -1.3036  0.6990
  149SAPE   HN116398   1.957   5.127   6.569 -0.4899 -0.0089 -1.2326
  149SAPE   HN216399   1.827   5.133   6.469 -1.7861 -0.3107  1.2948
  149SAPE   HN316400   1.795   5.176   6.621 -0.5356 -1.2087  0.4013
  149SAPE   C1216401   1.823   4.969   6.587 -1.1860  0.1216  0.0892
  149SAPE  H12A16402   1.830   4.958   6.698 -2.8678  0.6252  0.2815
  149SAPE  H12B16403   1.900   4.910   6.532  0.1424  1.2547  0.6876
  149SAPE   C1116404   1.684   4.927   6.529  0.2385  1.0752 -0.5777
  149SAPE  H11A16405   1.613   4.938   6.614  2.3953 -0.2580  1.5295
  149SAPE  H11B16406   1.687   4.819   6.501 -0.5262  0.4625  1.5006
  149SAPE     P16407   1.671   4.959   6.271 -0.3746 -0.1837  0.4574
  149SAPE   O1316408   1.623   5.056   6.173  0.5080 -0.3820  0.7604
  149SAPE   O1416409   1.810   4.927   6.244 -0.2534 -0.7918 -0.1978
  149SAPE   O1216410   1.645   5.010   6.421 -0.6263 -0.4125  1.0007
  149SAPE   O1116411   1.591   4.825   6.270 -0.5824  0.0757  0.0769
  149SAPE    C116412   1.450   4.824   6.249  0.1561  0.5933 -0.9232
  149SAPE    HA16413   1.391   4.918   6.257 -0.2628  0.2442  0.4860
  149SAPE    HB16414   1.428   4.784   6.148 -1.6043  0.3452 -0.4900
  149SAPE    C216415   1.376   4.727   6.358  0.7846 -0.5021 -0.1051
  149SAPE    HS16416   1.270   4.712   6.327  0.4842 -0.7259  0.9836
  149SAPE   O2116417   1.382   4.779   6.488  0.1473  1.0451  0.0858
  149SAPE   C2116418   1.286   4.852   6.528  0.3673 -0.4524 -0.5033
  149SAPE   O2216419   1.194   4.892   6.459  0.6906  0.2729 -0.2929
  149SAPE   C2216420   1.297   4.880   6.680  0.1880  0.3813  0.3257
  149SAPE   H2R16421   1.356   4.972   6.702  0.4911 -0.2211  2.2083
  149SAPE   H2S16422   1.194   4.893   6.721  0.2679  0.1922  0.5883
  149SAPE    C316423   1.440   4.587   6.347  0.4440 -0.2787  0.0681
  149SAPE    HX16424   1.550   4.604   6.356  0.5753 -0.5798 -0.8691
  149SAPE    HY16425   1.415   4.548   6.246  2.3866  1.0895 -1.0248
  149SAPE   O3116426   1.387   4.502   6.449 -0.5127  0.4801  0.3777
  149SAPE   C3116427   1.472   4.449   6.539 -0.5893 -0.1041  0.3878
  149SAPE   O3216428   1.591   4.468   6.553 -0.2051  0.1051  0.4230
  149SAPE   C3216429   1.385   4.363   6.635 -0.2117  0.2465 -0.7138
  149SAPE   H2X16430   1.366   4.264   6.588  1.0724  0.4312 -1.6942
  149SAPE   H2Y16431   1.288   4.414   6.653 -0.2325 -0.2044  0.5869
  149SAPE   C2316432   1.375   4.773   6.768  0.2361 -0.2924  0.1901
  149SAPE   H3R16433   1.466   4.739   6.714  1.7820  0.6790  2.0854
  149SAPE   H3S16434   1.321   4.676   6.777 -2.1696  0.7411 -1.7933
  149SAPE   C2416435   1.432   4.830   6.890  0.2017  0.4138 -0.3691
  149SAPE   H4R16436   1.472   4.931   6.868 -1.3265  1.2731  0.5983
  149SAPE   H4S16437   1.513   4.760   6.920 -1.6192 -0.9815  1.6452
  149SAPE   C2516438   1.333   4.852   7.000 -0.0952 -1.0702  0.2249
  149SAPE   H5R16439   1.248   4.908   6.960  1.0164 -0.4466 -1.3828
  149SAPE   C2616440   1.348   4.816   7.128  0.0686  0.2189 -0.5433
  149SAPE   H6R16441   1.266   4.849   7.194  0.2215  0.6915 -0.5881
  149SAPE   C2716442   1.458   4.750   7.203  0.0043  0.2717 -0.8053
  149SAPE   H7R16443   1.467   4.779   7.310  0.7521 -1.2152 -0.4382
  149SAPE   H7S16444   1.557   4.781   7.161  0.0638  1.2025 -0.0154
  149SAPE   C2816445   1.441   4.599   7.180 -0.0668  0.2715 -0.7091
  149SAPE   H8R16446   1.424   4.578   7.073  0.4316  0.6445 -0.8714
  149SAPE   C2916447   1.442   4.503   7.276  0.4709  0.2362  0.3529
  149SAPE   H9R16448   1.439   4.396   7.252  1.4419 -0.4489  2.9130
  149SAPE  C21016449   1.456   4.541   7.427 -0.3540  0.0065 -0.2360
  149SAPE  H10R16450   1.391   4.472   7.486  0.6395 -0.7924 -0.0443
  149SAPE  H10S16451   1.414   4.643   7.444 -0.2849 -0.0844  0.5430
  149SAPE  C21116452   1.599   4.531   7.468 -0.1942  0.5918  0.1494
  149SAPE  H11R16453   1.672   4.566   7.394 -1.5724  1.7328 -0.7373
  149SAPE  C21216454   1.648   4.474   7.576 -0.1802 -0.0540 -0.4989
  149SAPE  H12R16455   1.754   4.486   7.604 -0.3202 -0.1624  0.0878
  149SAPE  C21316456   1.569   4.419   7.697 -0.1463 -0.5855  0.9805
  149SAPE  H13R16457   1.596   4.313   7.713 -2.2436 -0.8238  3.5573
  149SAPE  H13S16458   1.465   4.410   7.658  1.2976 -0.9672 -3.4028
  149SAPE  C21416459   1.574   4.511   7.822  0.5471 -0.2872 -0.6168
  149SAPE  H14R16460   1.518   4.604   7.806 -1.0874 -1.2445 -0.6403
  149SAPE  C21516461   1.619   4.484   7.947  0.6704 -0.3022 -0.4879
  149SAPE  H15R16462   1.609   4.560   8.026 -1.1642 -1.7507  0.7615
  149SAPE  C21616463   1.683   4.357   7.991 -0.4444  0.1564  0.3312
  149SAPE  H16R16464   1.716   4.303   7.900 -2.6590 -0.2782 -0.2785
  149SAPE  H16S16465   1.609   4.289   8.039 -3.7525  2.1525 -1.6066
  149SAPE  C21716466   1.802   4.393   8.078 -0.3466  0.2662  0.3574
  149SAPE  H17R16467   1.883   4.444   8.021 -0.5594  1.8119  1.4059
  149SAPE  H17S16468   1.848   4.293   8.095 -3.4296 -1.3274  0.0285
  149SAPE  C21816469   1.771   4.459   8.210  0.1420 -0.4734  0.5426
  149SAPE  H18R16470   1.679   4.412   8.251 -0.4299  1.7121  1.9156
  149SAPE  H18S16471   1.746   4.565   8.190  0.9313 -0.3420  0.2453
  149SAPE  C21916472   1.893   4.464   8.302 -0.1389 -0.6212 -0.0580
  149SAPE  H19R16473   1.926   4.361   8.327 -1.8131 -1.7700 -2.1978
  149SAPE  H19S16474   1.858   4.509   8.397 -0.4741  0.7340 -0.8022
  149SAPE  C22016475   2.005   4.547   8.244 -0.5936 -0.2080 -0.7657
  149SAPE  H20R16476   2.089   4.572   8.313 -2.4109 -1.1428  1.9574
  149SAPE  H20S16477   1.961   4.642   8.206  0.7576  0.2880 -1.1445
  149SAPE  H20T16478   2.044   4.490   8.157 -1.6491 -1.6179 -0.3573
  149SAPE   C3316479   1.445   4.327   6.780 -0.8691  0.0092  1.0509
  149SAPE   H3X16480   1.459   4.419   6.841  2.3791  0.5665 -0.3099
  149SAPE   H3Y16481   1.550   4.295   6.764 -0.9017  0.3005  0.1892
  149SAPE   C3416482   1.355   4.231   6.850  0.0333  0.1673 -0.4203
  149SAPE   H4X16483   1.357   4.137   6.790  0.2255 -0.6375  0.8013
  149SAPE   H4Y16484   1.256   4.281   6.857 -0.2999 -0.4369 -0.7392
  149SAPE   C3516485   1.400   4.192   6.991 -0.1720  0.1170 -0.0780
  149SAPE   H5X16486   1.378   4.276   7.061 -0.1790  0.4528 -0.4803
  149SAPE   H5Y16487   1.509   4.170   6.991 -0.1797  0.0756  0.2785
  149SAPE   C3616488   1.331   4.065   7.047 -0.2126  0.1941 -0.4452
  149SAPE   H6X16489   1.389   3.977   7.013 -0.7456 -0.6055  0.6496
  149SAPE   H6Y16490   1.223   4.074   7.022 -0.7754 -0.6711  1.4490
  149SAPE   C3716491   1.326   4.067   7.202  0.7371 -0.6893 -0.4054
  149SAPE   H7X16492   1.279   3.975   7.245  1.5071 -1.0136 -0.2345
  149SAPE   H7Y16493   1.277   4.160   7.237 -0.1655 -1.7254  1.1809
  149SAPE   C3816494   1.466   4.070   7.268 -0.6967 -0.3056 -0.3318
  149SAPE   H8X16495   1.513   4.171   7.267  0.0611 -0.6211  0.8962
  149SAPE   H8Y16496   1.548   4.012   7.221  2.0746  3.1414 -0.1343
  149SAPE   C3916497   1.471   4.025   7.419 -0.5360 -0.1138  0.1930
  149SAPE   H9X16498   1.433   3.920   7.416  1.4926 -0.8885 -1.0559
  149SAPE   H9Y16499   1.397   4.088   7.473  0.4203  0.3542  0.9799
  149SAPE  C31016500   1.612   4.029   7.487  0.0254 -0.5362  0.8420
  149SAPE  H10X16501   1.658   4.129   7.473  2.8159 -1.6991  1.0394
  149SAPE  H10Y16502   1.682   3.950   7.451  1.5734  0.4276  1.6285
  149SAPE  C31116503   1.581   4.009   7.634  0.7489 -0.0738  0.7287
  149SAPE  H11X16504   1.528   3.911   7.643 -0.0547  0.3760  0.9967
  149SAPE  H11Y16505   1.514   4.090   7.669 -1.2004 -1.3388  0.0981
  149SAPE  C31216506   1.706   4.012   7.718  0.0870 -0.4913 -0.2559
  149SAPE  H12X16507   1.767   4.105   7.709  2.3527 -2.1119 -3.1012
  149SAPE  H12Y16508   1.778   3.933   7.688  0.7333  0.4699 -1.3573
  149SAPE  C31316509   1.672   3.988   7.866  0.4052 -0.1184 -0.3548
  149SAPE  H13X16510   1.594   3.909   7.858 -0.5055  0.8610 -1.4205
  149SAPE  H13Y16511   1.623   4.080   7.905  0.8617 -0.6776  1.6407
  149SAPE  C31416512   1.788   3.941   7.957  0.0009  0.2361 -0.7465
  149SAPE  H14X16513   1.870   4.013   7.939  0.0436  0.3450 -0.1648
  149SAPE  H14Y16514   1.821   3.848   7.905  0.5847 -0.1221  0.2382
  149SAPE  C31516515   1.748   3.903   8.098  0.7634  0.0917  0.2017
  149SAPE  H15X16516   1.662   3.832   8.094  0.9347 -0.0536 -2.6120
  149SAPE  H15Y16517   1.707   3.993   8.149  1.5180 -0.1455  1.2680
  149SAPE  C31616518   1.860   3.861   8.202  0.6793  0.0408 -0.1613
  149SAPE  H16X16519   1.812   3.832   8.298 -1.8272  0.4039 -1.2353
  149SAPE  H16Y16520   1.909   3.959   8.223 -1.4771  1.0710  0.2633
  149SAPE  C31716521   1.957   3.752   8.159  0.9410  0.4711  0.5260
  149SAPE  H17X16522   2.022   3.792   8.078  0.2381 -0.7598 -0.6767
  149SAPE  H17Y16523   1.896   3.675   8.109 -2.4212  1.8194  2.2216
  149SAPE  C31816524   2.033   3.689   8.274  0.0725  0.2984  0.4344
  149SAPE  H18X16525   2.065   3.768   8.345  0.9871  1.9417 -1.7148
  149SAPE  H18Y16526   2.118   3.622   8.246  1.2319  1.6173  0.6677
  149SAPE  H18Z16527   1.962   3.624   8.329 -2.0602  3.0478  1.1415
  150SAPE     N16528   1.017   3.371   6.199 -0.1880  0.3469 -0.3361
  150SAPE   HN116529   1.116   3.341   6.197  0.0515  1.1458 -0.6957
  150SAPE   HN216530   0.985   3.424   6.283 -0.2878  0.3406 -0.3693
  150SAPE   HN316531   0.970   3.279   6.208  0.8864 -0.2873 -1.0818
  150SAPE   C1216532   1.003   3.450   6.074 -0.9228  0.0250  0.0550
  150SAPE  H12A16533   1.039   3.395   5.984  0.0643  0.6989  0.0236
  150SAPE  H12B16534   1.051   3.548   6.091  0.7898 -0.9535  1.1959
  150SAPE   C1116535   0.854   3.486   6.048 -0.1650  0.2033 -0.6919
  150SAPE  H11A16536   0.798   3.392   6.031 -0.2406  0.2286 -0.5804
  150SAPE  H11B16537   0.843   3.553   5.960 -0.5557 -0.2572 -0.9934
  150SAPE     P16538   0.643   3.583   6.174 -0.1119  0.2146  0.1874
  150SAPE   O1316539   0.605   3.696   6.263  0.4731 -0.3781  0.0955
  150SAPE   O1416540   0.579   3.585   6.041  0.1792 -0.1743 -0.1945
  150SAPE   O1216541   0.804   3.563   6.162  0.4801  0.8061 -0.2571
  150SAPE   O1116542   0.610   3.454   6.262 -0.4882  0.9394  0.0367
  150SAPE    C116543   0.662   3.415   6.387  0.1448  0.4342 -0.0522
  150SAPE    HA16544   0.766   3.376   6.382 -0.2646 -1.2047  2.4700
  150SAPE    HB16545   0.657   3.504   6.452 -2.9644  0.6975 -0.4967
  150SAPE    C216546   0.575   3.299   6.458 -0.1269 -0.2107 -0.0408
  150SAPE    HS16547   0.571   3.205   6.398  2.2461  0.2600 -1.0274
  150SAPE   O2116548   0.450   3.351   6.489 -0.1277  0.8679 -0.0769
  150SAPE   C2116549   0.346   3.304   6.424 -0.2341 -0.0031  0.7787
  150SAPE   O2216550   0.355   3.237   6.322  0.1987  0.2559 -0.1113
  150SAPE   C2216551   0.214   3.332   6.490 -0.3865  0.1524 -0.6084
  150SAPE   H2R16552   0.218   3.416   6.563 -2.6876  0.3085 -0.5700
  150SAPE   H2S16553   0.138   3.369   6.418 -1.5871  1.7456  1.3337
  150SAPE    C316554   0.634   3.240   6.589 -0.0220  0.5067  0.2931
  150SAPE    HX16555   0.567   3.156   6.615  2.2376 -1.7908 -0.8707
  150SAPE    HY16556   0.634   3.311   6.675  0.1610  0.4387  0.3489
  150SAPE   O3116557   0.771   3.186   6.567  0.2850 -0.1117  0.5889
  150SAPE   C3116558   0.816   3.114   6.677  0.4390  0.0599 -0.2811
  150SAPE   O3216559   0.744   3.102   6.776 -0.0269  0.3892  0.1758
  150SAPE   C3216560   0.960   3.075   6.660 -0.0696  0.3638  0.0083
  150SAPE   H2X16561   1.005   3.170   6.621 -0.9351  0.7522 -0.0524
  150SAPE   H2Y16562   0.965   2.997   6.581 -1.5177  0.9223 -0.6665
  150SAPE   C2316563   0.151   3.204   6.558 -0.1284  0.0770  0.5077
  150SAPE   H3R16564   0.206   3.113   6.526 -0.4809  0.0816 -0.1296
  150SAPE   H3S16565   0.043   3.194   6.535 -0.3160  0.2606  1.2792
  150SAPE   C2416566   0.177   3.204   6.712  0.7305 -0.3471  0.0363
  150SAPE   H4R16567   0.121   3.118   6.754  1.0788 -0.5506  0.0931
  150SAPE   H4S16568   0.128   3.293   6.755  0.2196 -0.0040 -1.2020
  150SAPE   C2516569   0.317   3.199   6.758 -0.7905  0.3716  1.1812
  150SAPE   H5R16570   0.376   3.115   6.718 -0.5822  1.7840 -1.7383
  150SAPE   C2616571   0.378   3.270   6.849 -0.3460 -0.4153 -0.4628
  150SAPE   H6R16572   0.481   3.249   6.882 -0.9146 -2.4905  0.1684
  150SAPE   C2716573   0.311   3.375   6.933  0.7561  0.5446  0.1279
  150SAPE   H7R16574   0.387   3.400   7.010 -1.7846 -0.6100  3.2473
  150SAPE   H7S16575   0.223   3.330   6.983 -0.8232  0.3823 -2.5610
  150SAPE   C2816576   0.276   3.498   6.854  0.1159  0.2639 -0.2843
  150SAPE   H8R16577   0.259   3.490   6.746  0.3858  3.0002 -0.5995
  150SAPE   C2916578   0.252   3.607   6.922  0.0011 -0.5211  0.4718
  150SAPE   H9R16579   0.219   3.700   6.871 -3.6902 -2.3790 -0.9816
  150SAPE  C21016580   0.257   3.622   7.072  0.9663 -0.0072 -0.0549
  150SAPE  H10R16581   0.341   3.685   7.107 -0.4204  1.3048  1.0828
  150SAPE  H10S16582   0.255   3.522   7.119 -1.7476 -0.5812 -1.1779
  150SAPE  C21116583   0.135   3.691   7.128 -0.5991 -0.4328  0.7729
  150SAPE  H11R16584   0.048   3.710   7.063 -1.2495  0.1476  1.7986
  150SAPE  C21216585   0.133   3.730   7.256  0.3590 -0.4581 -0.2866
  150SAPE  H12R16586   0.037   3.762   7.299 -1.1024 -1.9702 -2.1983
  150SAPE  C21316587   0.240   3.709   7.359 -1.0901  0.4482 -0.4961
  150SAPE  H13R16588   0.338   3.685   7.312 -2.1787 -4.4072 -0.7358
  150SAPE  H13S16589   0.213   3.616   7.413  0.5312  0.6670  0.7483
  150SAPE  C21416590   0.252   3.820   7.462  0.4755  0.0870 -0.4780
  150SAPE  H14R16591   0.274   3.919   7.419 -0.3639  0.2082 -0.6424
  150SAPE  C21516592   0.227   3.819   7.598 -0.9999  0.4527  0.3161
  150SAPE  H15R16593   0.243   3.907   7.661 -2.4051 -0.3796  1.9462
  150SAPE  C21616594   0.168   3.697   7.670 -0.1776 -0.5175  0.2848
  150SAPE  H16R16595   0.189   3.601   7.618 -2.6456 -0.2416 -1.4046
  150SAPE  H16S16596   0.061   3.720   7.690  0.1346  0.8936  0.4384
  150SAPE  C21716597   0.215   3.677   7.816  0.5771 -0.9277  0.0266
  150SAPE  H17R16598   0.200   3.764   7.885  0.8294  0.3407 -1.4652
  150SAPE  H17S16599   0.325   3.667   7.807  0.7836 -1.5410  2.4819
  150SAPE  C21816600   0.154   3.554   7.886 -0.0361 -0.1695  0.1391
  150SAPE  H18R16601   0.166   3.462   7.824 -3.1883 -0.6293  0.0309
  150SAPE  H18S16602   0.044   3.569   7.897 -0.3755 -3.0146  1.4315
  150SAPE  C21916603   0.219   3.532   8.018 -0.4930  0.9114 -0.8375
  150SAPE  H19R16604   0.159   3.485   8.099  0.6937  2.1366  0.8441
  150SAPE  H19S16605   0.239   3.631   8.065  0.8645  0.1465  0.3027
  150SAPE  C22016606   0.351   3.455   8.003 -0.1159  0.7632 -0.5064
  150SAPE  H20R16607   0.422   3.507   7.935  0.1544  0.3596 -0.5348
  150SAPE  H20S16608   0.331   3.355   7.957  0.1251  1.7017 -2.8068
  150SAPE  H20T16609   0.405   3.447   8.099 -2.3008  0.6890  0.7743
  150SAPE   C3316610   1.037   3.022   6.790  0.5489 -0.4083  0.5518
  150SAPE   H3X16611   1.140   2.988   6.767  0.8336  0.5295  0.3889
  150SAPE   H3Y16612   0.988   2.927   6.822  1.2431 -0.2483  2.1917
  150SAPE   C3416613   1.042   3.127   6.897 -1.1441  0.5246  0.8311
  150SAPE   H4X16614   0.942   3.169   6.917 -2.2463 -2.1838  1.5557
  150SAPE   H4Y16615   1.106   3.206   6.854 -0.9835 -0.8682 -1.6946
  150SAPE   C3516616   1.107   3.073   7.026  0.2605 -0.9641  0.0864
  150SAPE   H5X16617   1.209   3.035   7.003 -0.2559 -2.6093  0.4475
  150SAPE   H5Y16618   1.064   2.981   7.069 -0.5008 -0.1900  1.0229
  150SAPE   C3616619   1.126   3.189   7.129  0.4064  0.0656 -0.5681
  150SAPE   H6X16620   1.023   3.231   7.139 -0.1942 -1.2160 -1.1408
  150SAPE   H6Y16621   1.191   3.274   7.097  2.6421 -1.5392 -0.5049
  150SAPE   C3716622   1.151   3.133   7.272 -0.1817 -0.4207 -0.0221
  150SAPE   H7X16623   1.248   3.080   7.281 -0.4590 -0.7973  0.8681
  150SAPE   H7Y16624   1.061   3.077   7.303 -0.0133  0.0545  1.3967
  150SAPE   C3816625   1.166   3.244   7.373 -0.4147  0.3735 -0.2356
  150SAPE   H8X16626   1.076   3.309   7.367 -0.3598  0.4821  0.0778
  150SAPE   H8Y16627   1.257   3.306   7.362  1.0002 -1.3784  1.1009
  150SAPE   C3916628   1.180   3.184   7.513  0.1953 -0.2173  0.8269
  150SAPE   H9X16629   1.288   3.157   7.512  0.2385 -0.1088 -1.6137
  150SAPE   H9Y16630   1.109   3.099   7.514 -1.5105  1.1092 -0.7914
  150SAPE  C31016631   1.137   3.282   7.619  0.5532  0.2711  0.2818
  150SAPE  H10X16632   1.031   3.314   7.605 -0.2483 -1.7434  1.3648
  150SAPE  H10Y16633   1.197   3.376   7.616 -0.0603  0.6619 -1.7634
  150SAPE  C31116634   1.143   3.218   7.754 -0.3884  0.3452  0.0356
  150SAPE  H11X16635   1.087   3.122   7.745  1.1962 -0.4878 -1.6448
  150SAPE  H11Y16636   1.096   3.285   7.829 -0.3218  2.3495 -1.6263
  150SAPE  C31216637   1.288   3.184   7.797 -0.1883  0.0045  0.3745
  150SAPE  H12X16638   1.339   3.281   7.779  1.4923 -1.0382 -0.7537
  150SAPE  H12Y16639   1.327   3.112   7.723  0.1792 -0.9279  1.4447
  150SAPE  C31316640   1.298   3.136   7.945 -0.5301  0.2616 -0.1687
  150SAPE  H13X16641   1.406   3.116   7.959 -1.1665 -3.0347  1.1419
  150SAPE  H13Y16642   1.237   3.043   7.955  0.8133 -0.8665 -1.9571
  150SAPE  C31416643   1.259   3.234   8.058  0.0780 -0.0222  0.2319
  150SAPE  H14X16644   1.149   3.250   8.053  0.0704  0.9788  2.3916
  150SAPE  H14Y16645   1.317   3.328   8.046 -0.3381  0.4055  1.4863
  150SAPE  C31516646   1.302   3.179   8.200 -0.0713  0.8446 -0.0074
  150SAPE  H15X16647   1.412   3.170   8.201 -0.1521 -0.8289  2.3305
  150SAPE  H15Y16648   1.253   3.080   8.187  1.7939 -0.0716 -0.3412
  150SAPE  C31616649   1.245   3.263   8.315  0.1991  0.4604  0.1066
  150SAPE  H16X16650   1.279   3.216   8.409 -0.0636  1.8488  0.9133
  150SAPE  H16Y16651   1.134   3.260   8.306  0.2084 -2.2825  0.0274
  150SAPE  C31716652   1.274   3.416   8.315  0.0470  0.3221 -0.1117
  150SAPE  H17X16653   1.216   3.462   8.232 -0.5794 -1.1109 -0.5076
  150SAPE  H17Y16654   1.381   3.441   8.298  0.5217 -1.6964 -0.3117
  150SAPE  C31816655   1.230   3.482   8.446 -0.3593  0.8435 -0.0924
  150SAPE  H18X16656   1.247   3.591   8.433  0.3720  0.7555  0.0581
  150SAPE  H18Y16657   1.277   3.433   8.535  0.1004 -1.8033 -1.6743
  150SAPE  H18Z16658   1.122   3.458   8.450  0.0890 -1.3862  0.6031
  151SAPE     N16659   3.689   0.925   6.085  0.2293  0.1456  0.2362
  151SAPE   HN116660   3.600   0.979   6.085  0.7238  1.0152 -1.5400
  151SAPE   HN216661   3.730   0.959   5.996 -1.0851 -0.7988 -0.7890
  151SAPE   HN316662   3.662   0.825   6.072 -1.1891  0.6110 -0.5899
  151SAPE   C1216663   3.777   0.938   6.207 -0.3544  0.3279  0.4274
  151SAPE  H12A16664   3.848   0.852   6.215 -1.8025 -0.8628  0.9646
  151SAPE  H12B16665   3.714   0.934   6.298 -1.8993  0.2664 -0.6023
  151SAPE   C1116666   3.867   1.065   6.196  0.2530 -0.3253  0.1359
  151SAPE  H11A16667   3.792   1.145   6.214 -0.8231 -1.6057  1.6779
  151SAPE  H11B16668   3.900   1.066   6.090  0.6479 -0.7457  0.2524
  151SAPE     P16669   4.118   1.097   6.254  0.1147 -0.2624  0.0906
  151SAPE   O1316670   4.210   1.003   6.332  0.6382  0.0180 -0.0899
  151SAPE   O1416671   4.131   1.099   6.109  0.0475 -0.5094  0.2159
  151SAPE   O1216672   3.972   1.068   6.295 -0.1754 -0.0866 -0.3134
  151SAPE   O1116673   4.138   1.244   6.313 -0.1932  0.1819  0.1701
  151SAPE    C116674   4.123   1.270   6.454  0.1569  0.1437  0.2873
  151SAPE    HA16675   4.079   1.371   6.466 -1.6420 -0.3644 -1.5413
  151SAPE    HB16676   4.061   1.196   6.509  0.6600  0.0201  0.6972
  151SAPE    C216677   4.268   1.267   6.517 -0.5031  0.2726 -0.6600
  151SAPE    HS16678   4.307   1.165   6.500 -1.2995  0.1795 -2.0200
  151SAPE   O2116679   4.254   1.313   6.655 -0.7708  0.5788  0.0005
  151SAPE   C2116680   4.222   1.221   6.737  0.2717  0.2678 -0.0445
  151SAPE   O2216681   4.197   1.102   6.708 -0.1591  0.2016  0.0493
  151SAPE   C2216682   4.231   1.268   6.889  0.3693  0.1308  0.8036
  151SAPE   H2R16683   4.334   1.303   6.911  1.5747 -3.5562  1.7561
  151SAPE   H2S16684   4.146   1.338   6.905 -0.4508 -0.9304  1.2514
  151SAPE    C316685   4.361   1.366   6.446 -0.2147  0.0728  0.6717
  151SAPE    HX16686   4.312   1.466   6.442  1.4774  0.9035 -1.4554
  151SAPE    HY16687   4.363   1.330   6.341  0.3926 -2.3031  1.4409
  151SAPE   O3116688   4.491   1.379   6.503 -0.4836 -0.2606 -0.0985
  151SAPE   C3116689   4.587   1.291   6.469  0.2014  0.4775 -0.3049
  151SAPE   O3216690   4.582   1.215   6.373 -0.6097 -0.1612  0.5717
  151SAPE   C3216691   4.702   1.289   6.574  0.0435  0.2006 -0.3328
  151SAPE   H2X16692   4.746   1.391   6.573  0.5292  0.0035  0.3799
  151SAPE   H2Y16693   4.775   1.212   6.541 -0.8055 -0.8365  0.1729
  151SAPE   C2316694   4.204   1.147   6.983 -0.5761  0.4386 -0.1096
  151SAPE   H3R16695   4.274   1.063   6.967 -0.7736  0.2127  0.2265
  151SAPE   H3S16696   4.099   1.112   6.973 -1.0228  1.5926  0.3711
  151SAPE   C2416697   4.224   1.195   7.132  0.2648 -0.8388 -0.5205
  151SAPE   H4R16698   4.169   1.126   7.199  0.8719 -0.1651  0.7056
  151SAPE   H4S16699   4.178   1.294   7.155 -1.5115 -1.5047 -1.0115
  151SAPE   C2516700   4.366   1.197   7.173 -0.0787 -0.5454 -0.2624
  151SAPE   H5R16701   4.432   1.227   7.090 -0.9095  0.9396 -0.4264
  151SAPE   C2616702   4.410   1.158   7.289 -0.2647 -0.4661  0.7426
  151SAPE   H6R16703   4.518   1.163   7.308 -0.5767 -1.1273  3.1337
  151SAPE   C2716704   4.332   1.112   7.410 -0.5984  0.1676  0.0173
  151SAPE   H7R16705   4.398   1.041   7.465 -0.0115 -0.1031 -1.0162
  151SAPE   H7S16706   4.247   1.045   7.383 -0.4973 -0.0111  0.1417
  151SAPE   C2816707   4.279   1.216   7.513  0.3119 -0.0204 -0.1259
  151SAPE   H8R16708   4.285   1.318   7.473  0.4648  0.4816  1.1260
  151SAPE   C2916709   4.230   1.203   7.639  0.3979 -0.4678 -0.2916
  151SAPE   H9R16710   4.193   1.297   7.684 -0.1417  0.1860 -2.0157
  151SAPE  C21016711   4.217   1.074   7.706 -0.5567  0.7498  0.6028
  151SAPE  H10R16712   4.284   1.000   7.659  1.4676  2.4308  0.6674
  151SAPE  H10S16713   4.112   1.040   7.698 -0.8578  1.7879 -0.0888
  151SAPE  C21116714   4.260   1.076   7.852  1.2853  0.1909  0.0229
  151SAPE  H11R16715   4.367   1.056   7.867  0.7401 -1.9436  1.4935
  151SAPE  C21216716   4.187   1.121   7.958  0.5198  0.5634 -1.0919
  151SAPE  H12R16717   4.235   1.121   8.058  1.5370  0.4253 -1.5604
  151SAPE  C21316718   4.043   1.165   7.959  0.2745 -0.4003  0.6184
  151SAPE  H13R16719   4.004   1.168   7.855  0.8919  2.2693  0.4015
  151SAPE  H13S16720   4.034   1.271   7.991 -1.4344  0.1971 -1.5972
  151SAPE  C21416721   3.938   1.085   8.037  0.5833 -0.3031 -0.3979
  151SAPE  H14R16722   3.892   0.999   7.989  1.5887 -1.5319  0.7478
  151SAPE  C21516723   3.885   1.124   8.154  0.0983 -0.6658  0.1730
  151SAPE  H15R16724   3.799   1.076   8.202 -0.7379 -0.8233 -1.4282
  151SAPE  C21616725   3.932   1.239   8.244  0.0913 -0.1684 -0.1491
  151SAPE  H16R16726   4.035   1.266   8.212  0.6715 -0.0421  1.6814
  151SAPE  H16S16727   3.946   1.214   8.352  2.7049  1.1126 -0.1040
  151SAPE  C21716728   3.845   1.373   8.242  0.0060  0.1345 -0.1928
  151SAPE  H17R16729   3.827   1.413   8.140  1.1715  1.2489  0.0174
  151SAPE  H17S16730   3.888   1.461   8.294 -0.0362  1.3544 -2.1068
  151SAPE  C21816731   3.713   1.366   8.323  0.3177 -0.2864  0.0928
  151SAPE  H18R16732   3.748   1.325   8.421 -0.7375  2.4310  1.7194
  151SAPE  H18S16733   3.639   1.294   8.282  0.2343 -0.6884  0.9199
  151SAPE  C21916734   3.658   1.499   8.354  0.6968 -0.3545  0.0004
  151SAPE  H19R16735   3.649   1.552   8.257  1.8938  0.4666  0.3118
  151SAPE  H19S16736   3.721   1.563   8.419  0.7698 -0.8311  0.4019
  151SAPE  C22016737   3.519   1.488   8.416 -0.0205 -0.1851 -0.2593
  151SAPE  H20R16738   3.434   1.469   8.346  0.5308 -0.1544 -0.9505
  151SAPE  H20S16739   3.510   1.399   8.481 -2.7674 -1.1033 -1.7612
  151SAPE  H20T16740   3.486   1.567   8.487  0.0507 -1.4064  1.1759
  151SAPE   C3316741   4.654   1.256   6.718 -0.0198 -0.0806 -0.5248
  151SAPE   H3X16742   4.619   1.151   6.728  0.4694 -0.3653 -1.6456
  151SAPE   H3Y16743   4.570   1.325   6.743 -0.2408  0.1993 -1.9490
  151SAPE   C3416744   4.750   1.288   6.831  0.5632  0.4809 -0.0600
  151SAPE   H4X16745   4.766   1.397   6.846  1.9328  0.1701  0.9156
  151SAPE   H4Y16746   4.854   1.254   6.814  0.5876  0.9375 -0.8628
  151SAPE   C3516747   4.713   1.229   6.968 -0.3222 -0.0027 -0.5486
  151SAPE   H5X16748   4.693   1.121   6.950 -1.9192  0.4805 -1.9893
  151SAPE   H5Y16749   4.618   1.278   7.000  0.9570  3.4314 -1.5206
  151SAPE   C3616750   4.834   1.250   7.061 -0.0764 -0.2701 -0.1655
  151SAPE   H6X16751   4.829   1.358   7.084  1.4350 -0.1070 -0.5011
  151SAPE   H6Y16752   4.931   1.232   7.008 -0.1225 -0.0275 -0.3349
  151SAPE   C3716753   4.845   1.136   7.170 -0.3698  0.1858 -0.1318
  151SAPE   H7X16754   4.845   1.042   7.110  0.5810  0.6237 -0.8615
  151SAPE   H7Y16755   4.750   1.149   7.225  0.4809  0.5402  1.2923
  151SAPE   C3816756   4.965   1.135   7.264  0.9240 -0.4633  0.1612
  151SAPE   H8X16757   4.985   1.239   7.300 -1.4484 -0.3204  1.2318
  151SAPE   H8Y16758   5.065   1.108   7.224  0.5252 -1.9092  0.0933
  151SAPE   C3916759   4.945   1.043   7.382  0.1793 -0.3261  0.0920
  151SAPE   H9X16760   5.038   1.060   7.440  0.3538  0.6180 -0.4465
  151SAPE   H9Y16761   4.931   0.937   7.351  0.1553 -0.4482  0.5186
  151SAPE  C31016762   4.832   1.082   7.476  0.3719 -0.2524 -0.2254
  151SAPE  H10X16763   4.736   1.083   7.420  0.7468  0.2975 -0.8714
  151SAPE  H10Y16764   4.837   1.188   7.508 -0.7878 -0.1988 -0.1964
  151SAPE  C31116765   4.814   0.979   7.588 -0.0017  0.3768 -0.9068
  151SAPE  H11X16766   4.893   0.985   7.667  0.6599 -3.3495 -1.0766
  151SAPE  H11Y16767   4.834   0.881   7.539 -0.2038  0.1353 -0.5078
  151SAPE  C31216768   4.675   0.960   7.643  0.1847  1.1373  0.2554
  151SAPE  H12X16769   4.619   0.905   7.565  2.4577 -2.2635  0.8119
  151SAPE  H12Y16770   4.629   1.059   7.665 -1.5682  0.5489 -0.5860
  151SAPE  C31316771   4.671   0.868   7.762 -0.9105  0.0346 -0.0730
  151SAPE  H13X16772   4.725   0.902   7.853 -1.7685  0.4678  0.2788
  151SAPE  H13Y16773   4.732   0.777   7.742 -0.7197 -0.0679  0.9144
  151SAPE  C31416774   4.531   0.804   7.784 -0.6456  0.2362 -0.3570
  151SAPE  H14X16775   4.498   0.783   7.680  1.1213 -3.0388 -0.3816
  151SAPE  H14Y16776   4.480   0.894   7.825 -0.9732  0.1044 -0.4776
  151SAPE  C31516777   4.527   0.689   7.884  0.4098  0.6001 -0.0616
  151SAPE  H15X16778   4.589   0.692   7.977 -1.6260 -2.2756  1.5430
  151SAPE  H15Y16779   4.557   0.592   7.839  2.1261  1.4881 -0.9256
  151SAPE  C31616780   4.390   0.690   7.964 -0.1161  0.0033  0.2517
  151SAPE  H16X16781   4.351   0.586   7.961  0.3447 -0.1463 -1.3645
  151SAPE  H16Y16782   4.320   0.752   7.904 -0.7314 -2.5241 -1.7991
  151SAPE  C31716783   4.405   0.748   8.105 -0.0497  0.2723 -0.0711
  151SAPE  H17X16784   4.447   0.850   8.097 -0.8570  0.5053 -2.3839
  151SAPE  H17Y16785   4.460   0.678   8.171  0.2366  0.3069 -0.2682
  151SAPE  C31816786   4.267   0.779   8.155  0.3761 -0.2816  0.5264
  151SAPE  H18X16787   4.264   0.836   8.251  0.7670 -0.2350  0.5116
  151SAPE  H18Y16788   4.200   0.692   8.173  1.2249 -1.2316 -0.7629
  151SAPE  H18Z16789   4.212   0.838   8.080 -0.9111 -2.7746 -0.6071
  152SAPE     N16790   0.513   2.452   6.379  0.6756 -0.3839 -0.0118
  152SAPE   HN116791   0.606   2.490   6.407  0.6335  0.9228 -1.4927
  152SAPE   HN216792   0.436   2.473   6.446 -0.5428 -1.2435 -1.0964
  152SAPE   HN316793   0.519   2.349   6.370 -0.0202 -0.3267 -1.3678
  152SAPE   C1216794   0.494   2.525   6.246 -0.2969 -0.2201  0.0513
  152SAPE  H12A16795   0.440   2.455   6.180  2.7955 -1.2026 -1.6335
  152SAPE  H12B16796   0.594   2.553   6.205 -0.5543 -0.4574 -0.7521
  152SAPE   C1116797   0.418   2.661   6.270  0.0412 -0.5414 -0.1126
  152SAPE  H11A16798   0.408   2.703   6.167  0.7203  1.0247  0.4313
  152SAPE  H11B16799   0.468   2.737   6.333 -0.1993 -2.0813  2.0694
  152SAPE     P16800   0.165   2.706   6.291  0.1113  0.1803  0.0865
  152SAPE   O1316801   0.183   2.852   6.293  0.0157 -0.4666  0.3730
  152SAPE   O1416802   0.120   2.648   6.167 -0.0440 -0.6035  0.0671
  152SAPE   O1216803   0.290   2.639   6.342 -0.3434  0.3725 -0.2985
  152SAPE   O1116804   0.064   2.675   6.402 -0.3553  0.3939  0.2391
  152SAPE    C116805   0.061   2.690   6.541  0.5648  0.3549 -0.5294
  152SAPE    HA16806  -0.035   2.645   6.574 -0.5166  1.0658 -2.5807
  152SAPE    HB16807   0.143   2.636   6.593 -0.9499 -0.5562  1.0111
  152SAPE    C216808   0.050   2.838   6.581  0.2649 -0.2684  0.0630
  152SAPE    HS16809   0.135   2.895   6.538 -0.5548  1.9130  1.1357
  152SAPE   O2116810   0.071   2.845   6.724  0.1444 -0.5098  0.3078
  152SAPE   C2116811   0.188   2.833   6.772 -0.2836  0.2114 -1.1878
  152SAPE   O2216812   0.288   2.803   6.713 -0.3303  0.0428 -0.1001
  152SAPE   C2216813   0.186   2.888   6.913  0.5388 -0.0325 -0.8080
  152SAPE   H2R16814   0.251   2.977   6.895  0.5668  0.4665  1.3669
  152SAPE   H2S16815   0.084   2.927   6.934  0.9900  1.7574 -1.7638
  152SAPE    C316816  -0.083   2.915   6.559  0.3969 -0.2982 -0.6113
  152SAPE    HX16817  -0.083   2.966   6.460 -1.7724 -1.3680 -1.2459
  152SAPE    HY16818  -0.084   2.992   6.639  1.0441  0.1066 -0.9816
  152SAPE   O3116819  -0.200   2.830   6.566 -0.6088  0.7901 -0.6344
  152SAPE   C3116820  -0.288   2.847   6.665  0.4913 -0.6335 -0.2439
  152SAPE   O3216821  -0.287   2.951   6.734 -0.3211  0.1901  0.9089
  152SAPE   C3216822  -0.383   2.731   6.675  0.9104  0.3399 -0.2321
  152SAPE   H2X16823  -0.342   2.633   6.646 -0.7555 -0.1624 -1.0106
  152SAPE   H2Y16824  -0.469   2.741   6.605  0.2055 -2.4018  0.1222
  152SAPE   C2316825   0.258   2.814   7.027 -0.6300 -0.2763 -0.5655
  152SAPE   H3R16826   0.364   2.796   7.001 -0.5397 -0.1350 -0.2987
  152SAPE   H3S16827   0.214   2.712   7.036 -1.2239  0.0546  0.4712
  152SAPE   C2416828   0.260   2.898   7.158  0.7093 -0.1768  0.5192
  152SAPE   H4R16829   0.305   2.852   7.248  0.9080  2.2813  1.7690
  152SAPE   H4S16830   0.158   2.930   7.187  1.1047  1.3276  0.3283
  152SAPE   C2516831   0.347   3.024   7.135 -0.2690 -0.2294 -0.2046
  152SAPE   H5R16832   0.392   3.038   7.036 -0.7055 -0.0006 -0.3723
  152SAPE   C2616833   0.376   3.109   7.235  0.4917  0.1740  0.1198
  152SAPE   H6R16834   0.434   3.199   7.210 -0.1387  0.4583 -0.3451
  152SAPE   C2716835   0.322   3.100   7.380  0.4628  0.5101  0.1043
  152SAPE   H7R16836   0.391   3.030   7.431  0.6175 -0.3687 -1.2706
  152SAPE   H7S16837   0.219   3.061   7.388  0.3608  0.7121 -0.1883
  152SAPE   C2816838   0.324   3.237   7.440 -0.3879 -0.0637 -0.1886
  152SAPE   H8R16839   0.388   3.313   7.393 -0.8858  0.4261 -0.0921
  152SAPE   C2916840   0.298   3.250   7.573  0.6234 -0.0473 -0.0009
  152SAPE   H9R16841   0.277   3.353   7.607 -0.0243 -0.4348  0.7984
  152SAPE  C21016842   0.247   3.149   7.676 -0.5312  0.7070  0.2033
  152SAPE  H10R16843   0.175   3.083   7.625  0.2991  0.6444 -0.9207
  152SAPE  H10S16844   0.203   3.191   7.769  1.7788 -2.4230  2.9759
  152SAPE  C21116845   0.365   3.063   7.724 -0.8835  0.5076 -0.0811
  152SAPE  H11R16846   0.434   3.014   7.654 -0.5271  1.2907 -0.2849
  152SAPE  C21216847   0.398   3.036   7.856 -0.2827 -0.0869  0.3452
  152SAPE  H12R16848   0.495   2.989   7.875 -0.1216 -0.0639 -0.3819
  152SAPE  C21316849   0.330   3.087   7.982 -0.2456 -0.1861  0.4300
  152SAPE  H13R16850   0.235   3.141   7.962 -1.3017 -2.4316 -1.0719
  152SAPE  H13S16851   0.397   3.152   8.043  0.8437 -1.3740  0.5370
  152SAPE  C21416852   0.282   2.969   8.057 -0.4595 -0.1802 -0.5555
  152SAPE  H14R16853   0.316   2.868   8.028 -0.1332 -0.1353 -0.3262
  152SAPE  C21516854   0.195   2.976   8.163 -0.7992  0.1697 -0.1438
  152SAPE  H15R16855   0.180   2.887   8.226  0.2005 -0.0557 -0.2128
  152SAPE  C21616856   0.143   3.108   8.225 -0.3525  0.6506 -0.0099
  152SAPE  H16R16857   0.034   3.095   8.235 -0.5189 -1.0997 -2.9339
  152SAPE  H16S16858   0.151   3.200   8.163 -0.7487  1.2408  0.7906
  152SAPE  C21716859   0.208   3.134   8.361 -0.4214 -0.2495  0.6631
  152SAPE  H17R16860   0.196   3.042   8.423  1.8806 -0.8284  0.3400
  152SAPE  H17S16861   0.152   3.216   8.410 -0.5680  0.1765 -0.2061
  152SAPE  C21816862   0.358   3.175   8.366 -0.3946 -0.6074 -0.0994
  152SAPE  H18R16863   0.388   3.223   8.270 -1.7057  1.4796  0.4771
  152SAPE  H18S16864   0.426   3.087   8.375  0.7303 -0.0008 -2.0198
  152SAPE  C21916865   0.395   3.271   8.484  0.3816  1.1658 -0.1162
  152SAPE  H19R16866   0.323   3.356   8.477  0.5800  1.4371  0.9899
  152SAPE  H19S16867   0.495   3.319   8.477 -0.3920  2.8288 -0.3165
  152SAPE  C22016868   0.379   3.215   8.625  0.7877 -0.0905 -0.0672
  152SAPE  H20R16869   0.453   3.133   8.641 -0.8030 -1.5720 -0.0386
  152SAPE  H20S16870   0.276   3.177   8.639  1.4369 -1.7943  0.4267
  152SAPE  H20T16871   0.407   3.289   8.702  2.0141 -0.3797 -0.2013
  152SAPE   C3316872  -0.438   2.723   6.821  0.2541  0.3814  0.1716
  152SAPE   H3X16873  -0.365   2.776   6.887  0.8460 -1.3494  0.9908
  152SAPE   H3Y16874  -0.446   2.619   6.859  1.6473  0.6560  1.3194
  152SAPE   C3416875  -0.587   2.773   6.841 -0.4292  0.1791  0.3152
  152SAPE   H4X16876  -0.651   2.716   6.770 -0.9197  0.4724  0.5119
  152SAPE   H4Y16877  -0.586   2.875   6.797  1.3523 -0.4035 -1.0922
  152SAPE   C3516878  -0.644   2.762   6.989  0.3416 -0.3038  0.3246
  152SAPE   H5X16879  -0.668   2.655   7.011 -1.1824  0.3294  1.9168
  152SAPE   H5Y16880  -0.740   2.815   6.973  0.3735 -0.0606  0.9162
  152SAPE   C3616881  -0.549   2.836   7.089  0.2599 -0.1956 -0.3466
  152SAPE   H6X16882  -0.529   2.943   7.065  2.2352  0.1653  2.3789
  152SAPE   H6Y16883  -0.449   2.789   7.096  0.5544  0.6385  2.2004
  152SAPE   C3716884  -0.607   2.831   7.231 -0.3743 -0.3069 -0.2357
  152SAPE   H7X16885  -0.614   2.723   7.255  0.7107 -0.3999 -0.2747
  152SAPE   H7Y16886  -0.701   2.889   7.234 -0.0682  0.2450 -1.0023
  152SAPE   C3816887  -0.511   2.877   7.339 -0.4547  0.1561 -0.2150
  152SAPE   H8X16888  -0.498   2.987   7.335 -3.8857  0.8368  2.4247
  152SAPE   H8Y16889  -0.418   2.820   7.318 -0.4413  1.1409 -3.2474
  152SAPE   C3916890  -0.567   2.847   7.482  0.8311  0.2378 -0.0636
  152SAPE   H9X16891  -0.584   2.739   7.500 -0.6431  0.3088 -0.8918
  152SAPE   H9Y16892  -0.666   2.896   7.488 -0.0961 -1.5213 -0.2566
  152SAPE  C31016893  -0.476   2.876   7.600  0.5652 -0.2392  0.6780
  152SAPE  H10X16894  -0.434   2.979   7.593 -1.5507  0.5682 -1.3518
  152SAPE  H10Y16895  -0.385   2.812   7.601  0.7035 -0.0555  1.9072
  152SAPE  C31116896  -0.552   2.863   7.741 -0.2746  0.4932  0.0937
  152SAPE  H11X16897  -0.596   2.761   7.755 -0.2081  0.2857 -1.0943
  152SAPE  H11Y16898  -0.635   2.935   7.756  1.6292  2.6276  0.9041
  152SAPE  C31216899  -0.451   2.893   7.864 -0.1068 -0.0626 -0.1181
  152SAPE  H12X16900  -0.400   2.991   7.851  2.3039 -0.7701  2.7226
  152SAPE  H12Y16901  -0.374   2.813   7.866  0.1148  0.1542  0.7774
  152SAPE  C31316902  -0.527   2.893   8.001  0.1109 -0.4236  0.0317
  152SAPE  H13X16903  -0.557   2.792   8.035  0.8502  0.4427  3.6493
  152SAPE  H13Y16904  -0.627   2.943   7.998 -0.0684 -0.6002  2.0723
  152SAPE  C31416905  -0.446   2.964   8.112 -0.6590  0.0039 -0.1895
  152SAPE  H14X16906  -0.377   3.034   8.059 -0.0033 -0.7814 -0.3949
  152SAPE  H14Y16907  -0.383   2.885   8.157  2.4938  1.9418 -0.8526
  152SAPE  C31516908  -0.533   3.046   8.215 -0.1669 -0.3619 -0.1340
  152SAPE  H15X16909  -0.626   2.985   8.220  0.3101 -1.3612 -2.3584
  152SAPE  H15Y16910  -0.560   3.146   8.174 -1.4380 -1.0612 -1.0957
  152SAPE  C31616911  -0.467   3.053   8.361  0.0334  0.0128 -0.1185
  152SAPE  H16X16912  -0.378   3.119   8.369 -0.8343  1.2160 -0.1284
  152SAPE  H16Y16913  -0.420   2.954   8.380 -0.8947 -0.9957 -2.6617
  152SAPE  C31716914  -0.563   3.084   8.478  0.4811 -0.0614 -0.9683
  152SAPE  H17X16915  -0.663   3.037   8.467  0.7129 -0.9622  0.5586
  152SAPE  H17Y16916  -0.569   3.195   8.476  2.4025  0.0982  0.0529
  152SAPE  C31816917  -0.506   3.047   8.614  0.7626  0.4857 -0.3869
  152SAPE  H18X16918  -0.399   3.076   8.619  1.3552 -1.6154 -0.0816
  152SAPE  H18Y16919  -0.521   2.939   8.632 -2.7053  1.1036  1.4356
  152SAPE  H18Z16920  -0.568   3.094   8.694  0.0029 -1.2453  0.0915
  153SAPE     N16921   4.570   6.168   6.128  0.2864  0.2233 -0.0927
  153SAPE   HN116922   4.467   6.178   6.142 -0.0389 -1.4431 -1.0663
  153SAPE   HN216923   4.617   6.208   6.212  1.7713 -0.7523 -0.4179
  153SAPE   HN316924   4.599   6.224   6.046 -1.6309 -0.8319 -1.5755
  153SAPE   C1216925   4.621   6.027   6.105 -0.0603 -0.0404  1.4578
  153SAPE  H12A16926   4.730   6.049   6.102  0.2507 -1.3813  2.3031
  153SAPE  H12B16927   4.585   5.995   6.005  1.3893  1.5442  0.3575
  153SAPE   C1116928   4.571   5.936   6.219 -0.0537 -0.4605  0.4935
  153SAPE  H11A16929   4.612   5.974   6.315 -0.6486  0.4357  0.4110
  153SAPE  H11B16930   4.619   5.837   6.204 -0.5946 -0.4930 -1.1962
  153SAPE     P16931   4.349   5.793   6.203  0.0673  0.3433 -0.4793
  153SAPE   O1316932   4.202   5.799   6.224  0.0728 -0.6037  0.5179
  153SAPE   O1416933   4.399   5.731   6.075  0.5319 -0.5890 -0.3284
  153SAPE   O1216934   4.428   5.929   6.219  0.6233 -0.2086  0.5544
  153SAPE   O1116935   4.416   5.703   6.315  0.5256 -0.6480 -0.9851
  153SAPE    C116936   4.377   5.643   6.441 -0.5825 -0.5023  0.2966
  153SAPE    HA16937   4.277   5.684   6.468 -0.4528 -0.2861  0.4529
  153SAPE    HB16938   4.372   5.532   6.431 -1.7022 -0.4512  0.1603
  153SAPE    C216939   4.459   5.677   6.567 -0.3743 -0.6486 -0.5428
  153SAPE    HS16940   4.562   5.638   6.553 -0.4986 -1.0501 -0.3519
  153SAPE   O2116941   4.390   5.634   6.683 -0.7066 -0.3652  0.5160
  153SAPE   C2116942   4.414   5.500   6.701  0.3505  0.3410  0.6179
  153SAPE   O2216943   4.488   5.434   6.625 -0.0576  0.4589 -0.3670
  153SAPE   C2216944   4.338   5.448   6.819 -0.4427  0.4635  0.0344
  153SAPE   H2R16945   4.287   5.524   6.881 -0.9234  0.5007 -0.3964
  153SAPE   H2S16946   4.265   5.374   6.779 -1.6103  1.9130 -0.6308
  153SAPE    C316947   4.466   5.830   6.583  0.0453 -0.4903 -1.0946
  153SAPE    HX16948   4.361   5.864   6.571  0.3398 -0.0063 -2.4344
  153SAPE    HY16949   4.503   5.884   6.493 -0.1547  0.6857 -0.4878
  153SAPE   O3116950   4.517   5.880   6.717 -0.0772 -0.8874  0.6342
  153SAPE   C3116951   4.643   5.854   6.727 -0.8142 -0.3264  0.6820
  153SAPE   O3216952   4.710   5.798   6.638  0.0123  0.5602  0.2345
  153SAPE   C3216953   4.709   5.890   6.862 -0.1622  0.1124 -0.3379
  153SAPE   H2X16954   4.788   5.963   6.834  0.1952 -0.0323  0.2561
  153SAPE   H2Y16955   4.753   5.793   6.894  0.1286 -0.4542 -2.3468
  153SAPE   C2316956   4.423   5.372   6.919 -0.3675 -0.2074 -0.4873
  153SAPE   H3R16957   4.463   5.284   6.864  0.5377 -0.6306  0.8057
  153SAPE   H3S16958   4.353   5.341   6.999  1.0523 -1.5740  0.2874
  153SAPE   C2416959   4.548   5.444   6.972  1.4251 -0.6004 -0.2884
  153SAPE   H4R16960   4.611   5.486   6.890  2.5367  2.9771  2.1855
  153SAPE   H4S16961   4.616   5.371   7.020  1.5926 -1.3788 -1.6352
  153SAPE   C2516962   4.514   5.548   7.065  1.0634  1.3251  0.5089
  153SAPE   H5R16963   4.427   5.615   7.052 -1.0002 -0.8533  2.0722
  153SAPE   C2616964   4.577   5.563   7.184  0.3949 -0.5696 -0.0296
  153SAPE   H6R16965   4.539   5.648   7.243 -1.4188 -0.0631 -1.8412
  153SAPE   C2716966   4.690   5.492   7.246  0.6102 -0.1501 -0.2168
  153SAPE   H7R16967   4.747   5.419   7.185  0.0933 -2.9422  2.4132
  153SAPE   H7S16968   4.671   5.436   7.340  3.6367  0.3050  0.7761
  153SAPE   C2816969   4.793   5.594   7.287 -0.8216  0.1713 -0.2967
  153SAPE   H8R16970   4.820   5.674   7.216  0.6300 -0.9860 -1.1106
  153SAPE   C2916971   4.860   5.607   7.400  0.5315  0.1521 -0.9018
  153SAPE   H9R16972   4.928   5.694   7.410  0.2409  0.1472  2.9683
  153SAPE  C21016973   4.862   5.504   7.509  0.2557 -0.3924 -0.2124
  153SAPE  H10R16974   4.950   5.438   7.497  0.7765 -0.1425  1.8341
  153SAPE  H10S16975   4.776   5.433   7.514 -0.6249  0.6852  1.0200
  153SAPE  C21116976   4.862   5.561   7.651  0.4129  0.7463  0.0961
  153SAPE  H11R16977   4.767   5.607   7.678 -0.1874 -0.0729 -0.5579
  153SAPE  C21216978   4.962   5.550   7.740  0.8688 -0.3069 -0.5080
  153SAPE  H12R16979   4.939   5.604   7.832 -0.7914 -3.3108  1.0161
  153SAPE  C21316980   5.100   5.495   7.718 -0.8879 -1.1595  0.6160
  153SAPE  H13R16981   5.130   5.502   7.611  1.5259 -0.1366  1.2856
  153SAPE  H13S16982   5.093   5.391   7.756 -2.1250 -1.2714  0.1168
  153SAPE  C21416983   5.196   5.576   7.804 -0.0913  0.9285  0.2209
  153SAPE  H14R16984   5.255   5.658   7.760  0.5098 -0.3746 -1.5145
  153SAPE  C21516985   5.221   5.551   7.935  0.0793  0.3207  0.0608
  153SAPE  H15R16986   5.290   5.614   7.993  1.3172 -1.1033  0.2134
  153SAPE  C21616987   5.164   5.444   8.020 -0.1018  0.0654  0.3123
  153SAPE  H16R16988   5.204   5.348   7.981 -0.6720 -1.0097  2.2348
  153SAPE  H16S16989   5.053   5.441   8.021 -0.1494  0.0731  3.0231
  153SAPE  C21716990   5.199   5.436   8.171 -0.2554 -0.0511  0.1106
  153SAPE  H17R16991   5.162   5.349   8.229 -0.2180  1.7434  3.0065
  153SAPE  H17S16992   5.150   5.522   8.221 -0.2958  0.6566 -1.1043
  153SAPE  C21816993   5.347   5.449   8.194  0.3636  0.0111  0.1898
  153SAPE  H18R16994   5.387   5.547   8.160 -0.1312  1.0849  2.4552
  153SAPE  H18S16995   5.399   5.379   8.126  0.8380  0.1665  0.3871
  153SAPE  C21916996   5.398   5.411   8.338  0.6474  0.3099  0.1298
  153SAPE  H19R16997   5.509   5.409   8.338  0.6559 -1.1328  1.6214
  153SAPE  H19S16998   5.365   5.308   8.365  0.3542 -0.1950 -1.9478
  153SAPE  C22016999   5.346   5.513   8.436 -0.0415  0.7148 -0.0360
  153SAPE  H20R17000   5.360   5.478   8.541 -1.6548  0.5273  0.1473
  153SAPE  H20S17001   5.237   5.528   8.419  0.1564  1.1955 -0.9089
  153SAPE  H20T17002   5.395   5.611   8.419  1.5485 -0.1325 -0.4987
  153SAPE   C3317003   4.612   5.958   6.968  0.2609  0.1059 -0.5987
  153SAPE   H3X17004   4.524   5.891   6.980  0.4426  0.0284  0.3940
  153SAPE   H3Y17005   4.581   6.059   6.935  0.7613  0.1530 -0.9350
  153SAPE   C3417006   4.672   5.980   7.112  0.2246  0.0466  0.1928
  153SAPE   H4X17007   4.783   5.987   7.116  0.4063 -2.2820  0.1953
  153SAPE   H4Y17008   4.641   5.892   7.173 -2.2180  1.9302  1.9167
  153SAPE   C3517009   4.617   6.118   7.171  0.9368  0.2613 -0.1555
  153SAPE   H5X17010   4.514   6.127   7.131  0.9874  0.3075 -0.2761
  153SAPE   H5Y17011   4.665   6.211   7.134  0.5035  0.9029  0.8479
  153SAPE   C3617012   4.614   6.104   7.318  0.8442 -0.3865  0.3300
  153SAPE   H6X17013   4.594   5.999   7.351 -0.5983  0.5029  2.5466
  153SAPE   H6Y17014   4.527   6.154   7.365 -0.5669  0.4025 -2.9022
  153SAPE   C3717015   4.744   6.140   7.393 -0.1313 -0.0401  0.0500
  153SAPE   H7X17016   4.772   6.239   7.352  0.1377 -0.7347 -1.4882
  153SAPE   H7Y17017   4.829   6.077   7.361  1.9564  1.5078  2.1377
  153SAPE   C3817018   4.732   6.139   7.546 -0.7727 -0.2490 -0.1453
  153SAPE   H8X17019   4.622   6.137   7.567 -1.0126 -2.4567 -1.3746
  153SAPE   H8Y17020   4.773   6.238   7.577 -0.5178 -0.4464  0.1603
  153SAPE   C3917021   4.787   6.009   7.587 -0.6270  1.0208 -0.2340
  153SAPE   H9X17022   4.897   5.996   7.575 -0.7505 -0.9448  0.4165
  153SAPE   H9Y17023   4.737   5.919   7.547 -0.6660  1.6069 -1.5410
  153SAPE  C31017024   4.762   5.990   7.742 -0.0939  0.0776 -0.0409
  153SAPE  H10X17025   4.845   6.038   7.799 -1.8925  1.1276  1.8411
  153SAPE  H10Y17026   4.772   5.881   7.759  1.4830 -0.0126 -1.2765
  153SAPE  C31117027   4.626   6.030   7.800  0.1893 -0.1482 -0.2506
  153SAPE  H11X17028   4.549   5.976   7.742 -0.5997 -0.1884  0.8113
  153SAPE  H11Y17029   4.612   6.139   7.780 -1.2507 -0.1163  0.8398
  153SAPE  C31217030   4.627   5.992   7.945  0.6260 -0.2156 -0.6820
  153SAPE  H12X17031   4.707   6.047   7.999 -0.4396  0.4562  0.2581
  153SAPE  H12Y17032   4.647   5.883   7.951  0.6808 -0.1406  0.6691
  153SAPE  C31317033   4.495   6.022   8.021  0.1056 -0.1039  0.2761
  153SAPE  H13X17034   4.417   5.974   7.957 -0.5425  0.4292  0.6517
  153SAPE  H13Y17035   4.477   6.132   8.026 -0.4301 -0.2242  1.3964
  153SAPE  C31417036   4.490   5.954   8.163 -0.3537 -0.2874 -0.6665
  153SAPE  H14X17037   4.501   5.846   8.140 -0.9880 -0.1233 -1.8134
  153SAPE  H14Y17038   4.387   5.971   8.199 -0.5180  0.4799 -1.4726
  153SAPE  C31517039   4.607   6.003   8.257 -0.1187  0.0954  0.9033
  153SAPE  H15X17040   4.620   6.111   8.234 -0.7377  0.1534  0.7978
  153SAPE  H15Y17041   4.697   5.941   8.239 -0.3533 -0.5280  1.8224
  153SAPE  C31617042   4.573   6.000   8.403  0.0050 -0.5413  0.0534
  153SAPE  H16X17043   4.601   5.899   8.440  1.3517 -0.0676  0.3991
  153SAPE  H16Y17044   4.466   6.022   8.422  0.5643  0.6706  2.1525
  153SAPE  C31717045   4.639   6.093   8.507 -0.1185  0.7512  0.0178
  153SAPE  H17X17046   4.750   6.082   8.504 -0.3237 -2.0676  0.4420
  153SAPE  H17Y17047   4.603   6.055   8.605  0.8501 -1.7160 -0.5249
  153SAPE  C31817048   4.613   6.243   8.488 -0.4825  0.1607 -0.1875
  153SAPE  H18X17049   4.673   6.298   8.563 -1.5904  1.5603 -0.2915
  153SAPE  H18Y17050   4.509   6.260   8.524 -0.1463  1.1722  0.3496
  153SAPE  H18Z17051   4.624   6.279   8.383 -1.5453 -0.1495 -0.4222
  154SAPE     N17052   0.485   3.948   6.215 -0.1306  0.1491 -0.0262
  154SAPE   HN117053   0.421   3.918   6.138  0.7817 -3.7655  0.5295
  154SAPE   HN217054   0.533   3.859   6.237 -2.5554 -1.0708  0.6156
  154SAPE   HN317055   0.436   3.982   6.300 -1.0367  1.5614 -1.0543
  154SAPE   C1217056   0.583   4.047   6.174  0.0739 -0.0491 -0.2836
  154SAPE  H12A17057   0.532   4.133   6.126  1.7733  2.8980  2.7003
  154SAPE  H12B17058   0.650   3.996   6.101  2.4827  0.3967  1.4565
  154SAPE   C1117059   0.663   4.094   6.296  0.0011  0.4600  0.2109
  154SAPE  H11A17060   0.704   4.000   6.339 -0.6106  0.2812  0.4179
  154SAPE  H11B17061   0.608   4.137   6.383  1.0212  0.0904  1.0720
  154SAPE     P17062   0.745   4.331   6.229 -0.1876 -0.4387 -0.1490
  154SAPE   O1317063   0.879   4.391   6.229 -0.2856 -0.4044 -0.2718
  154SAPE   O1417064   0.657   4.354   6.111 -0.3724  0.2045 -0.5502
  154SAPE   O1217065   0.768   4.181   6.248 -0.3376  0.4024 -0.4631
  154SAPE   O1117066   0.670   4.381   6.360  0.5349 -0.3279  0.2505
  154SAPE    C117067   0.752   4.380   6.476 -0.5104  0.5207 -0.6571
  154SAPE    HA17068   0.807   4.284   6.487  0.4205  1.1984  0.9102
  154SAPE    HB17069   0.826   4.462   6.480 -2.6338  2.5886  3.3862
  154SAPE    C217070   0.669   4.400   6.607 -0.6758 -0.2100  0.1295
  154SAPE    HS17071   0.745   4.419   6.686  0.2525 -1.2798 -0.4827
  154SAPE   O2117072   0.596   4.277   6.635 -0.1687 -0.3206 -0.3325
  154SAPE   C2117073   0.569   4.262   6.761 -0.4601 -0.3752 -0.1824
  154SAPE   O2217074   0.597   4.341   6.855 -0.1083  0.8970  0.1269
  154SAPE   C2217075   0.489   4.136   6.767  0.1030 -0.5030 -0.5853
  154SAPE   H2R17076   0.408   4.151   6.693  0.3454 -0.9561 -0.9415
  154SAPE   H2S17077   0.548   4.048   6.734 -0.5057 -1.3430  0.4898
  154SAPE    C317078   0.582   4.521   6.583 -0.6552 -0.0133 -0.3672
  154SAPE    HX17079   0.491   4.490   6.526  0.4742 -0.9202 -1.7216
  154SAPE    HY17080   0.648   4.578   6.515  0.9395 -0.6367  0.6219
  154SAPE   O3117081   0.542   4.599   6.697  0.0736  0.3424  0.3157
  154SAPE   C3117082   0.421   4.585   6.750 -0.5479  0.0189  0.7696
  154SAPE   O3217083   0.325   4.516   6.716 -0.0219 -0.4725  0.5456
  154SAPE   C3217084   0.419   4.677   6.875  0.0167 -0.3330  0.7898
  154SAPE   H2X17085   0.394   4.778   6.835 -2.0057 -0.2054  2.2215
  154SAPE   H2Y17086   0.518   4.670   6.924  1.4193  2.0739 -1.4019
  154SAPE   C2317087   0.419   4.116   6.906  0.0235 -0.3488  0.1840
  154SAPE   H3R17088   0.354   4.027   6.893  0.7455 -0.6593 -1.5107
  154SAPE   H3S17089   0.357   4.207   6.927  0.6555  0.2428 -0.4570
  154SAPE   C2417090   0.510   4.083   7.026 -0.0762 -0.7186 -0.3695
  154SAPE   H4R17091   0.574   4.173   7.028  0.6155 -1.2100  0.1124
  154SAPE   H4S17092   0.585   4.005   7.000  0.1925  0.1024 -2.2212
  154SAPE   C2517093   0.441   4.042   7.155 -0.1016  0.1542 -0.2789
  154SAPE   H5R17094   0.359   3.969   7.151 -0.3266  0.3309  0.8809
  154SAPE   C2617095   0.466   4.090   7.277  0.0844  0.4642 -1.0758
  154SAPE   H6R17096   0.401   4.058   7.359  2.7542 -0.2214  0.9124
  154SAPE   C2717097   0.571   4.191   7.315  0.2373 -0.0443  0.2016
  154SAPE   H7R17098   0.561   4.274   7.241 -0.4673 -0.9570 -0.7628
  154SAPE   H7S17099   0.670   4.142   7.304 -1.3319 -3.9901  1.8226
  154SAPE   C2817100   0.573   4.263   7.452 -0.4125  0.6127 -0.2326
  154SAPE   H8R17101   0.579   4.373   7.446  1.4908  0.5024 -1.1541
  154SAPE   C2917102   0.574   4.204   7.576 -0.4070  0.2605 -0.5186
  154SAPE   H9R17103   0.577   4.256   7.672 -0.3530 -1.2288  0.3182
  154SAPE  C21017104   0.580   4.057   7.598 -0.5460 -0.0273 -0.1304
  154SAPE  H10R17105   0.641   4.007   7.520  0.3826 -0.0440  0.5896
  154SAPE  H10S17106   0.477   4.017   7.586 -0.0491 -0.9072 -1.7703
  154SAPE  C21117107   0.659   4.025   7.724  0.1070  0.7919 -0.0681
  154SAPE  H11R17108   0.767   4.029   7.704 -0.1332 -0.9703 -2.1257
  154SAPE  C21217109   0.617   3.975   7.842  0.0642 -0.8066  0.3638
  154SAPE  H12R17110   0.697   3.937   7.906 -1.8007 -0.7698  2.8739
  154SAPE  C21317111   0.479   3.939   7.878  0.4535  0.4201 -0.9277
  154SAPE  H13R17112   0.476   3.829   7.863  1.3558  0.1726  0.5900
  154SAPE  H13S17113   0.411   3.992   7.807  0.7491  2.1352  0.0315
  154SAPE  C21417114   0.444   3.978   8.020 -0.1033 -0.6886  0.5309
  154SAPE  H14R17115   0.364   4.053   8.025 -1.0884 -1.4029 -2.3194
  154SAPE  C21517116   0.495   3.918   8.134  0.6320 -0.3277 -0.2974
  154SAPE  H15R17117   0.460   3.953   8.232  2.8291 -0.4631  0.5918
  154SAPE  C21617118   0.594   3.809   8.144  0.5499 -0.1109  0.2375
  154SAPE  H16R17119   0.688   3.852   8.185  0.1159 -1.2781  2.6437
  154SAPE  H16S17120   0.614   3.767   8.043  1.2604 -0.8569  0.6772
  154SAPE  C21717121   0.572   3.697   8.250  0.7227 -0.0307  0.4342
  154SAPE  H17R17122   0.474   3.650   8.227 -0.5112  2.8979 -0.7681
  154SAPE  H17S17123   0.579   3.736   8.354  1.5728  2.8085 -0.5973
  154SAPE  C21817124   0.679   3.588   8.225  0.1190 -0.0104  0.2820
  154SAPE  H18R17125   0.780   3.625   8.252  0.5961 -1.7168  0.9164
  154SAPE  H18S17126   0.670   3.581   8.114  2.1591  0.5118  0.0557
  154SAPE  C21917127   0.652   3.462   8.295  0.4618 -0.2160 -0.9470
  154SAPE  H19R17128   0.679   3.375   8.231  1.2066 -1.3962  0.8674
  154SAPE  H19S17129   0.543   3.453   8.315  0.4920  2.1030  0.6678
  154SAPE  C22017130   0.736   3.458   8.427 -0.0644 -0.5254  0.5465
  154SAPE  H20R17131   0.718   3.364   8.484 -1.3815  0.6233  2.1166
  154SAPE  H20S17132   0.705   3.541   8.495  0.7076 -0.8637  1.3363
  154SAPE  H20T17133   0.843   3.469   8.401  0.1144 -0.5499  1.2502
  154SAPE   C3317134   0.301   4.651   6.969  0.3128  0.6415 -0.3270
  154SAPE   H3X17135   0.203   4.649   6.916  1.1079 -0.7919 -1.8146
  154SAPE   H3Y17136   0.290   4.735   7.041 -1.3528  0.7841 -0.7070
  154SAPE   C3417137   0.324   4.524   7.057  0.4718 -0.1738  0.7774
  154SAPE   H4X17138   0.420   4.540   7.112  1.1660  1.7985 -0.8787
  154SAPE   H4Y17139   0.342   4.431   7.000 -0.8130  0.1465 -0.2073
  154SAPE   C3517140   0.203   4.486   7.148 -0.3250  0.6193  0.0732
  154SAPE   H5X17141   0.117   4.488   7.078 -0.7255  1.6308  0.5829
  154SAPE   H5Y17142   0.180   4.558   7.229  0.9155 -0.9038  1.8699
  154SAPE   C3617143   0.221   4.353   7.222  0.2728 -0.6630  0.2792
  154SAPE   H6X17144   0.329   4.360   7.248  1.2467  0.2831 -3.4042
  154SAPE   H6Y17145   0.206   4.268   7.152  1.5850 -0.7511  0.0675
  154SAPE   C3717146   0.142   4.334   7.353  0.4415 -0.4423 -0.2245
  154SAPE   H7X17147   0.101   4.231   7.353 -0.0929 -0.3356 -3.4442
  154SAPE   H7Y17148   0.054   4.402   7.344  1.9338  1.2982 -2.7861
  154SAPE   C3817149   0.218   4.349   7.484 -0.4887 -0.5459  0.1789
  154SAPE   H8X17150   0.278   4.443   7.480  1.0875 -1.5161  0.1281
  154SAPE   H8Y17151   0.290   4.264   7.482  0.1927  0.0204 -0.1534
  154SAPE   C3917152   0.122   4.347   7.597  0.0553 -0.2024  0.5656
  154SAPE   H9X17153   0.045   4.272   7.570  2.1088 -3.0950  2.2104
  154SAPE   H9Y17154   0.076   4.447   7.614  0.5520  0.1717 -0.2053
  154SAPE  C31017155   0.189   4.314   7.732  0.1390  0.3021 -0.3171
  154SAPE  H10X17156   0.265   4.393   7.749 -0.3657  0.7365 -0.0600
  154SAPE  H10Y17157   0.256   4.225   7.728 -0.4391 -0.1494 -0.1262
  154SAPE  C31117158   0.086   4.288   7.849  0.5918  0.2284  0.4616
  154SAPE  H11X17159   0.032   4.192   7.837 -0.4931  0.7051  1.3219
  154SAPE  H11Y17160  -0.003   4.355   7.839 -0.7943 -0.9903  3.4138
  154SAPE  C31217161   0.146   4.303   7.986 -0.4586 -0.1795  0.0780
  154SAPE  H12X17162   0.226   4.380   7.981 -0.1958 -0.4740 -0.3277
  154SAPE  H12Y17163   0.200   4.207   8.005  1.1153  0.7022  0.1906
  154SAPE  C31317164   0.039   4.329   8.093  0.0155  0.0604  0.0403
  154SAPE  H13X17165  -0.018   4.235   8.105  3.3066 -2.0634  0.2315
  154SAPE  H13Y17166  -0.019   4.412   8.048 -0.8218 -0.6633 -0.2398
  154SAPE  C31417167   0.106   4.359   8.236 -0.4348  0.1359  0.3272
  154SAPE  H14X17168   0.036   4.423   8.294  2.0303  3.5567 -0.2432
  154SAPE  H14Y17169   0.189   4.429   8.213 -2.0804  1.8215 -0.7720
  154SAPE  C31517170   0.150   4.237   8.309 -0.9946 -0.2880 -0.3554
  154SAPE  H15X17171   0.243   4.191   8.271 -0.8832  0.4138 -0.9460
  154SAPE  H15Y17172   0.072   4.161   8.286 -0.1912 -1.6629  1.2855
  154SAPE  C31617173   0.175   4.257   8.457  0.3710 -0.4174 -0.6450
  154SAPE  H16X17174   0.081   4.285   8.511  0.7088 -0.5750  0.0307
  154SAPE  H16Y17175   0.250   4.339   8.465  0.6235 -0.7457  0.6162
  154SAPE  C31717176   0.211   4.132   8.533  0.2307 -0.2030  0.1313
  154SAPE  H17X17177   0.123   4.065   8.525 -0.5241  0.7612  0.1546
  154SAPE  H17Y17178   0.214   4.153   8.642 -0.4177  1.2757 -0.1055
  154SAPE  C31817179   0.337   4.050   8.489 -0.2662  0.2088 -0.4597
  154SAPE  H18X17180   0.353   3.960   8.552 -0.4746  1.1614  1.0102
  154SAPE  H18Y17181   0.417   4.126   8.477 -0.4709  0.9250  2.0157
  154SAPE  H18Z17182   0.324   4.012   8.386 -0.4672 -2.0417  0.3338
  155SAPE     N17183   2.900   4.434   6.300 -0.0606  0.1273 -0.1435
  155SAPE   HN117184   2.995   4.444   6.342 -0.2251  0.0988  0.2438
  155SAPE   HN217185   2.891   4.332   6.283  4.1275 -1.0178  2.7817
  155SAPE   HN317186   2.911   4.495   6.216  0.9940  0.1757  0.0193
  155SAPE   C1217187   2.792   4.482   6.399  0.6366  0.5457 -0.5970
  155SAPE  H12A17188   2.752   4.402   6.465  0.8550  0.2165 -0.8658
  155SAPE  H12B17189   2.705   4.525   6.345 -1.0139 -0.3000  1.2302
  155SAPE   C1117190   2.851   4.594   6.489 -0.4422  0.1199  0.1255
  155SAPE  H11A17191   2.937   4.550   6.544 -1.0673 -1.2788  0.0140
  155SAPE  H11B17192   2.779   4.635   6.562 -0.6635  0.0605 -0.0579
  155SAPE     P17193   2.906   4.854   6.437 -0.2598 -0.0259  0.0299
  155SAPE   O1317194   3.015   4.924   6.359  0.3907 -0.0473 -0.3318
  155SAPE   O1417195   2.766   4.899   6.409 -0.6854 -0.4272  0.3721
  155SAPE   O1217196   2.904   4.699   6.406  0.0420 -0.2013 -0.4458
  155SAPE   O1117197   2.929   4.875   6.591 -0.0946 -0.1498  0.5238
  155SAPE    C117198   3.039   4.815   6.654  0.8779  0.1606  0.4851
  155SAPE    HA17199   3.018   4.711   6.690  0.2652  0.7665  1.9660
  155SAPE    HB17200   3.124   4.804   6.584  1.1203 -0.6717  0.8876
  155SAPE    C217201   3.074   4.907   6.780 -0.1829  0.3032 -0.0968
  155SAPE    HS17202   3.160   4.865   6.836 -0.5912 -0.2238  0.1453
  155SAPE   O2117203   2.964   4.904   6.869  0.3781  0.3149 -0.3372
  155SAPE   C2117204   2.953   4.801   6.946  0.2075  0.4681 -0.4545
  155SAPE   O2217205   3.010   4.694   6.939  0.4872 -0.2982  0.6941
  155SAPE   C2217206   2.846   4.841   7.049 -0.2860 -0.2450 -0.3995
  155SAPE   H2R17207   2.834   4.951   7.040 -2.8829 -0.5969 -2.2806
  155SAPE   H2S17208   2.758   4.782   7.015  1.1859 -0.2773 -4.7347
  155SAPE    C317209   3.106   5.046   6.726 -0.5779 -0.6313  0.3128
  155SAPE    HX17210   3.019   5.088   6.672 -0.8641  1.9062  2.5198
  155SAPE    HY17211   3.172   5.042   6.637  0.5427  0.4855  1.0575
  155SAPE   O3117212   3.168   5.130   6.824 -0.6893  0.2164  0.2098
  155SAPE   C3117213   3.081   5.215   6.892  0.0452  1.4278 -0.5073
  155SAPE   O3217214   2.959   5.220   6.874 -1.1774  0.2745  0.2634
  155SAPE   C3217215   3.155   5.274   7.012  0.0865 -0.2174 -0.2001
  155SAPE   H2X17216   3.116   5.375   7.035  0.4364  0.1394 -1.0940
  155SAPE   H2Y17217   3.262   5.284   6.984  0.0073 -0.7997 -0.7501
  155SAPE   C2317218   2.883   4.791   7.193  0.4023 -0.8688 -0.7246
  155SAPE   H3R17219   2.983   4.831   7.219 -0.3410  1.3357 -0.9912
  155SAPE   H3S17220   2.885   4.680   7.194 -1.4771 -0.9366  0.8808
  155SAPE   C2417221   2.786   4.840   7.308  0.0510  0.0305 -0.0109
  155SAPE   H4R17222   2.782   4.764   7.388 -0.6223 -0.3033 -0.3464
  155SAPE   H4S17223   2.683   4.834   7.264  1.2625  1.2241 -3.3751
  155SAPE   C2517224   2.837   4.973   7.363  0.1511 -0.8892  0.0875
  155SAPE   H5R17225   2.852   5.046   7.283 -0.1150 -1.6291 -0.6463
  155SAPE   C2617226   2.861   5.011   7.490  1.0566 -0.0628 -0.9250
  155SAPE   H6R17227   2.918   5.104   7.504  1.5690 -0.6175  0.9274
  155SAPE   C2717228   2.840   4.926   7.621  0.0792  0.1317 -0.1066
  155SAPE   H7R17229   2.737   4.886   7.617  0.9390 -2.3877  1.1014
  155SAPE   H7S17230   2.861   4.993   7.707  3.2478  0.6455 -1.1359
  155SAPE   C2817231   2.935   4.811   7.621 -0.0928 -0.4898 -0.7630
  155SAPE   H8R17232   2.945   4.754   7.527  3.1032 -2.4178  0.5863
  155SAPE   C2917233   3.024   4.785   7.717  0.2197 -0.4933  0.4443
  155SAPE   H9R17234   3.089   4.700   7.691  0.9002  0.8322 -2.6744
  155SAPE  C21017235   3.066   4.848   7.849  0.6907 -0.0361 -0.1415
  155SAPE  H10R17236   3.038   4.954   7.864  0.6504 -0.3761  2.7145
  155SAPE  H10S17237   3.177   4.847   7.859  0.8559  0.7151 -1.5474
  155SAPE  C21117238   3.031   4.760   7.973  0.2921  0.0299  0.7040
  155SAPE  H11R17239   3.059   4.655   7.959 -0.5175 -0.1939  0.7128
  155SAPE  C21217240   2.958   4.791   8.079  1.0729  0.0639 -0.1840
  155SAPE  H12R17241   2.949   4.719   8.162  2.6545 -1.3775 -1.2079
  155SAPE  C21317242   2.924   4.931   8.108  0.2605  0.8136  0.6056
  155SAPE  H13R17243   2.983   4.995   8.039 -0.1929 -0.7765 -1.3527
  155SAPE  H13S17244   2.979   4.963   8.199  1.1248 -1.7808  1.1046
  155SAPE  C21417245   2.771   4.952   8.120 -0.0893 -0.5825 -0.1640
  155SAPE  H14R17246   2.716   4.956   8.024  1.5032  1.2702 -1.0730
  155SAPE  C21517247   2.704   4.972   8.238 -0.6988  0.6212 -0.1888
  155SAPE  H15R17248   2.595   4.982   8.242 -0.5867  1.5522  0.9753
  155SAPE  C21617249   2.764   4.979   8.379  0.0475  0.1211 -0.1743
  155SAPE  H16R17250   2.771   5.085   8.412  1.2644  0.1647 -0.5242
  155SAPE  H16S17251   2.873   4.958   8.371  0.3262  1.7396 -1.3014
  155SAPE  C21717252   2.691   4.893   8.484 -0.1388  0.1757 -0.0650
  155SAPE  H17R17253   2.694   4.788   8.448 -0.6563  0.8583 -2.2430
  155SAPE  H17S17254   2.582   4.912   8.475 -0.6670 -2.7766 -1.0406
  155SAPE  C21817255   2.746   4.932   8.620 -0.7912  0.2803  0.2272
  155SAPE  H18R17256   2.724   5.040   8.638 -1.8765  0.2195 -0.6501
  155SAPE  H18S17257   2.857   4.935   8.619 -0.6163 -2.5532 -1.5300
  155SAPE  C21917258   2.685   4.837   8.726 -0.2084  0.7040  0.1984
  155SAPE  H19R17259   2.739   4.856   8.822 -1.9475  1.1162  1.1494
  155SAPE  H19S17260   2.715   4.734   8.697 -0.4374  0.2188  1.5822
  155SAPE  C22017261   2.538   4.832   8.742 -0.5156 -0.3352 -0.7573
  155SAPE  H20R17262   2.489   4.806   8.646  1.2509  2.3689 -2.5668
  155SAPE  H20S17263   2.484   4.925   8.768 -1.5185 -1.0595 -0.1977
  155SAPE  H20T17264   2.517   4.757   8.821  1.9128 -0.1994  0.1277
  155SAPE   C3317265   3.136   5.201   7.148  0.4118  0.4268  0.5062
  155SAPE   H3X17266   3.116   5.096   7.120 -1.0057  1.5123 -3.1423
  155SAPE   H3Y17267   3.045   5.241   7.198 -0.1359  2.2742 -1.7770
  155SAPE   C3417268   3.250   5.228   7.236 -0.0718  0.1400  0.2397
  155SAPE   H4X17269   3.279   5.335   7.246 -2.3105  0.8403 -0.2035
  155SAPE   H4Y17270   3.330   5.158   7.203 -0.5316 -0.1428 -0.2706
  155SAPE   C3517271   3.214   5.189   7.383  0.0521  0.3748  0.8489
  155SAPE   H5X17272   3.194   5.080   7.392  3.2965 -0.5813 -1.3700
  155SAPE   H5Y17273   3.139   5.261   7.422  1.9466  4.0007 -1.6116
  155SAPE   C3617274   3.340   5.205   7.473  0.0517  0.6646  0.4239
  155SAPE   H6X17275   3.391   5.303   7.471 -0.0219  1.0641  5.3057
  155SAPE   H6Y17276   3.412   5.124   7.449 -0.7781 -0.1110  0.4940
  155SAPE   C3717277   3.309   5.193   7.623  0.4293 -0.6188  0.1100
  155SAPE   H7X17278   3.262   5.093   7.637 -0.6490 -0.4954 -2.1548
  155SAPE   H7Y17279   3.226   5.262   7.648 -1.8214 -2.8213 -0.8125
  155SAPE   C3817280   3.438   5.220   7.700 -0.0061 -0.5000 -0.2417
  155SAPE   H8X17281   3.476   5.321   7.674  1.6033 -0.9866  0.1068
  155SAPE   H8Y17282   3.519   5.153   7.664  0.3628  0.1319 -0.6066
  155SAPE   C3917283   3.423   5.216   7.849 -0.0813 -0.3262 -0.6867
  155SAPE   H9X17284   3.359   5.299   7.886  1.0480  1.3995 -2.3955
  155SAPE   H9Y17285   3.519   5.235   7.903  0.0730 -2.5833 -0.0452
  155SAPE  C31017286   3.374   5.074   7.900  0.4758 -0.2104 -0.1150
  155SAPE  H10X17287   3.430   5.003   7.836  0.0833 -1.2794  0.6974
  155SAPE  H10Y17288   3.267   5.061   7.874  0.6817 -1.3359 -0.4796
  155SAPE  C31117289   3.415   5.056   8.051 -0.1709  0.0232 -0.7865
  155SAPE  H11X17290   3.387   5.152   8.100  0.4338  0.4723 -1.3163
  155SAPE  H11Y17291   3.523   5.038   8.064 -0.1733 -1.2825 -2.2342
  155SAPE  C31217292   3.332   4.943   8.127 -0.1403 -0.1175  0.1449
  155SAPE  H12X17293   3.322   4.867   8.046 -0.9664  1.5175 -1.3355
  155SAPE  H12Y17294   3.233   4.981   8.159  0.0696  1.5210 -1.0164
  155SAPE  C31317295   3.414   4.892   8.251 -0.3558  0.2796  0.7312
  155SAPE  H13X17296   3.501   4.840   8.205 -1.8778 -1.1534 -0.6829
  155SAPE  H13Y17297   3.357   4.810   8.300  1.2484  0.0078  2.2418
  155SAPE  C31417298   3.448   4.998   8.358 -0.2624  0.0771  0.2515
  155SAPE  H14X17299   3.355   5.024   8.412  0.4765  0.9556  1.1294
  155SAPE  H14Y17300   3.491   5.093   8.320 -1.2043  1.2926  2.0890
  155SAPE  C31517301   3.542   4.953   8.473 -0.2191  0.1033  0.0171
  155SAPE  H15X17302   3.552   5.023   8.559 -0.6633 -0.9037  0.9242
  155SAPE  H15Y17303   3.638   4.928   8.424 -1.4641 -2.2581 -1.4279
  155SAPE  C31617304   3.497   4.820   8.541 -0.0562  0.0137  0.2885
  155SAPE  H16X17305   3.501   4.740   8.464  0.9818  0.5308 -0.2134
  155SAPE  H16Y17306   3.395   4.826   8.584 -1.4015 -1.1528 -2.5050
  155SAPE  C31717307   3.598   4.771   8.648 -0.0698  0.5469 -1.0783
  155SAPE  H17X17308   3.595   4.834   8.740 -0.3590  1.3042 -1.5936
  155SAPE  H17Y17309   3.702   4.801   8.623  0.2017  0.0999 -0.5073
  155SAPE  C31817310   3.586   4.620   8.697 -0.2298  0.3949  0.1893
  155SAPE  H18X17311   3.570   4.552   8.611 -0.7413  0.7985 -0.0450
  155SAPE  H18Y17312   3.502   4.614   8.769  0.0989  0.0593  0.5462
  155SAPE  H18Z17313   3.665   4.577   8.761 -1.0828 -1.7318 -0.1158
  156SAPE     N17314   5.732   5.107   6.351  0.1779 -0.4092 -0.8210
  156SAPE   HN117315   5.666   5.116   6.272 -0.5179  2.6921 -0.0147
  156SAPE   HN217316   5.675   5.064   6.426 -0.3874  0.0626 -0.9771
  156SAPE   HN317317   5.758   5.197   6.395 -2.6283  0.3564 -0.5465
  156SAPE   C1217318   5.851   5.019   6.328  0.3680 -0.0815  0.0599
  156SAPE  H12A17319   5.911   5.068   6.248 -1.0599  1.4090 -0.1783
  156SAPE  H12B17320   5.804   4.927   6.287  2.3566 -0.9565 -0.3842
  156SAPE   C1117321   5.935   4.999   6.452 -0.4246  0.1025 -0.7518
  156SAPE  H11A17322   6.016   4.924   6.446 -0.3033  0.1325  0.2278
  156SAPE  H11B17323   5.875   4.955   6.535 -0.9365 -1.7965 -2.0691
  156SAPE     P17324   6.133   5.180   6.496  0.4416 -0.2204  0.0290
  156SAPE   O1317325   6.220   5.090   6.418  0.5903 -0.5459 -0.7459
  156SAPE   O1417326   6.140   5.323   6.452 -0.4865 -0.2246 -0.6191
  156SAPE   O1217327   5.984   5.129   6.492 -0.4445  0.1798  0.6644
  156SAPE   O1117328   6.178   5.168   6.649  0.1755  0.0020  0.1745
  156SAPE    C117329   6.133   5.054   6.723 -0.4220 -0.2947 -0.6308
  156SAPE    HA17330   6.131   4.963   6.659  0.3569 -0.3437 -0.5937
  156SAPE    HB17331   6.211   5.034   6.799 -1.0465  0.3788  0.2037
  156SAPE    C217332   5.991   5.077   6.794  0.3342 -0.2256 -0.2238
  156SAPE    HS17333   5.920   5.092   6.710 -0.6709  3.5600  1.0973
  156SAPE   O2117334   6.015   5.186   6.886  0.1264 -0.5883  0.0261
  156SAPE   C2117335   5.914   5.271   6.888 -0.1663  0.5741 -0.2194
  156SAPE   O2217336   5.813   5.266   6.818 -0.5869  0.0811  0.3143
  156SAPE   C2217337   5.938   5.376   7.002 -0.0185 -0.0741  0.4339
  156SAPE   H2R17338   5.870   5.350   7.086  0.1500  0.7770  0.8444
  156SAPE   H2S17339   6.041   5.349   7.033 -0.0861 -0.0579  0.6752
  156SAPE    C317340   5.935   4.961   6.882  0.1492 -0.0347  0.1861
  156SAPE    HX17341   5.908   4.877   6.815 -0.7917 -0.1622  0.7017
  156SAPE    HY17342   5.845   4.995   6.937  0.4766  1.7959 -0.3528
  156SAPE   O3117343   6.034   4.913   6.971 -0.0941  0.2954 -0.4832
  156SAPE   C3117344   6.040   4.968   7.092 -0.2449  0.2468 -1.3053
  156SAPE   O3217345   5.971   5.062   7.130 -0.4719  0.0629 -0.6498
  156SAPE   C3217346   6.160   4.910   7.186  0.2660 -0.5658 -0.0523
  156SAPE   H2X17347   6.257   4.927   7.134 -0.2745 -0.7902 -1.1865
  156SAPE   H2Y17348   6.154   4.807   7.225 -0.8966  0.2698  2.1442
  156SAPE   C2317349   5.925   5.525   6.967 -0.5077  0.4756 -0.4482
  156SAPE   H3R17350   5.826   5.543   6.920 -1.7144 -0.5387  1.5612
  156SAPE   H3S17351   6.003   5.557   6.896  1.4014 -0.0605  1.3144
  156SAPE   C2417352   5.941   5.611   7.091 -0.5390 -0.6375 -0.5261
  156SAPE   H4R17353   5.844   5.595   7.143 -1.0262  1.5757 -0.6480
  156SAPE   H4S17354   5.946   5.714   7.051  2.3465 -2.3504 -5.4200
  156SAPE   C2517355   6.068   5.587   7.168 -0.0838 -0.5691  0.7445
  156SAPE   H5R17356   6.161   5.607   7.111 -1.4974  1.4710 -0.9922
  156SAPE   C2617357   6.073   5.543   7.297  0.2819 -0.3992  0.8646
  156SAPE   H6R17358   6.174   5.523   7.336  0.3966 -0.5633  0.4878
  156SAPE   C2717359   5.960   5.503   7.383 -0.0734  0.3668 -0.7736
  156SAPE   H7R17360   5.985   5.402   7.420 -2.5249 -1.4504 -3.5995
  156SAPE   H7S17361   5.868   5.468   7.332  1.1078  0.3004 -2.9589
  156SAPE   C2817362   5.925   5.601   7.493 -0.6912  0.0961 -0.3013
  156SAPE   H8R17363   5.846   5.676   7.477 -0.7649 -0.2739 -1.9185
  156SAPE   C2917364   5.997   5.616   7.604  0.1583  0.0688  0.4555
  156SAPE   H9R17365   5.954   5.677   7.685 -0.1760  0.5152 -0.0529
  156SAPE  C21017366   6.121   5.541   7.647  0.2823 -0.4652  0.2633
  156SAPE  H10R17367   6.198   5.617   7.670  0.1081 -0.0086 -0.6092
  156SAPE  H10S17368   6.155   5.482   7.559 -1.5207  0.6372 -1.2498
  156SAPE  C21117369   6.087   5.455   7.763  1.1846  0.2190  0.2797
  156SAPE  H11R17370   6.059   5.354   7.732  4.7923 -2.4828  4.6243
  156SAPE  C21217371   6.076   5.481   7.899  0.0473 -0.1045  0.4537
  156SAPE  H12R17372   6.051   5.410   7.979 -0.2276  0.9587  1.3495
  156SAPE  C21317373   6.115   5.616   7.956  0.6327  0.4776  0.2063
  156SAPE  H13R17374   6.097   5.703   7.890 -1.9316  1.1718  1.6841
  156SAPE  H13S17375   6.221   5.606   7.985  0.3961 -0.5753  0.7646
  156SAPE  C21417376   6.029   5.656   8.074  0.2432  0.0123 -0.2642
  156SAPE  H14R17377   5.944   5.716   8.039  1.4900  1.4559 -0.9109
  156SAPE  C21517378   6.045   5.632   8.206 -0.1595  0.1744 -0.2242
  156SAPE  H15R17379   5.976   5.662   8.285 -0.9527 -2.0047 -0.0228
  156SAPE  C21617380   6.166   5.567   8.265 -0.1204 -0.1257  0.3628
  156SAPE  H16R17381   6.268   5.588   8.227 -0.6767 -0.4634 -1.4311
  156SAPE  H16S17382   6.161   5.461   8.231  1.1478  0.6956 -2.6641
  156SAPE  C21717383   6.174   5.576   8.417  0.6207  0.2977 -0.2964
  156SAPE  H17R17384   6.087   5.528   8.466 -0.0887  0.7167 -1.1129
  156SAPE  H17S17385   6.158   5.683   8.441 -1.7589 -0.0723 -0.0235
  156SAPE  C21817386   6.302   5.509   8.475 -0.0614 -0.4037  0.9355
  156SAPE  H18R17387   6.395   5.558   8.437 -1.4739  1.6668 -0.0638
  156SAPE  H18S17388   6.297   5.402   8.444  1.8050 -0.2633 -0.0347
  156SAPE  C21917389   6.302   5.516   8.626 -0.8179 -0.1732 -0.7943
  156SAPE  H19R17390   6.217   5.457   8.666  0.1546 -1.5678 -0.7047
  156SAPE  H19S17391   6.289   5.618   8.666 -0.7490 -0.8648  1.1033
  156SAPE  C22017392   6.435   5.470   8.697 -0.3734 -0.5762 -0.6712
  156SAPE  H20R17393   6.443   5.359   8.693  2.1164 -0.4347 -1.7809
  156SAPE  H20S17394   6.435   5.508   8.802  2.3611  1.3773 -1.2644
  156SAPE  H20T17395   6.521   5.520   8.647 -0.6195 -1.4321 -1.9984
  156SAPE   C3317396   6.171   5.005   7.313  0.6415  0.4795 -0.2186
  156SAPE   H3X17397   6.079   4.983   7.371  0.7035  0.5015 -0.1118
  156SAPE   H3Y17398   6.168   5.110   7.277  0.1932  0.5172 -0.0703
  156SAPE   C3417399   6.292   4.976   7.402 -0.0175  0.1019 -0.0069
  156SAPE   H4X17400   6.384   5.004   7.348 -1.1486  1.2145 -1.4410
  156SAPE   H4Y17401   6.291   4.866   7.419  1.8245  0.0820  0.1222
  156SAPE   C3517402   6.272   5.050   7.534  1.0645 -0.3196 -0.2469
  156SAPE   H5X17403   6.164   5.050   7.558  0.9228 -1.4281 -0.8128
  156SAPE   H5Y17404   6.281   5.158   7.508 -3.0362  0.6603  1.6019
  156SAPE   C3617405   6.376   5.012   7.640  0.1852 -0.6051  0.7234
  156SAPE   H6X17406   6.475   5.030   7.593  0.0008 -0.6126  0.3247
  156SAPE   H6Y17407   6.361   4.905   7.668 -0.5861 -0.7528 -0.1941
  156SAPE   C3717408   6.362   5.100   7.771  0.5851  0.6407  1.3158
  156SAPE   H7X17409   6.257   5.100   7.806  0.8185 -0.1968  2.0541
  156SAPE   H7Y17410   6.392   5.205   7.747 -1.3488  0.4459 -2.6143
  156SAPE   C3817411   6.458   5.063   7.878 -0.1088 -0.5136 -0.0150
  156SAPE   H8X17412   6.551   5.121   7.893 -0.1006 -0.1854 -1.2842
  156SAPE   H8Y17413   6.481   4.954   7.876 -0.5688 -0.6548  1.1245
  156SAPE   C3917414   6.398   5.089   8.021  0.4726  0.3393  0.3645
  156SAPE   H9X17415   6.300   5.037   8.017  0.5212  0.1960 -4.0071
  156SAPE   H9Y17416   6.383   5.198   8.036  0.1223  0.1932  1.0697
  156SAPE  C31017417   6.473   5.041   8.139  0.2564 -0.3072 -0.0653
  156SAPE  H10X17418   6.576   5.083   8.145 -0.3763  1.0885  2.5369
  156SAPE  H10Y17419   6.482   4.930   8.139  0.9331 -0.2572  0.4547
  156SAPE  C31117420   6.396   5.085   8.267  0.7010  0.3111  0.4846
  156SAPE  H11X17421   6.289   5.054   8.272  0.4465  1.2282  0.9188
  156SAPE  H11Y17422   6.391   5.195   8.282 -0.1596  0.2108  1.0152
  156SAPE  C31217423   6.449   5.016   8.397  0.4214  0.2151  0.5110
  156SAPE  H12X17424   6.555   5.045   8.413  1.8831 -3.6711 -0.8274
  156SAPE  H12Y17425   6.447   4.905   8.394  1.9039  0.1894 -0.3255
  156SAPE  C31317426   6.360   5.068   8.519 -0.3198  0.8452 -0.1634
  156SAPE  H13X17427   6.257   5.030   8.506 -0.0891  0.8882 -2.4787
  156SAPE  H13Y17428   6.352   5.179   8.526 -1.5305  0.7909 -0.4615
  156SAPE  C31417429   6.407   5.008   8.652  0.0292  1.4807 -0.0771
  156SAPE  H14X17430   6.516   5.019   8.667  0.4778 -1.4980 -0.4324
  156SAPE  H14Y17431   6.395   4.898   8.640  1.0492  1.0725  2.2003
  156SAPE  C31517432   6.338   5.051   8.784  0.3152  0.1947  0.4660
  156SAPE  H15X17433   6.242   4.994   8.788  0.7771 -0.6154  0.1755
  156SAPE  H15Y17434   6.321   5.160   8.781 -0.8733  0.0076 -0.5930
  156SAPE  C31617435   6.421   5.006   8.907 -0.3549 -0.3897  0.1269
  156SAPE  H16X17436   6.530   5.020   8.892  0.3951 -3.0153  2.2259
  156SAPE  H16Y17437   6.415   4.895   8.910 -1.9413 -0.4071 -2.0004
  156SAPE  C31717438   6.389   5.080   9.031 -0.1493  0.5130  0.1696
  156SAPE  H17X17439   6.427   5.022   9.118 -0.4226  2.4482  1.6377
  156SAPE  H17Y17440   6.278   5.085   9.038 -0.2140  0.1068 -0.4096
  156SAPE  C31817441   6.447   5.220   9.045 -0.1748  0.0410  0.6189
  156SAPE  H18X17442   6.437   5.283   8.954 -0.2006  0.1755  0.7130
  156SAPE  H18Y17443   6.557   5.221   9.059  0.1073  0.4304 -1.3296
  156SAPE  H18Z17444   6.387   5.282   9.116 -0.8587 -0.1177  0.1866
  157SAPE     N17445   4.112   2.642   6.119  0.4057  0.5562  0.6181
  157SAPE   HN117446   4.057   2.643   6.208  0.1907 -1.6994  0.5799
  157SAPE   HN217447   4.210   2.641   6.153  1.2572 -0.3198 -1.6837
  157SAPE   HN317448   4.106   2.730   6.065 -0.8050 -0.5646 -1.1950
  157SAPE   C1217449   4.112   2.512   6.037  0.3420 -0.1742 -0.0083
  157SAPE  H12A17450   4.200   2.528   5.971  1.3820  0.4035  1.4612
  157SAPE  H12B17451   4.022   2.506   5.972  2.9798 -0.6064 -3.9306
  157SAPE   C1117452   4.105   2.387   6.112 -0.6453 -0.4113 -0.3316
  157SAPE  H11A17453   4.189   2.368   6.183 -0.5483 -1.4645 -0.7063
  157SAPE  H11B17454   4.114   2.310   6.033 -1.1621 -1.5909  0.7279
  157SAPE     P17455   3.966   2.266   6.300  0.1737 -0.2453 -0.0692
  157SAPE   O1317456   3.820   2.268   6.327  0.3609 -0.1432  0.8688
  157SAPE   O1417457   4.030   2.135   6.282 -0.3179  0.2667 -0.3859
  157SAPE   O1217458   3.985   2.375   6.187  0.1208  0.2074 -0.2822
  157SAPE   O1117459   4.032   2.342   6.413  0.2304 -0.0192 -0.4179
  157SAPE    C117460   3.971   2.344   6.547 -0.5104  0.6236  0.1752
  157SAPE    HA17461   4.034   2.413   6.606  0.5276  0.4660 -0.7179
  157SAPE    HB17462   3.865   2.377   6.542 -0.8816 -0.6987 -1.4945
  157SAPE    C217463   3.977   2.205   6.625 -0.1497  0.5642  0.7376
  157SAPE    HS17464   3.934   2.127   6.559 -0.8005  1.1045  0.5115
  157SAPE   O2117465   3.909   2.211   6.749 -0.3053  0.0636  0.2711
  157SAPE   C2117466   3.772   2.222   6.729  0.5323 -0.0834  0.3823
  157SAPE   O2217467   3.717   2.211   6.622 -0.4101 -0.0615 -0.0476
  157SAPE   C2217468   3.701   2.235   6.860 -0.3274 -0.4602 -0.2761
  157SAPE   H2R17469   3.599   2.193   6.845 -1.3748  2.1146 -1.0756
  157SAPE   H2S17470   3.766   2.189   6.937 -0.0590 -2.5577 -1.6606
  157SAPE    C317471   4.115   2.158   6.655 -0.3296  0.4359 -0.2534
  157SAPE    HX17472   4.178   2.246   6.683  1.1224 -0.8627  0.7620
  157SAPE    HY17473   4.158   2.112   6.564 -3.7016 -1.2612 -1.1256
  157SAPE   O3117474   4.112   2.062   6.767  0.0011  0.1016 -0.0808
  157SAPE   C3117475   4.085   1.934   6.735  0.0188 -0.4196  0.2640
  157SAPE   O3217476   4.034   1.894   6.634  0.0312  0.7276  0.6470
  157SAPE   C3217477   4.118   1.854   6.856  0.2073  0.5386 -0.1263
  157SAPE   H2X17478   4.063   1.908   6.936  1.6767  0.2436  1.1385
  157SAPE   H2Y17479   4.223   1.853   6.891  0.0295 -1.8054  0.5138
  157SAPE   C2317480   3.678   2.385   6.911  0.3113  0.3973  1.1094
  157SAPE   H3R17481   3.629   2.441   6.828  1.4099  0.4228  0.4476
  157SAPE   H3S17482   3.775   2.435   6.933  1.2025  0.1185 -1.7128
  157SAPE   C2417483   3.587   2.407   7.034  0.0336  0.5478 -0.6043
  157SAPE   H4R17484   3.486   2.363   7.026  0.1845  0.1764 -0.4883
  157SAPE   H4S17485   3.581   2.517   7.049 -0.3627  0.2297  2.0610
  157SAPE   C2517486   3.647   2.349   7.158  0.0745  0.1870  0.3553
  157SAPE   H5R17487   3.668   2.241   7.145 -1.1095 -0.1127  0.7984
  157SAPE   C2617488   3.678   2.410   7.280 -0.0772  0.4428  0.5098
  157SAPE   H6R17489   3.724   2.350   7.360 -0.2117 -1.4619 -0.7688
  157SAPE   C2717490   3.652   2.553   7.308 -0.3259 -0.3430 -1.2957
  157SAPE   H7R17491   3.543   2.574   7.310 -0.1354  1.1986  2.5274
  157SAPE   H7S17492   3.696   2.613   7.226  0.9871 -1.4721 -1.4518
  157SAPE   C2817493   3.716   2.597   7.444 -0.5723 -0.4210  0.2469
  157SAPE   H8R17494   3.815   2.643   7.431 -1.2109  0.4873 -2.0410
  157SAPE   C2917495   3.664   2.590   7.569  0.0474 -1.1549  0.2772
  157SAPE   H9R17496   3.724   2.637   7.648  0.8492 -2.2465  0.3398
  157SAPE  C21017497   3.526   2.536   7.601  0.3409  0.7806 -0.2811
  157SAPE  H10R17498   3.529   2.465   7.686  1.3137  0.6409 -0.4206
  157SAPE  H10S17499   3.479   2.481   7.517 -1.4586  0.9551  0.5483
  157SAPE  C21117500   3.440   2.653   7.637  0.2946 -0.3868 -0.3557
  157SAPE  H11R17501   3.362   2.680   7.564  0.7362  1.0768 -0.3090
  157SAPE  C21217502   3.453   2.740   7.739 -0.5305  0.9441 -0.5045
  157SAPE  H12R17503   3.375   2.817   7.751 -3.0442 -1.4501 -0.3401
  157SAPE  C21317504   3.564   2.739   7.843  0.0931  0.6118  0.3946
  157SAPE  H13R17505   3.638   2.811   7.805  1.7998 -0.6478  1.1960
  157SAPE  H13S17506   3.616   2.641   7.848  0.8615  1.0643  2.4227
  157SAPE  C21417507   3.526   2.772   7.982  0.7538  0.1369 -0.0248
  157SAPE  H14R17508   3.439   2.838   7.984 -2.4722 -3.6036 -2.4230
  157SAPE  C21517509   3.595   2.754   8.096 -0.1917  1.0270  0.1784
  157SAPE  H15R17510   3.571   2.810   8.188 -0.4509  0.8166  0.2394
  157SAPE  C21617511   3.728   2.682   8.111  0.1555 -0.5325 -0.0629
  157SAPE  H16R17512   3.808   2.743   8.064 -1.3367  0.2550 -1.6905
  157SAPE  H16S17513   3.725   2.590   8.049 -0.5820 -1.5394  1.3945
  157SAPE  C21717514   3.778   2.652   8.253  0.1989 -0.3234  0.6240
  157SAPE  H17R17515   3.708   2.585   8.308  0.2836 -2.0446 -1.2256
  157SAPE  H17S17516   3.787   2.750   8.304  0.2656 -0.5440  1.0486
  157SAPE  C21817517   3.921   2.591   8.250 -0.1064 -0.6511 -0.6679
  157SAPE  H18R17518   3.989   2.669   8.211  0.7532 -0.9363  0.2146
  157SAPE  H18S17519   3.921   2.504   8.180  0.6448 -1.7159  0.6032
  157SAPE  C21917520   3.989   2.556   8.390  1.3032  0.2589 -0.4034
  157SAPE  H19R17521   4.004   2.648   8.450  1.4128 -0.8373  1.3283
  157SAPE  H19S17522   4.094   2.523   8.377  1.3461  0.3077 -0.1676
  157SAPE  C22017523   3.925   2.434   8.457 -0.0912 -0.3580  0.5873
  157SAPE  H20R17524   3.831   2.457   8.513 -0.8856  0.5262 -1.0555
  157SAPE  H20S17525   3.992   2.390   8.533  2.9389 -2.1080 -2.8228
  157SAPE  H20T17526   3.894   2.354   8.387  2.0266  0.3049 -1.1870
  157SAPE   C3317527   4.072   1.709   6.864 -0.6354  0.9125  0.2037
  157SAPE   H3X17528   4.149   1.641   6.821  0.2921  2.2872 -0.3871
  157SAPE   H3Y17529   3.982   1.712   6.799  0.0081  4.6928 -0.7299
  157SAPE   C3417530   4.020   1.659   7.000  0.1477 -0.0569 -0.2714
  157SAPE   H4X17531   3.978   1.558   6.985 -1.9956  0.8310 -0.5610
  157SAPE   H4Y17532   3.938   1.725   7.036 -0.7278 -0.0380 -2.2084
  157SAPE   C3517533   4.133   1.657   7.117  0.6716  0.1741  0.3182
  157SAPE   H5X17534   4.147   1.764   7.144 -0.9029  0.1696  1.3110
  157SAPE   H5Y17535   4.224   1.603   7.085 -0.1732 -0.8270 -0.5018
  157SAPE   C3617536   4.083   1.585   7.243 -0.0285 -0.7284  0.1958
  157SAPE   H6X17537   4.028   1.494   7.214 -2.3188  0.5799  0.2246
  157SAPE   H6Y17538   4.006   1.644   7.297  0.5151 -1.4561  1.8443
  157SAPE   C3717539   4.190   1.542   7.338  0.4695  0.3476  0.4902
  157SAPE   H7X17540   4.269   1.485   7.285  1.9614  0.9910  1.9097
  157SAPE   H7Y17541   4.137   1.475   7.409  0.1656  0.2212  0.1465
  157SAPE   C3817542   4.250   1.671   7.401 -0.2795  0.3311 -0.5566
  157SAPE   H8X17543   4.286   1.735   7.318  4.4999 -1.2543  0.0151
  157SAPE   H8Y17544   4.343   1.634   7.450 -0.2606  1.9138  0.6749
  157SAPE   C3917545   4.162   1.750   7.495 -1.0440  0.1101 -0.7019
  157SAPE   H9X17546   4.080   1.778   7.426 -1.0511 -0.7211 -1.0458
  157SAPE   H9Y17547   4.208   1.842   7.536  0.2459 -0.8315  0.0386
  157SAPE  C31017548   4.102   1.679   7.610  0.5395 -0.5827 -0.0621
  157SAPE  H10X17549   4.029   1.609   7.565 -0.6333  0.7318 -0.2472
  157SAPE  H10Y17550   4.060   1.756   7.678  1.4332  0.4519 -0.6547
  157SAPE  C31117551   4.215   1.611   7.700  0.3240 -0.2656 -0.5411
  157SAPE  H11X17552   4.312   1.664   7.692 -0.0378  0.4793 -0.1203
  157SAPE  H11Y17553   4.246   1.517   7.650  4.0031  1.1943 -1.3175
  157SAPE  C31217554   4.173   1.600   7.850  0.5927 -0.2968  0.7939
  157SAPE  H12X17555   4.075   1.550   7.861 -0.1533  0.9318 -0.0312
  157SAPE  H12Y17556   4.163   1.706   7.883  1.0554 -0.2800  0.8950
  157SAPE  C31317557   4.274   1.523   7.932  0.6775 -0.7177 -0.3367
  157SAPE  H13X17558   4.369   1.577   7.913 -1.5855  3.0347 -2.1619
  157SAPE  H13Y17559   4.288   1.419   7.897  2.2113 -0.9265  0.7972
  157SAPE  C31417560   4.244   1.502   8.078 -0.8707  0.0132 -0.3600
  157SAPE  H14X17561   4.173   1.417   8.086  0.2362 -1.2177 -2.5288
  157SAPE  H14Y17562   4.183   1.585   8.119  0.2733  1.1983 -0.9532
  157SAPE  C31517563   4.368   1.463   8.158 -0.1368  0.1217 -0.9185
  157SAPE  H15X17564   4.461   1.523   8.145  0.6172 -0.8444 -0.1374
  157SAPE  H15Y17565   4.410   1.363   8.131  3.1312  1.5173 -1.5555
  157SAPE  C31617566   4.333   1.454   8.308 -0.3055 -0.2740  0.2672
  157SAPE  H16X17567   4.229   1.415   8.319  0.1128 -1.1894  1.1387
  157SAPE  H16Y17568   4.338   1.561   8.339  3.2224  0.0039 -0.8379
  157SAPE  C31717569   4.432   1.381   8.401 -0.7239 -0.0746 -0.4922
  157SAPE  H17X17570   4.427   1.273   8.375  0.5476 -0.0255 -0.9871
  157SAPE  H17Y17571   4.392   1.380   8.505 -1.5962  0.6222 -0.8078
  157SAPE  C31817572   4.580   1.425   8.401 -0.1372  0.6636  0.0360
  157SAPE  H18X17573   4.635   1.347   8.458 -1.6362 -0.9063 -0.5869
  157SAPE  H18Y17574   4.600   1.519   8.457  2.3628  0.1527  0.1142
  157SAPE  H18Z17575   4.627   1.421   8.301 -0.5846  1.4760 -0.2188
  158SAPE     N17576   5.607   3.044   6.309  0.1803 -0.5707 -0.0015
  158SAPE   HN117577   5.645   2.957   6.266 -0.3083 -0.3804 -0.8488
  158SAPE   HN217578   5.575   3.113   6.238  2.0246  0.3964  0.0378
  158SAPE   HN317579   5.682   3.087   6.367  1.7096 -1.6291 -1.1032
  158SAPE   C1217580   5.485   2.996   6.379  1.0958  1.2021 -0.3581
  158SAPE  H12A17581   5.398   3.009   6.312  0.0867 -2.6043 -0.0635
  158SAPE  H12B17582   5.461   3.072   6.455  1.8891  1.7986 -0.6854
  158SAPE   C1117583   5.489   2.845   6.424 -0.2995 -0.5602  0.4318
  158SAPE  H11A17584   5.407   2.831   6.498 -0.5590  0.5360  0.3783
  158SAPE  H11B17585   5.582   2.816   6.476  0.7422  0.0017 -1.0515
  158SAPE     P17586   5.573   2.701   6.219  0.6836  0.2574  0.5480
  158SAPE   O1317587   5.517   2.652   6.091  0.0101  0.5983 -0.0196
  158SAPE   O1417588   5.681   2.801   6.205  0.0531  0.4783 -0.6919
  158SAPE   O1217589   5.457   2.757   6.318  0.2419 -0.0707  0.4011
  158SAPE   O1117590   5.626   2.575   6.306  0.4492 -0.4208  0.1049
  158SAPE    C117591   5.543   2.468   6.355 -1.0704  0.5536  0.1802
  158SAPE    HA17592   5.436   2.487   6.333 -0.3774  2.8329 -1.6627
  158SAPE    HB17593   5.571   2.376   6.301  4.2888  1.5787  0.6330
  158SAPE    C217594   5.559   2.428   6.506 -0.3918  0.5444  0.6531
  158SAPE    HS17595   5.500   2.335   6.522  1.8094 -0.9323  0.7213
  158SAPE   O2117596   5.515   2.527   6.595  0.3978 -0.0457  0.1793
  158SAPE   C2117597   5.385   2.560   6.603  0.4029 -0.3690  0.8446
  158SAPE   O2217598   5.294   2.518   6.532 -0.4251 -0.3261  0.2520
  158SAPE   C2217599   5.365   2.642   6.728  0.0563  0.0320  0.2037
  158SAPE   H2R17600   5.397   2.576   6.812  2.6303 -0.2483 -0.9180
  158SAPE   H2S17601   5.432   2.730   6.715  0.4206 -0.4466 -1.2429
  158SAPE    C317602   5.703   2.388   6.532 -0.2495 -0.3077 -0.8497
  158SAPE    HX17603   5.760   2.481   6.551  0.9260 -0.7656 -2.0228
  158SAPE    HY17604   5.748   2.329   6.449 -0.9546 -2.0568 -0.0416
  158SAPE   O3117605   5.694   2.291   6.636  0.6277  0.0245 -0.0203
  158SAPE   C3117606   5.776   2.319   6.742  0.2698  1.0221  0.4626
  158SAPE   O3217607   5.854   2.408   6.752  0.2348  0.0906  0.0741
  158SAPE   C3217608   5.754   2.210   6.848  0.1760  1.0151  0.7009
  158SAPE   H2X17609   5.784   2.108   6.816 -2.3794  0.3042  0.3547
  158SAPE   H2Y17610   5.644   2.208   6.864 -0.1941  1.1053 -1.4303
  158SAPE   C2317611   5.215   2.677   6.750 -0.2935  0.4716 -0.0258
  158SAPE   H3R17612   5.157   2.582   6.743  0.6760 -0.0953 -0.6015
  158SAPE   H3S17613   5.184   2.750   6.672  0.0210  0.0926 -0.5128
  158SAPE   C2417614   5.185   2.747   6.881 -0.5245  0.7998 -0.2867
  158SAPE   H4R17615   5.241   2.693   6.960  0.8268 -1.3912 -2.5934
  158SAPE   H4S17616   5.078   2.746   6.911 -0.6771  2.9864 -0.5884
  158SAPE   C2517617   5.211   2.890   6.867  0.2082 -0.2520 -0.7927
  158SAPE   H5R17618   5.154   2.963   6.808  0.9019 -0.6027 -1.9137
  158SAPE   C2617619   5.321   2.947   6.921 -0.5839 -0.2412 -0.1845
  158SAPE   H6R17620   5.334   3.056   6.916 -0.1954  0.0143  3.6165
  158SAPE   C2717621   5.425   2.873   6.998 -0.3167 -0.3355  0.3131
  158SAPE   H7R17622   5.495   2.828   6.925 -0.1708  2.2355 -1.2549
  158SAPE   H7S17623   5.383   2.792   7.062 -2.5241  0.1167 -0.4610
  158SAPE   C2817624   5.496   2.978   7.087 -0.2513  0.2514  0.7829
  158SAPE   H8R17625   5.567   3.044   7.034  0.0409 -0.6550  0.0097
  158SAPE   C2917626   5.498   2.987   7.222  0.7301  0.1248  0.2932
  158SAPE   H9R17627   5.553   3.070   7.269 -2.2697  1.8610  0.9609
  158SAPE  C21017628   5.434   2.896   7.327  0.4386  1.0256 -0.0282
  158SAPE  H10R17629   5.512   2.829   7.368  1.8498  2.0684 -0.9140
  158SAPE  H10S17630   5.368   2.821   7.278 -1.7162  2.7520  0.0627
  158SAPE  C21117631   5.350   2.967   7.433 -0.8862 -0.0155 -0.2805
  158SAPE  H11R17632   5.277   3.038   7.392 -1.3877 -0.4417 -0.1394
  158SAPE  C21217633   5.322   2.926   7.560 -0.2546 -0.4540  0.3305
  158SAPE  H12R17634   5.251   2.991   7.614  0.9726  1.7939 -0.6025
  158SAPE  C21317635   5.372   2.804   7.635 -0.5168  0.7032 -0.5086
  158SAPE  H13R17636   5.402   2.727   7.561 -1.3978 -0.3357  0.1722
  158SAPE  H13S17637   5.291   2.758   7.697  1.1744  0.0210  1.3105
  158SAPE  C21417638   5.492   2.836   7.724 -0.0222 -0.5982  0.5376
  158SAPE  H14R17639   5.578   2.837   7.656 -2.9870  0.2762 -3.5348
  158SAPE  C21517640   5.491   2.855   7.860 -0.5284  0.5108 -0.3985
  158SAPE  H15R17641   5.593   2.857   7.902 -1.1190 -1.0330  1.2471
  158SAPE  C21617642   5.374   2.837   7.953 -0.2369 -0.0482  0.0240
  158SAPE  H16R17643   5.298   2.773   7.903 -1.5923 -0.0581  1.9728
  158SAPE  H16S17644   5.320   2.930   7.983 -1.3735 -0.3757 -0.9259
  158SAPE  C21717645   5.417   2.769   8.084 -0.0513  0.1450 -0.0528
  158SAPE  H17R17646   5.444   2.859   8.144 -1.8808  0.9205 -0.3218
  158SAPE  H17S17647   5.493   2.690   8.063 -1.1969 -0.1964 -3.4718
  158SAPE  C21817648   5.295   2.706   8.140  0.1676  0.5377  1.0583
  158SAPE  H18R17649   5.259   2.618   8.083 -1.5649 -0.4100  3.4382
  158SAPE  H18S17650   5.217   2.785   8.137  1.0355  1.3765  0.0783
  158SAPE  C21917651   5.314   2.652   8.283 -0.0164 -0.2014  0.3891
  158SAPE  H19R17652   5.355   2.731   8.351 -0.3791  2.1789 -1.9885
  158SAPE  H19S17653   5.381   2.565   8.274  1.2376  0.5707  1.8560
  158SAPE  C22017654   5.172   2.604   8.331 -0.3103  0.0271 -0.5091
  158SAPE  H20R17655   5.115   2.563   8.245  0.2093 -1.3397 -0.2387
  158SAPE  H20S17656   5.120   2.694   8.368  0.7004  1.0669 -1.5325
  158SAPE  H20T17657   5.173   2.520   8.404  0.9432 -0.0794 -0.6290
  158SAPE   C3317658   5.839   2.232   6.974 -0.0219 -0.2393  0.1539
  158SAPE   H3X17659   5.799   2.329   7.010 -0.0229  0.6376 -2.0274
  158SAPE   H3Y17660   5.946   2.257   6.956  0.4935  1.8277  4.6227
  158SAPE   C3417661   5.831   2.120   7.076 -0.8035  0.4604  0.2732
  158SAPE   H4X17662   5.853   2.023   7.026  0.1237  0.0018  1.5150
  158SAPE   H4Y17663   5.726   2.114   7.112 -1.1597  0.7432 -0.6737
  158SAPE   C3517664   5.927   2.142   7.185 -0.8202  0.6260 -0.1109
  158SAPE   H5X17665   5.905   2.244   7.221 -0.1222  0.8904 -0.4105
  158SAPE   H5Y17666   6.034   2.138   7.155 -0.4257  1.0998  1.1594
  158SAPE   C3617667   5.904   2.046   7.302  0.0502 -0.2596 -0.0462
  158SAPE   H6X17668   5.944   1.947   7.270 -2.6198 -1.4611  0.0654
  158SAPE   H6Y17669   5.798   2.045   7.336  0.2223  0.4571  0.5508
  158SAPE   C3717670   5.967   2.111   7.431  0.4859 -0.2023  0.1783
  158SAPE   H7X17671   6.078   2.113   7.440  0.6904 -2.6642 -0.9129
  158SAPE   H7Y17672   5.936   2.217   7.432 -2.3635 -0.9493  0.0141
  158SAPE   C3817673   5.930   2.035   7.556 -0.3891  0.2531 -0.1736
  158SAPE   H8X17674   5.987   1.940   7.548  1.1860  1.2801 -1.6464
  158SAPE   H8Y17675   5.821   2.010   7.557 -0.6358  1.2336  2.1494
  158SAPE   C3917676   5.967   2.105   7.684 -0.0666  0.0663 -0.0661
  158SAPE   H9X17677   5.917   2.204   7.687  1.2820  0.8614 -1.9617
  158SAPE   H9Y17678   6.075   2.130   7.685  0.1291 -0.7451  0.7507
  158SAPE  C31017679   5.921   2.038   7.818 -0.4360 -0.2477  0.2707
  158SAPE  H10X17680   5.969   1.938   7.822 -1.5738 -1.1328 -3.8645
  158SAPE  H10Y17681   5.811   2.026   7.813 -0.6152 -0.1759  2.8096
  158SAPE  C31117682   5.960   2.129   7.938  0.3554  0.2133 -0.0103
  158SAPE  H11X17683   5.911   2.228   7.941  2.3875  1.2644  0.1872
  158SAPE  H11Y17684   6.068   2.156   7.935  0.3626  0.5947  2.0951
  158SAPE  C31217685   5.945   2.054   8.074 -0.1605  0.1818  0.4202
  158SAPE  H12X17686   5.992   1.953   8.070 -1.4117 -0.4600  1.2007
  158SAPE  H12Y17687   5.841   2.031   8.106 -0.1381  1.2324  1.2937
  158SAPE  C31317688   6.015   2.134   8.182 -0.1592 -0.7046  0.3544
  158SAPE  H13X17689   5.965   2.233   8.190 -1.4332 -1.4476  2.5551
  158SAPE  H13Y17690   6.122   2.155   8.162 -0.0776  0.0594  1.4642
  158SAPE  C31417691   5.991   2.073   8.322 -0.0312  0.1940 -0.1004
  158SAPE  H14X17692   5.995   1.962   8.319 -0.1567  0.1407  1.1347
  158SAPE  H14Y17693   5.886   2.101   8.347  0.2095  0.5318  0.5374
  158SAPE  C31517694   6.094   2.131   8.422 -0.9553  0.0000  0.5008
  158SAPE  H15X17695   6.196   2.091   8.403 -0.2911  1.9556 -0.2306
  158SAPE  H15Y17696   6.067   2.089   8.522 -0.8963 -0.7609  0.2057
  158SAPE  C31617697   6.116   2.281   8.424 -0.3385 -0.2610 -0.6369
  158SAPE  H16X17698   6.015   2.327   8.422 -0.5380 -0.4335  1.9603
  158SAPE  H16Y17699   6.178   2.317   8.339  1.7096 -2.4014 -0.1706
  158SAPE  C31717700   6.201   2.334   8.537 -1.0362  0.0698 -0.5312
  158SAPE  H17X17701   6.295   2.275   8.533 -1.2991 -0.3198 -1.0203
  158SAPE  H17Y17702   6.161   2.305   8.637  2.1639 -1.8270  0.3805
  158SAPE  C31817703   6.236   2.485   8.540 -0.0062  0.3465  0.6987
  158SAPE  H18X17704   6.148   2.552   8.553 -0.4947 -0.2109  0.3391
  158SAPE  H18Y17705   6.297   2.521   8.455 -1.4030  1.5257  0.1725
  158SAPE  H18Z17706   6.302   2.500   8.629 -1.0774  0.9765  1.4130
  159SAPE     N17707   1.015   1.258   6.322  0.2669 -0.0228  0.3397
  159SAPE   HN117708   0.944   1.325   6.358 -2.1251 -1.8362 -0.7786
  159SAPE   HN217709   0.978   1.210   6.238 -0.3755 -0.6539  0.9797
  159SAPE   HN317710   1.030   1.190   6.398 -1.4889 -1.2288 -0.3353
  159SAPE   C1217711   1.140   1.324   6.273  0.5228 -0.3216  0.0832
  159SAPE  H12A17712   1.192   1.253   6.205  0.3984 -0.1739 -0.1683
  159SAPE  H12B17713   1.196   1.343   6.367 -1.3573  2.3926  0.7813
  159SAPE   C1117714   1.107   1.462   6.200 -0.2934  0.2652  0.0734
  159SAPE  H11A17715   1.044   1.450   6.109  0.0813 -0.2914 -0.1237
  159SAPE  H11B17716   1.194   1.507   6.147 -0.5463 -1.4652 -1.9905
  159SAPE     P17717   0.902   1.584   6.304 -0.0155 -0.0847 -0.0821
  159SAPE   O1317718   0.878   1.648   6.173  0.3751  0.2265  0.0205
  159SAPE   O1417719   0.833   1.464   6.345 -0.6054  0.3248 -0.3100
  159SAPE   O1217720   1.060   1.562   6.296 -0.0969 -0.2938 -0.1521
  159SAPE   O1117721   0.887   1.695   6.421 -0.9958  0.6769  0.1407
  159SAPE    C117722   1.005   1.706   6.505 -0.6687  0.3615 -0.5362
  159SAPE    HA17723   1.105   1.715   6.458  0.0128 -1.7888  0.4052
  159SAPE    HB17724   0.996   1.804   6.557 -1.9701 -0.4432  0.8214
  159SAPE    C217725   1.018   1.594   6.621 -0.1812  0.3195  0.3275
  159SAPE    HS17726   1.015   1.495   6.572 -2.0382  0.8330 -0.7003
  159SAPE   O2117727   0.902   1.605   6.704 -0.3513 -0.4097 -0.1705
  159SAPE   C2117728   0.867   1.487   6.752  0.4382  0.0563 -0.7402
  159SAPE   O2217729   0.924   1.382   6.742  0.0085  0.2683  0.5678
  159SAPE   C2217730   0.734   1.501   6.825 -0.2493  0.3972 -0.1928
  159SAPE   H2R17731   0.713   1.609   6.842  0.6368  0.5468  0.0096
  159SAPE   H2S17732   0.656   1.448   6.767  1.9999 -0.0728 -2.9921
  159SAPE    C317733   1.137   1.625   6.714 -0.0670 -0.7263  0.7178
  159SAPE    HX17734   1.139   1.734   6.734 -1.9665 -0.2115 -1.4863
  159SAPE    HY17735   1.230   1.610   6.654 -0.8677  0.4227 -0.8952
  159SAPE   O3117736   1.145   1.556   6.837  0.0530 -0.7411 -0.5218
  159SAPE   C3117737   1.196   1.437   6.838 -0.5936 -0.0394 -0.3431
  159SAPE   O3217738   1.234   1.371   6.746 -0.2632 -0.4493  0.9700
  159SAPE   C3217739   1.173   1.378   6.973 -0.9421  1.1027  0.1468
  159SAPE   H2X17740   1.107   1.290   6.956 -0.4167  0.7696 -0.2048
  159SAPE   H2Y17741   1.139   1.460   7.041 -0.0983  1.1423  0.5239
  159SAPE   C2317742   0.741   1.439   6.968 -0.1206 -0.2962  0.3633
  159SAPE   H3R17743   0.814   1.355   6.970 -1.4525 -1.4710  1.8165
  159SAPE   H3S17744   0.640   1.410   7.003 -1.1812  0.6071 -1.7869
  159SAPE   C2417745   0.794   1.547   7.071 -0.2481 -0.0378 -0.3030
  159SAPE   H4R17746   0.717   1.618   7.108 -2.1740 -1.9183 -0.4907
  159SAPE   H4S17747   0.870   1.608   7.018 -2.1100  2.5118 -0.2502
  159SAPE   C2517748   0.850   1.477   7.189 -0.0564  0.9710 -0.8922
  159SAPE   H5R17749   0.809   1.377   7.213  2.1845  0.1990 -0.0032
  159SAPE   C2617750   0.958   1.512   7.257  0.4989  0.2252  0.3102
  159SAPE   H6R17751   0.987   1.454   7.345 -1.9890 -1.4245  0.1613
  159SAPE   C2717752   1.040   1.632   7.221 -0.7159  0.0684  0.4197
  159SAPE   H7R17753   1.028   1.655   7.113 -0.6889 -2.2501 -0.1270
  159SAPE   H7S17754   1.144   1.591   7.223 -1.3478 -1.6022 -0.0141
  159SAPE   C2817755   1.014   1.750   7.317 -0.1684  0.0950  0.7865
  159SAPE   H8R17756   0.931   1.816   7.287  0.1628 -0.1475 -0.7697
  159SAPE   C2917757   1.090   1.785   7.422  0.6492 -0.1198  0.2454
  159SAPE   H9R17758   1.061   1.872   7.483  2.2168 -1.8577  3.7350
  159SAPE  C21017759   1.209   1.713   7.487  0.6857  0.0817 -0.4976
  159SAPE  H10R17760   1.307   1.729   7.435  0.4962  2.4805 -0.2338
  159SAPE  H10S17761   1.174   1.607   7.491  0.1596  0.2918  0.8208
  159SAPE  C21117762   1.215   1.748   7.632  1.1663  0.0190  0.0563
  159SAPE  H11R17763   1.258   1.847   7.655  2.9794 -0.7994  0.3768
  159SAPE  C21217764   1.179   1.675   7.736 -0.3637 -0.1194 -0.3447
  159SAPE  H12R17765   1.193   1.706   7.841  0.1170 -2.4697  0.3432
  159SAPE  C21317766   1.118   1.540   7.727 -0.3708 -0.1542  0.1029
  159SAPE  H13R17767   1.182   1.472   7.666  0.9798 -0.1489  1.4463
  159SAPE  H13S17768   1.030   1.550   7.661  0.4698 -0.3619 -1.0859
  159SAPE  C21417769   1.079   1.477   7.861  0.2540  0.1263 -0.1450
  159SAPE  H14R17770   1.132   1.386   7.890 -1.5632 -0.8126  0.3844
  159SAPE  C21517771   0.981   1.526   7.948 -0.1919 -1.0964  0.2270
  159SAPE  H15R17772   0.953   1.478   8.043  0.0118 -0.7483  0.4671
  159SAPE  C21617773   0.899   1.657   7.930 -0.4818 -0.4549 -0.4286
  159SAPE  H16R17774   0.956   1.720   7.858  0.4047 -2.1097 -1.2289
  159SAPE  H16S17775   0.900   1.706   8.029 -1.7782 -0.2843 -0.4935
  159SAPE  C21717776   0.754   1.629   7.903  0.3795 -0.3539  0.2343
  159SAPE  H17R17777   0.730   1.571   7.811  1.3471 -3.3157  1.7023
  159SAPE  H17S17778   0.698   1.724   7.915  1.1063 -0.1575  2.5766
  159SAPE  C21817779   0.692   1.540   8.012 -0.3159  0.7175  0.3100
  159SAPE  H18R17780   0.747   1.572   8.103  0.1144  0.4468  0.1508
  159SAPE  H18S17781   0.732   1.438   7.994  2.3514  1.4611  1.4067
  159SAPE  C21917782   0.545   1.559   8.022 -0.1315  0.0987 -0.5063
  159SAPE  H19R17783   0.505   1.529   7.923 -1.0661 -1.5019  0.3283
  159SAPE  H19S17784   0.511   1.663   8.040 -0.6929 -0.4688  2.0581
  159SAPE  C22017785   0.479   1.473   8.137  0.0107 -0.0166  0.8884
  159SAPE  H20R17786   0.371   1.494   8.152 -0.2020 -0.6141  0.2653
  159SAPE  H20S17787   0.527   1.500   8.233  2.0083 -1.2954  0.3247
  159SAPE  H20T17788   0.488   1.368   8.102 -0.1185  0.2820 -0.0721
  159SAPE   C3317789   1.297   1.310   7.037 -0.3818  0.3917  0.2402
  159SAPE   H3X17790   1.293   1.316   7.148 -1.2665 -1.9770  0.3967
  159SAPE   H3Y17791   1.387   1.372   7.014 -1.7442  2.6963  0.8622
  159SAPE   C3417792   1.317   1.166   6.997  0.8227 -0.4427  0.5545
  159SAPE   H4X17793   1.333   1.141   6.890  2.4329 -0.0962  0.6818
  159SAPE   H4Y17794   1.226   1.106   7.018  1.1516 -1.3344 -0.4870
  159SAPE   C3517795   1.427   1.090   7.075 -0.2179  0.1632  0.0431
  159SAPE   H5X17796   1.527   1.133   7.052  0.3699 -0.2832  1.6527
  159SAPE   H5Y17797   1.436   0.986   7.037  0.4111 -1.0063  3.1254
  159SAPE   C3617798   1.399   1.077   7.229 -0.2504  0.3795  0.4894
  159SAPE   H6X17799   1.314   1.009   7.250 -0.8743  0.0302 -2.6430
  159SAPE   H6Y17800   1.387   1.175   7.279  1.7028 -0.5668  3.0930
  159SAPE   C3717801   1.519   1.012   7.294 -1.2397 -0.5351  0.3907
  159SAPE   H7X17802   1.612   1.072   7.285  1.1242 -3.8471  0.8325
  159SAPE   H7Y17803   1.540   0.917   7.240  0.8864  1.6940 -3.1249
  159SAPE   C3817804   1.505   0.998   7.445 -0.1619 -0.2316  0.4058
  159SAPE   H8X17805   1.409   0.950   7.469 -0.5136  0.2252 -0.0557
  159SAPE   H8Y17806   1.507   1.105   7.475 -0.6768  1.1025 -3.7412
  159SAPE   C3917807   1.617   0.911   7.506 -0.1803  0.0541 -0.2150
  159SAPE   H9X17808   1.717   0.947   7.473  1.0885  0.7669  3.8253
  159SAPE   H9Y17809   1.603   0.801   7.500  2.9700 -0.6748  2.7429
  159SAPE  C31017810   1.637   0.950   7.657  0.5325  0.9608  0.2210
  159SAPE  H10X17811   1.544   0.958   7.717  1.0544 -0.4002  1.2665
  159SAPE  H10Y17812   1.673   1.056   7.655  0.7258  0.9123 -2.3012
  159SAPE  C31117813   1.735   0.853   7.721 -0.8402 -0.1349  0.6419
  159SAPE  H11X17814   1.834   0.877   7.677 -0.4889 -1.5802  0.6001
  159SAPE  H11Y17815   1.704   0.747   7.705  0.7179 -0.3217 -1.6623
  159SAPE  C31217816   1.750   0.878   7.869 -0.3119 -1.6541 -0.7143
  159SAPE  H12X17817   1.805   0.795   7.918  0.8571  0.1617  1.2239
  159SAPE  H12Y17818   1.649   0.879   7.916 -0.7129  3.6554 -1.1122
  159SAPE  C31317819   1.817   1.015   7.904  0.2085  1.0718 -1.0741
  159SAPE  H13X17820   1.750   1.091   7.860 -0.6853 -0.3282 -2.2308
  159SAPE  H13Y17821   1.916   1.016   7.853  0.0535 -0.0112 -1.4201
  159SAPE  C31417822   1.826   1.053   8.060  0.7076 -0.0589 -0.3957
  159SAPE  H14X17823   1.735   1.040   8.121 -1.3176 -2.2426 -3.5465
  159SAPE  H14Y17824   1.840   1.163   8.051 -0.9917  0.1622 -0.6233
  159SAPE  C31517825   1.932   0.980   8.134  0.1411  0.7447  0.1997
  159SAPE  H15X17826   2.017   1.049   8.154 -1.2773  2.3480  0.9280
  159SAPE  H15Y17827   1.962   0.894   8.070 -0.8320  0.8981 -0.4873
  159SAPE  C31617828   1.893   0.910   8.261  0.4223 -0.4856 -0.0070
  159SAPE  H16X17829   1.795   0.859   8.243  0.4161 -1.1600  1.7159
  159SAPE  H16Y17830   1.867   0.985   8.340 -0.2642 -0.2809 -0.4173
  159SAPE  C31717831   1.995   0.829   8.331  0.1992  0.1322 -0.4602
  159SAPE  H17X17832   2.048   0.769   8.254 -1.2494  1.0469 -2.2565
  159SAPE  H17Y17833   1.944   0.755   8.396 -2.4626  0.6863 -1.7721
  159SAPE  C31817834   2.093   0.913   8.414  0.7736  0.1749 -0.0354
  159SAPE  H18X17835   2.152   0.976   8.344  0.4774 -0.8153 -1.2069
  159SAPE  H18Y17836   2.160   0.850   8.476 -0.0382 -1.6612 -0.9525
  159SAPE  H18Z17837   2.037   0.972   8.490 -0.9242  1.6886 -2.3249
  160SAPE     N17838   0.694   6.548   6.363 -0.2710 -0.1580 -0.4222
  160SAPE   HN117839   0.609   6.516   6.313 -1.7682  0.4849  1.5862
  160SAPE   HN217840   0.754   6.613   6.309 -0.6258  1.0425  0.5968
  160SAPE   HN317841   0.752   6.464   6.381 -0.1670 -0.1525 -0.7281
  160SAPE   C1217842   0.670   6.606   6.500 -0.6064  0.3369 -0.4425
  160SAPE  H12A17843   0.754   6.577   6.565 -0.8200 -1.2378 -0.8195
  160SAPE  H12B17844   0.570   6.579   6.542  0.1010  1.0873  1.8491
  160SAPE   C1117845   0.671   6.766   6.496  0.5264  0.0593 -0.2187
  160SAPE  H11A17846   0.664   6.800   6.601  0.8612  0.4826 -0.3298
  160SAPE  H11B17847   0.574   6.784   6.445  0.6180  0.9892 -0.0731
  160SAPE     P17848   0.911   6.848   6.507 -0.4170 -0.1912  0.5166
  160SAPE   O1317849   0.950   6.722   6.571 -0.3000  0.0022  0.3397
  160SAPE   O1417850   1.023   6.908   6.422  0.2843 -0.0506 -0.3107
  160SAPE   O1217851   0.783   6.823   6.423  0.1758  0.1514 -0.7452
  160SAPE   O1117852   0.871   6.962   6.604  0.7104 -0.0078  0.3412
  160SAPE    C117853   0.933   6.997   6.729 -0.3239  0.1190 -0.2511
  160SAPE    HA17854   1.028   6.943   6.745  0.4205  1.6991  1.0603
  160SAPE    HB17855   0.962   7.104   6.722  2.4493 -0.6756 -3.2865
  160SAPE    C217856   0.833   6.961   6.839 -0.0036  0.8109  0.8173
  160SAPE    HS17857   0.821   6.850   6.843 -1.3319  0.9622  2.3511
  160SAPE   O2117858   0.699   7.023   6.819 -0.5024 -0.4601  0.0635
  160SAPE   C2117859   0.596   6.959   6.863  0.6438  0.4771 -0.6927
  160SAPE   O2217860   0.592   6.852   6.922  0.0838  0.2554  0.1525
  160SAPE   C2217861   0.469   7.036   6.827  0.0425  0.2465 -0.3201
  160SAPE   H2R17862   0.471   7.070   6.721 -1.8700  0.1545 -0.4089
  160SAPE   H2S17863   0.382   6.968   6.839 -0.1799  0.5747 -0.0755
  160SAPE    C317864   0.892   6.999   6.977  0.2544  0.5793 -0.7818
  160SAPE    HX17865   0.921   7.106   6.971 -0.8858  0.8777 -1.1791
  160SAPE    HY17866   0.989   6.947   6.993 -1.5452 -2.7887  0.2842
  160SAPE   O3117867   0.797   6.988   7.088  0.1979  0.0494  0.7302
  160SAPE   C3117868   0.792   6.863   7.124 -0.2591 -0.7753 -0.0520
  160SAPE   O3217869   0.860   6.770   7.088 -0.1591  0.2024 -0.1483
  160SAPE   C3217870   0.684   6.848   7.236  0.0196 -0.0517  0.1139
  160SAPE   H2X17871   0.585   6.848   7.184  0.0416 -0.1557  0.0703
  160SAPE   H2Y17872   0.695   6.941   7.296 -0.4324 -0.8217  1.4285
  160SAPE   C2317873   0.440   7.166   6.907 -0.7275 -0.2663  0.2272
  160SAPE   H3R17874   0.377   7.240   6.853 -0.2618 -0.7320 -0.9795
  160SAPE   H3S17875   0.530   7.227   6.928  1.0001 -1.6738 -2.5743
  160SAPE   C2417876   0.366   7.139   7.042 -0.4885  0.1058  0.2457
  160SAPE   H4R17877   0.416   7.066   7.109 -1.4186 -0.0610  0.7799
  160SAPE   H4S17878   0.263   7.103   7.023  0.1531 -0.3053 -3.0860
  160SAPE   C2517879   0.342   7.267   7.112 -0.9006 -0.4245 -0.2400
  160SAPE   H5R17880   0.285   7.345   7.060  1.5256  0.3152 -1.9612
  160SAPE   C2617881   0.404   7.301   7.226  0.1634 -0.2378 -0.3504
  160SAPE   H6R17882   0.390   7.403   7.265 -0.5361  0.9551 -3.4049
  160SAPE   C2717883   0.511   7.226   7.305  1.2253  0.2756 -0.7490
  160SAPE   H7R17884   0.543   7.128   7.264  1.5605  0.3528 -0.6738
  160SAPE   H7S17885   0.464   7.196   7.401 -1.9251  0.9077 -1.9794
  160SAPE   C2817886   0.634   7.302   7.316  0.0417 -0.1276  0.7970
  160SAPE   H8R17887   0.715   7.260   7.256  0.9118  2.0918  0.3234
  160SAPE   C2917888   0.648   7.414   7.395 -0.4996 -0.0418  0.2618
  160SAPE   H9R17889   0.747   7.461   7.405 -0.3831 -0.3070  0.3800
  160SAPE  C21017890   0.532   7.464   7.491 -0.5491 -0.5202 -0.2394
  160SAPE  H10R17891   0.589   7.461   7.587  1.7653  0.1145 -1.5054
  160SAPE  H10S17892   0.448   7.392   7.494  0.5729 -1.9162 -0.7832
  160SAPE  C21117893   0.482   7.607   7.465  1.0598  0.1993 -0.5117
  160SAPE  H11R17894   0.479   7.641   7.360  0.0432 -0.5332 -0.7400
  160SAPE  C21217895   0.443   7.693   7.563  0.0048 -0.1087  0.2583
  160SAPE  H12R17896   0.421   7.796   7.530  2.2711  0.2409 -0.4079
  160SAPE  C21317897   0.437   7.658   7.707 -0.0400  0.4769 -0.4689
  160SAPE  H13R17898   0.471   7.750   7.759  1.9194  0.3062 -1.3642
  160SAPE  H13S17899   0.501   7.575   7.742 -1.4404 -0.2399  0.5193
  160SAPE  C21417900   0.296   7.617   7.752  0.4666 -0.2828 -0.2248
  160SAPE  H14R17901   0.221   7.569   7.687  0.7775 -2.9260  1.2115
  160SAPE  C21517902   0.268   7.618   7.882  0.3285 -0.5459 -0.2160
  160SAPE  H15R17903   0.171   7.583   7.921 -0.4244  0.5287 -1.0563
  160SAPE  C21617904   0.350   7.676   7.997 -0.2792  0.8716 -0.4185
  160SAPE  H16R17905   0.444   7.726   7.966 -1.0528  2.0637 -0.9002
  160SAPE  H16S17906   0.375   7.604   8.078  0.9982  2.9093  1.0921
  160SAPE  C21717907   0.261   7.779   8.075  0.4476 -0.5502  0.7959
  160SAPE  H17R17908   0.283   7.793   8.182 -0.8531 -0.6844  1.1047
  160SAPE  H17S17909   0.154   7.749   8.084  0.9149 -1.6758  3.2725
  160SAPE  C21817910   0.262   7.912   8.002 -0.2480 -0.5683 -0.1971
  160SAPE  H18R17911   0.205   7.896   7.908 -0.3926 -1.0887 -0.0233
  160SAPE  H18S17912   0.366   7.942   7.974 -0.3004 -1.5407 -1.5555
  160SAPE  C21917913   0.191   8.029   8.066  0.2488  0.0124 -0.2230
  160SAPE  H19R17914   0.261   8.062   8.146  1.2869  1.0941 -1.5320
  160SAPE  H19S17915   0.094   7.994   8.108 -0.4678 -0.5786 -2.2767
  160SAPE  C22017916   0.157   8.138   7.967  0.9967 -0.2601 -0.5602
  160SAPE  H20R17917   0.116   8.086   7.878 -2.5648 -0.0559  0.7982
  160SAPE  H20S17918   0.242   8.207   7.944  1.2582  0.4436  2.1297
  160SAPE  H20T17919   0.081   8.210   8.005  1.5063 -0.0069  0.0106
  160SAPE   C3317920   0.692   6.728   7.331 -0.8290 -0.2758 -0.2877
  160SAPE   H3X17921   0.731   6.636   7.283 -0.5463  1.5011 -3.7958
  160SAPE   H3Y17922   0.588   6.709   7.364 -1.4398  2.0136 -0.7206
  160SAPE   C3417923   0.781   6.759   7.450 -0.5274  0.5392 -0.3516
  160SAPE   H4X17924   0.761   6.860   7.494  0.9496  0.2271  1.1293
  160SAPE   H4Y17925   0.892   6.762   7.445 -0.5261  1.4009 -0.1360
  160SAPE   C3517926   0.749   6.659   7.562 -0.2406 -0.7044 -0.9056
  160SAPE   H5X17927   0.783   6.556   7.537 -1.8950 -0.8455 -2.7925
  160SAPE   H5Y17928   0.639   6.647   7.567 -0.3561 -2.6733 -4.4903
  160SAPE   C3617929   0.803   6.704   7.698 -0.5862 -0.4619 -0.0783
  160SAPE   H6X17930   0.776   6.810   7.718 -0.4700 -0.5121  0.3664
  160SAPE   H6Y17931   0.914   6.701   7.698 -0.5972 -1.3208  0.7376
  160SAPE   C3717932   0.756   6.618   7.813  0.1107 -0.7430 -0.0705
  160SAPE   H7X17933   0.794   6.514   7.806  0.2330 -0.6656 -0.5339
  160SAPE   H7Y17934   0.645   6.611   7.803 -0.3544 -0.3020  3.3236
  160SAPE   C3817935   0.792   6.677   7.946 -0.1212  0.4875  0.6736
  160SAPE   H8X17936   0.782   6.788   7.950 -3.7490  0.4314 -2.1940
  160SAPE   H8Y17937   0.902   6.672   7.960  0.2774  3.0549 -0.9128
  160SAPE   C3917938   0.720   6.609   8.062 -0.2478  0.8892  0.9904
  160SAPE   H9X17939   0.765   6.511   8.088 -0.6525  0.7760  1.2659
  160SAPE   H9Y17940   0.615   6.600   8.025  0.1594 -1.7799  0.2812
  160SAPE  C31017941   0.713   6.691   8.189  0.6054  0.5868  0.3527
  160SAPE  H10X17942   0.654   6.784   8.171 -0.6581 -0.2674 -0.0626
  160SAPE  H10Y17943   0.815   6.724   8.218  0.1243  0.8466  1.8288
  160SAPE  C31117944   0.647   6.606   8.300  0.5399  0.4302 -0.4509
  160SAPE  H11X17945   0.675   6.498   8.298  0.2804  0.2130  2.7456
  160SAPE  H11Y17946   0.540   6.601   8.272  0.3400  0.6284  0.2684
  160SAPE  C31217947   0.671   6.658   8.441  0.3377 -0.6316  0.2565
  160SAPE  H12X17948   0.625   6.758   8.457  1.0439 -0.0747 -0.9922
  160SAPE  H12Y17949   0.781   6.664   8.456  0.4211 -1.3993  0.0140
  160SAPE  C31317950   0.626   6.563   8.560 -0.4719 -0.6512  0.2935
  160SAPE  H13X17951   0.677   6.465   8.551 -0.9348 -0.8840  0.1487
  160SAPE  H13Y17952   0.517   6.544   8.546 -0.7227  0.1493  1.0630
  160SAPE  C31417953   0.636   6.629   8.695  0.0306  0.2175  0.4734
  160SAPE  H14X17954   0.584   6.727   8.683 -1.6284 -0.7928 -1.0534
  160SAPE  H14Y17955   0.745   6.638   8.717 -0.1913  1.2752  1.2002
  160SAPE  C31517956   0.563   6.555   8.802 -0.8208  0.5328  0.4414
  160SAPE  H15X17957   0.471   6.512   8.756 -0.6812  2.2675 -1.6306
  160SAPE  H15Y17958   0.536   6.627   8.883 -0.2956  1.3063 -0.0546
  160SAPE  C31617959   0.626   6.429   8.864 -0.0273 -0.7045 -0.0183
  160SAPE  H16X17960   0.717   6.450   8.925  0.3005  1.1235 -1.0335
  160SAPE  H16Y17961   0.663   6.362   8.784  2.3981  0.0459  0.3701
  160SAPE  C31717962   0.542   6.354   8.969  0.3799  0.3031  0.1939
  160SAPE  H17X17963   0.567   6.246   8.973 -1.9639 -0.2797  0.5819
  160SAPE  H17Y17964   0.438   6.364   8.930  0.7774  0.3194 -0.8965
  160SAPE  C31817965   0.545   6.418   9.104  0.1995  0.4732  0.5224
  160SAPE  H18X17966   0.503   6.350   9.181  0.4221 -0.0626  0.1788
  160SAPE  H18Y17967   0.491   6.515   9.101 -1.6795 -0.5361 -1.0127
  160SAPE  H18Z17968   0.645   6.447   9.140  1.6547 -1.8844 -1.3028
  161SOPE     N17969   1.572   4.506  10.838  0.2887 -0.0989  0.4219
  161SOPE   HN117970   1.484   4.514  10.783  0.1592 -1.8188  0.3200
  161SOPE   HN217971   1.593   4.404  10.842 -1.8023 -0.5585  1.2512
  161SOPE   HN317972   1.542   4.535  10.933 -0.7086 -1.4570  0.5483
  161SOPE   C1217973   1.686   4.583  10.777  0.5203  0.7367  0.2138
  161SOPE  H12A17974   1.767   4.607  10.848  1.3391 -0.8583 -0.1389
  161SOPE  H12B17975   1.643   4.682  10.748  0.0248  0.5363  0.2576
  161SOPE   C1117976   1.737   4.493  10.664  0.3858  0.1656  0.1896
  161SOPE  H11A17977   1.808   4.543  10.595  0.1170  1.7182  1.0018
  161SOPE  H11B17978   1.660   4.454  10.595  1.1977 -0.0634 -0.6071
  161SOPE     P17979   1.770   4.238  10.711 -0.1543  0.2247 -0.0294
  161SOPE   O1317980   1.648   4.237  10.792 -0.0001  0.3959 -0.4093
  161SOPE   O1417981   1.884   4.151  10.759  0.6537  0.0199  0.0702
  161SOPE   O1217982   1.817   4.392  10.714  0.1412 -0.5233  0.2401
  161SOPE   O1117983   1.735   4.220  10.558  0.0121  0.7013 -0.3504
  161SOPE    C117984   1.839   4.179  10.465 -0.4662 -0.5879 -0.8267
  161SOPE    HA17985   1.934   4.150  10.515 -0.2732 -0.1738 -0.9467
  161SOPE    HB17986   1.879   4.271  10.417  0.1659  0.0624  0.8408
  161SOPE    C217987   1.805   4.062  10.379 -0.8084 -0.0211  0.1367
  161SOPE    HS17988   1.807   3.967  10.437 -0.1673  0.5583  1.0755
  161SOPE   O2117989   1.892   4.066  10.266 -0.4007  0.4798 -0.3808
  161SOPE   C2117990   2.000   3.990  10.288 -0.4586  0.4982 -0.3096
  161SOPE   O2217991   2.027   3.927  10.390  0.3295 -0.4912 -0.2392
  161SOPE   C2217992   2.097   4.004  10.173  0.2152 -0.4467  0.5718
  161SOPE   H2R17993   2.196   3.966  10.207 -0.1711 -0.4828  1.7012
  161SOPE   H2S17994   2.108   4.112  10.149 -0.4051 -0.4374  0.3040
  161SOPE    C317995   1.657   4.062  10.314  0.0761 -0.6232  0.2877
  161SOPE    HX17996   1.647   4.166  10.277 -1.7316 -0.4814  1.0777
  161SOPE    HY17997   1.578   4.060  10.392 -0.6962 -0.5176 -0.4888
  161SOPE   O3117998   1.636   3.966  10.213  0.7320  0.8439 -0.1260
  161SOPE   C3117999   1.538   3.999  10.131 -0.3061 -0.4003 -0.1542
  161SOPE   O3218000   1.466   4.096  10.138  0.0686  0.0010 -0.2275
  161SOPE   C3218001   1.546   3.899  10.012  0.5337 -0.0449  0.1933
  161SOPE   H2X18002   1.552   3.796  10.052  0.6806 -1.4636 -3.0944
  161SOPE   H2Y18003   1.639   3.896   9.951  0.4424  0.8290  0.0057
  161SOPE   C2318004   2.050   3.927  10.039  0.5625 -0.2558 -0.0275
  161SOPE   H3R18005   1.939   3.926  10.041  0.4981  1.6635 -0.2217
  161SOPE   H3S18006   2.090   3.824  10.028  2.1270  0.5126 -2.0934
  161SOPE   C2418007   2.089   4.001   9.913  0.1873 -0.3017 -1.0814
  161SOPE   H4R18008   2.044   4.101   9.933  0.6913 -0.5980  1.9081
  161SOPE   H4S18009   2.200   4.005   9.903  0.2831 -0.3754 -0.0938
  161SOPE   C2518010   2.034   3.950   9.784 -0.4163 -0.2806  0.4332
  161SOPE   H5R18011   2.056   3.842   9.768  1.1674  0.1613 -0.5092
  161SOPE   H5S18012   1.923   3.957   9.795 -0.6116 -0.4975 -1.1548
  161SOPE   C2618013   2.078   4.037   9.666  0.9931 -0.0315  0.2753
  161SOPE   H6R18014   2.032   4.137   9.681  2.0702  0.5152  0.0838
  161SOPE   H6S18015   2.189   4.049   9.663  1.1213 -1.1529 -2.7358
  161SOPE   C2718016   2.037   3.992   9.526  0.2342  0.0295  0.0162
  161SOPE   H7R18017   2.058   3.883   9.518  1.0829  0.2110 -0.3385
  161SOPE   H7S18018   1.928   4.008   9.538  0.1147  0.4909 -1.5697
  161SOPE   C2818019   2.097   4.071   9.404 -0.2523 -0.2125 -0.3276
  161SOPE   H8R18020   2.034   4.058   9.314  0.4164  0.8277 -0.9715
  161SOPE   H8S18021   2.075   4.177   9.431 -2.6816 -0.8081  0.2782
  161SOPE   C2918022   2.238   4.036   9.385 -0.3181 -0.1894 -0.0027
  161SOPE   H9118023   2.297   4.071   9.472 -0.0278 -1.2326  0.2293
  161SOPE  C21018024   2.289   3.984   9.269  0.2506 -0.4864  0.4308
  161SOPE  H10118025   2.398   3.976   9.253  0.4798  1.5644  0.7490
  161SOPE  C21118026   2.209   3.957   9.144 -0.9368  0.4893  0.0482
  161SOPE  H11R18027   2.108   3.921   9.172 -0.0492  0.4136  3.6415
  161SOPE  H11S18028   2.258   3.868   9.100  1.0469  1.9290 -0.8014
  161SOPE  C21218029   2.224   4.069   9.042 -0.6163 -0.0229  0.0962
  161SOPE  H12R18030   2.333   4.073   9.023 -0.6991  0.8353 -0.2424
  161SOPE  H12S18031   2.193   4.170   9.077 -2.4145 -0.0867 -1.1807
  161SOPE  C21318032   2.143   4.056   8.909 -0.7761 -0.3055  0.2677
  161SOPE  H13R18033   2.035   4.080   8.917 -1.7484 -4.3899  1.4557
  161SOPE  H13S18034   2.138   3.945   8.905  1.8881 -0.4594 -1.1930
  161SOPE  C21418035   2.224   4.107   8.790  0.2284 -0.3506 -0.3789
  161SOPE  H14R18036   2.326   4.065   8.774  0.4040  0.9590 -3.2879
  161SOPE  H14S18037   2.254   4.213   8.798  0.7470 -0.3122 -2.2303
  161SOPE  C21518038   2.159   4.086   8.653 -0.2618  1.0140  0.7289
  161SOPE  H15R18039   2.228   4.125   8.574 -0.1832 -0.5700 -0.0368
  161SOPE  H15S18040   2.064   4.141   8.643 -1.9501 -1.8122 -0.0558
  161SOPE  C21618041   2.133   3.935   8.619  0.0204  0.3166 -0.2303
  161SOPE  H16R18042   2.067   3.925   8.530  0.1491 -0.1732 -0.2725
  161SOPE  H16S18043   2.062   3.901   8.698 -2.9414  0.3324 -2.7099
  161SOPE  C21718044   2.250   3.840   8.616 -0.0161  0.8013 -0.3425
  161SOPE  H17R18045   2.201   3.742   8.600  3.2923 -1.7951  3.1695
  161SOPE  H17S18046   2.303   3.838   8.714 -2.0026  1.1574  0.7870
  161SOPE  C21818047   2.337   3.868   8.500  0.1534  0.6135 -0.0300
  161SOPE  H18R18048   2.350   3.976   8.478  0.7655  0.3880 -0.8076
  161SOPE  H18S18049   2.283   3.827   8.412 -0.3018  1.1514 -0.0007
  161SOPE  H18T18050   2.431   3.809   8.504 -0.1230  0.2203  1.4937
  161SOPE   C3318051   1.429   3.904   9.902  0.1845  0.0373 -0.4747
  161SOPE   H3X18052   1.421   4.008   9.867 -1.6583 -0.2190 -0.9433
  161SOPE   H3Y18053   1.334   3.871   9.950 -0.4637  2.6820  0.1800
  161SOPE   C3418054   1.465   3.817   9.784  0.8526  0.3300  0.6259
  161SOPE   H4X18055   1.496   3.720   9.827  2.0980  0.7088  0.5992
  161SOPE   H4Y18056   1.556   3.858   9.736  0.4778  0.7438  0.2599
  161SOPE   C3518057   1.360   3.816   9.669  0.3608 -0.7791 -0.5045
  161SOPE   H5X18058   1.320   3.919   9.657  1.0005 -0.6936 -2.1901
  161SOPE   H5Y18059   1.272   3.753   9.694  0.4390 -0.3184  0.9945
  161SOPE   C3618060   1.416   3.780   9.533  1.0768 -0.1177  0.3531
  161SOPE   H6X18061   1.464   3.681   9.542 -2.7188 -2.0635  1.0537
  161SOPE   H6Y18062   1.491   3.847   9.485  2.4246 -1.5083  0.4693
  161SOPE   C3718063   1.305   3.760   9.430 -0.5820  0.1205  0.5388
  161SOPE   H7X18064   1.239   3.849   9.429  0.3736  0.8382 -0.1788
  161SOPE   H7Y18065   1.235   3.675   9.444 -1.0340  0.6411  1.5127
  161SOPE   C3818066   1.357   3.747   9.287  0.6692 -0.5107  0.3340
  161SOPE   H8X18067   1.447   3.685   9.270 -0.5855 -2.0014 -1.2254
  161SOPE   H8Y18068   1.375   3.852   9.255  2.6654 -0.3848  1.7279
  161SOPE   C3918069   1.255   3.690   9.183 -0.1143  0.3324  0.3149
  161SOPE   H9X18070   1.155   3.735   9.198 -1.3590 -1.6928 -1.3769
  161SOPE   H9Y18071   1.237   3.582   9.202  1.3148  0.4296  2.4813
  161SOPE  C31018072   1.308   3.719   9.044  0.2941  0.3789 -0.0189
  161SOPE  H10X18073   1.407   3.669   9.041 -0.2255 -0.8201  1.5868
  161SOPE  H10Y18074   1.304   3.827   9.017 -0.9573 -0.0802 -1.8909
  161SOPE  C31118075   1.217   3.648   8.937 -0.1494 -0.6385 -0.1237
  161SOPE  H11X18076   1.112   3.682   8.947  0.1445  0.0343  0.8212
  161SOPE  H11Y18077   1.220   3.541   8.969 -0.6556 -0.5851  0.1121
  161SOPE  C31218078   1.266   3.665   8.794 -0.4966  0.2445  0.7396
  161SOPE  H12X18079   1.187   3.626   8.726 -1.1923  2.4472  0.2364
  161SOPE  H12Y18080   1.362   3.608   8.790 -0.5863  0.0424  1.4030
  161SOPE  C31318081   1.283   3.802   8.737 -0.5792 -0.6697  0.3602
  161SOPE  H13X18082   1.210   3.867   8.790  0.1933  0.1800  0.4135
  161SOPE  H13Y18083   1.262   3.798   8.628  1.6163 -0.8761 -0.1017
  161SOPE  C31418084   1.417   3.854   8.756 -0.8638 -0.0911 -0.0799
  161SOPE  H14X18085   1.491   3.785   8.711 -0.4600 -0.8788  1.6848
  161SOPE  H14Y18086   1.447   3.872   8.862 -0.7016 -1.3404  0.0953
  161SOPE  C31518087   1.440   3.977   8.667 -0.2353  0.1131  0.5730
  161SOPE  H15X18088   1.357   4.045   8.695 -1.3885  0.4915 -3.1665
  161SOPE  H15Y18089   1.424   3.957   8.558  2.2207 -1.7379  0.4532
  161SOPE  C31618090   1.576   4.047   8.682 -0.2949  0.8906 -0.4115
  161SOPE  H16X18091   1.660   3.982   8.649 -0.1814 -0.5935  2.5158
  161SOPE  H16Y18092   1.603   4.078   8.785 -1.3346 -1.6188  0.6944
  161SOPE  C31718093   1.583   4.174   8.593 -0.4008 -0.8275 -0.2683
  161SOPE  H17X18094   1.502   4.246   8.617  0.2022 -0.6314  1.3142
  161SOPE  H17Y18095   1.566   4.146   8.487 -1.9972 -0.8788 -0.0222
  161SOPE  C31818096   1.718   4.239   8.592  0.8331  0.1951 -0.1825
  161SOPE  H18X18097   1.743   4.300   8.502  2.0553 -0.9839 -0.6751
  161SOPE  H18Y18098   1.807   4.173   8.596  0.7620  0.0872 -0.3507
  161SOPE  H18Z18099   1.714   4.317   8.671  0.8624  0.9562 -0.9139
  162SOPE     N18100   6.169   4.762  11.137 -0.0308  0.1511  0.3645
  162SOPE   HN118101   6.099   4.692  11.106  2.0722 -1.9701  0.1412
  162SOPE   HN218102   6.199   4.744  11.235  0.0989  0.8774  0.4612
  162SOPE   HN318103   6.118   4.853  11.141 -1.6947 -0.5276 -2.5399
  162SOPE   C1218104   6.283   4.775  11.047  0.4829  1.4101  0.5682
  162SOPE  H12A18105   6.360   4.839  11.095  1.8871 -1.1906  1.9565
  162SOPE  H12B18106   6.245   4.818  10.951  1.3552 -0.7563 -0.8293
  162SOPE   C1118107   6.342   4.632  11.029 -0.2748  0.5589  0.6383
  162SOPE  H11A18108   6.350   4.587  11.130  0.6951  1.4490  0.9828
  162SOPE  H11B18109   6.447   4.628  10.993 -0.3242  0.3492  0.5192
  162SOPE     P18110   6.293   4.544  10.787  0.6685 -0.3350  0.2280
  162SOPE   O1318111   6.191   4.458  10.723 -0.0888 -0.4983 -0.3050
  162SOPE   O1418112   6.432   4.502  10.764  0.3499 -0.0361 -0.4261
  162SOPE   O1218113   6.267   4.551  10.940  0.0087  0.4704 -0.2335
  162SOPE   O1118114   6.261   4.691  10.739  0.2900  0.0519  0.3657
  162SOPE    C118115   6.358   4.747  10.647 -0.4853 -0.1879  0.3663
  162SOPE    HA18116   6.461   4.727  10.683  0.2757  0.5092 -1.2903
  162SOPE    HB18117   6.351   4.858  10.654  0.1334 -0.1699  0.7412
  162SOPE    C218118   6.346   4.706  10.506 -1.1561  0.0224  0.5043
  162SOPE    HS18119   6.249   4.749  10.471 -0.8474 -0.4226 -0.9990
  162SOPE   O2118120   6.341   4.564  10.492  0.1662 -0.6137  0.0123
  162SOPE   C2118121   6.294   4.521  10.373  0.0244 -0.1402 -0.5812
  162SOPE   O2218122   6.246   4.594  10.281  0.0971 -0.4018 -0.0907
  162SOPE   C2218123   6.318   4.373  10.353 -0.3250 -0.3421  0.5170
  162SOPE   H2R18124   6.297   4.324  10.451 -2.7190  0.3536  0.4161
  162SOPE   H2S18125   6.424   4.355  10.324 -0.1326  0.8128  0.4874
  162SOPE    C318126   6.468   4.757  10.432  0.1393 -0.5073  0.2229
  162SOPE    HX18127   6.560   4.703  10.461  1.0759  0.5990 -0.5875
  162SOPE    HY18128   6.466   4.864  10.462 -1.3198 -0.1329 -1.0628
  162SOPE   O3118129   6.444   4.762  10.294 -0.3176  0.3985 -0.0293
  162SOPE   C3118130   6.546   4.719  10.217 -0.0452  0.3167 -0.6852
  162SOPE   O3218131   6.656   4.678  10.256 -0.3676  0.1597 -0.4566
  162SOPE   C3218132   6.489   4.717  10.079 -0.4612  0.1195 -0.1812
  162SOPE   H2X18133   6.474   4.820  10.041 -1.9321  0.4443  1.1558
  162SOPE   H2Y18134   6.385   4.679  10.092 -0.3660 -0.6473 -1.4951
  162SOPE   C2318135   6.240   4.316  10.234 -0.5802 -0.2100  0.0038
  162SOPE   H3R18136   6.240   4.383  10.145  0.9414  1.0423  0.9132
  162SOPE   H3S18137   6.134   4.303  10.267 -0.6345 -0.8290 -0.3974
  162SOPE   C2418138   6.294   4.184  10.179  0.1110 -0.3218  0.2360
  162SOPE   H4R18139   6.396   4.206  10.140  0.6205 -0.3877  1.5011
  162SOPE   H4S18140   6.300   4.108  10.260  0.3102 -0.6719 -0.0998
  162SOPE   C2518141   6.208   4.119  10.072  0.3808  0.2271  0.0272
  162SOPE   H5R18142   6.109   4.093  10.115 -0.5165  2.8735 -0.1942
  162SOPE   H5S18143   6.174   4.188   9.991 -2.2752 -2.0694 -1.0122
  162SOPE   C2618144   6.276   4.000  10.007  0.0981 -0.0006  0.4799
  162SOPE   H6R18145   6.362   4.046   9.953  2.5271 -2.1742  2.2502
  162SOPE   H6S18146   6.311   3.932  10.088 -0.1150  0.0491  0.6148
  162SOPE   C2718147   6.191   3.927   9.898  0.2100 -0.6890  0.4715
  162SOPE   H7R18148   6.233   3.824   9.893  0.4120 -0.5846 -0.1207
  162SOPE   H7S18149   6.086   3.923   9.933 -0.0969  0.6470 -0.2489
  162SOPE   C2818150   6.197   3.999   9.760 -0.3138 -0.3980 -0.4577
  162SOPE   H8R18151   6.140   4.095   9.764  1.8327  0.9219  0.1547
  162SOPE   H8S18152   6.299   4.043   9.760 -0.2371 -0.1047  3.6861
  162SOPE   C2918153   6.163   3.917   9.637 -0.3020 -0.3787 -0.2416
  162SOPE   H9118154   6.069   3.860   9.643 -0.5915  0.0414 -0.7102
  162SOPE  C21018155   6.238   3.917   9.527 -0.3650  0.2099 -0.2378
  162SOPE  H10118156   6.201   3.856   9.443  0.2527  0.5688 -0.7791
  162SOPE  C21118157   6.367   3.994   9.497  0.1225  0.0583 -0.1259
  162SOPE  H11R18158   6.377   4.086   9.559  0.5963 -0.6743  0.9138
  162SOPE  H11S18159   6.367   4.040   9.396  0.5159 -0.5601 -0.4123
  162SOPE  C21218160   6.501   3.914   9.513 -0.2783 -0.0764 -0.1086
  162SOPE  H12R18161   6.525   3.895   9.620 -0.6834  1.8063  0.3584
  162SOPE  H12S18162   6.585   3.978   9.479 -1.0630  1.0058 -0.0740
  162SOPE  C21318163   6.507   3.788   9.421  0.0370 -0.1342 -0.5295
  162SOPE  H13R18164   6.430   3.711   9.446 -0.8592  0.3090 -1.8147
  162SOPE  H13S18165   6.609   3.746   9.431  0.8880  1.6328 -1.3929
  162SOPE  C21418166   6.469   3.818   9.274  0.1012 -0.6194 -0.1414
  162SOPE  H14R18167   6.536   3.894   9.229 -2.2484  1.5176 -0.2111
  162SOPE  H14S18168   6.367   3.857   9.257 -0.1422 -0.5902  1.2751
  162SOPE  C21518169   6.494   3.689   9.185 -0.0050 -1.0535 -0.8574
  162SOPE  H15R18170   6.405   3.625   9.201 -0.8170 -0.1532 -1.6458
  162SOPE  H15S18171   6.590   3.641   9.213  0.7587  0.1383 -1.3500
  162SOPE  C21618172   6.498   3.733   9.031 -0.3980 -0.0145  0.2534
  162SOPE  H16R18173   6.577   3.810   9.021  1.6948 -2.3288 -2.7232
  162SOPE  H16S18174   6.402   3.769   8.989  1.9957  3.1211 -3.0839
  162SOPE  C21718175   6.552   3.615   8.946 -0.0597 -0.3521 -0.3441
  162SOPE  H17R18176   6.630   3.567   9.009  0.4103  0.8195  0.0010
  162SOPE  H17S18177   6.590   3.652   8.848 -2.1500  2.0757 -0.3584
  162SOPE  C21818178   6.448   3.509   8.914  0.1946  0.5673 -0.7853
  162SOPE  H18R18179   6.476   3.443   8.829  1.2902  0.1377 -0.1097
  162SOPE  H18S18180   6.346   3.547   8.894 -0.6969  0.5191  2.9368
  162SOPE  H18T18181   6.433   3.452   9.008  0.1023 -1.3158 -1.8861
  162SOPE   C3318182   6.571   4.629   9.975  0.4445 -0.0721 -1.0591
  162SOPE   H3X18183   6.573   4.520  10.000  1.6198  0.3369  0.9294
  162SOPE   H3Y18184   6.679   4.654   9.979  0.1121  1.9298  4.1882
  162SOPE   C3418185   6.515   4.653   9.837 -0.0426 -0.5264 -0.6819
  162SOPE   H4X18186   6.538   4.759   9.815  1.4843 -1.0030 -1.5124
  162SOPE   H4Y18187   6.404   4.646   9.845  0.0730  0.0485  3.2198
  162SOPE   C3518188   6.583   4.567   9.730 -0.0706  0.1515  0.0234
  162SOPE   H5X18189   6.587   4.458   9.750 -1.2287  0.4332  2.1845
  162SOPE   H5Y18190   6.682   4.610   9.706 -0.3276 -0.2020 -1.7803
  162SOPE   C3618191   6.495   4.561   9.602 -0.4126  0.4314  0.7721
  162SOPE   H6X18192   6.487   4.647   9.533  0.6834 -1.4990 -1.9036
  162SOPE   H6Y18193   6.392   4.543   9.641 -1.1900  1.3945 -0.7816
  162SOPE   C3718194   6.528   4.429   9.523 -0.2690  0.0841  0.1527
  162SOPE   H7X18195   6.451   4.421   9.444 -0.1827  1.3166 -0.0724
  162SOPE   H7Y18196   6.510   4.344   9.593  1.7413 -0.9470 -0.4844
  162SOPE   C3818197   6.672   4.427   9.468 -0.3739  0.0285  0.5493
  162SOPE   H8X18198   6.737   4.437   9.558  0.4864  0.7874 -0.1257
  162SOPE   H8Y18199   6.684   4.514   9.400 -0.3340  0.6354  1.3146
  162SOPE   C3918200   6.708   4.291   9.398 -0.2492 -0.4537 -0.6401
  162SOPE   H9X18201   6.672   4.206   9.460  0.1434 -0.4782 -0.4438
  162SOPE   H9Y18202   6.819   4.289   9.401 -0.2005  1.1218 -0.5968
  162SOPE  C31018203   6.648   4.297   9.255  0.1045  0.2194 -0.2515
  162SOPE  H10X18204   6.670   4.391   9.201  3.0682 -1.8279 -3.0399
  162SOPE  H10Y18205   6.543   4.262   9.271  0.4638 -1.6363 -1.5502
  162SOPE  C31118206   6.716   4.198   9.152  0.0122 -0.0260 -0.0310
  162SOPE  H11X18207   6.649   4.196   9.063  0.0494  3.3926 -0.2647
  162SOPE  H11Y18208   6.720   4.097   9.198 -0.7062  0.3015  0.7765
  162SOPE  C31218209   6.855   4.241   9.112 -0.1889 -0.0982  0.4576
  162SOPE  H12X18210   6.899   4.163   9.045 -2.4962  0.5533 -2.0156
  162SOPE  H12Y18211   6.924   4.258   9.197 -0.4020  3.4112  0.0636
  162SOPE  C31318212   6.857   4.352   9.010 -0.0899  0.6935 -0.1837
  162SOPE  H13X18213   6.813   4.446   9.051 -3.1150 -0.8404  0.3830
  162SOPE  H13Y18214   6.802   4.315   8.921  0.4555 -1.3660  0.2900
  162SOPE  C31418215   6.996   4.385   8.955 -0.2384  0.1541  0.3758
  162SOPE  H14X18216   7.015   4.302   8.883 -2.5045 -1.2060  1.2425
  162SOPE  H14Y18217   7.075   4.383   9.033  1.7668 -5.9264 -1.1913
  162SOPE  C31518218   7.017   4.524   8.885  0.3210  0.5784  0.2103
  162SOPE  H15X18219   6.998   4.609   8.952 -0.3489  0.5096  0.1148
  162SOPE  H15Y18220   6.941   4.534   8.804 -0.0843 -2.0958  0.1410
  162SOPE  C31618221   7.166   4.543   8.841 -0.0604 -0.3381  0.0519
  162SOPE  H16X18222   7.192   4.458   8.774  0.4192  0.4299 -0.7601
  162SOPE  H16Y18223   7.236   4.552   8.927  1.2774  2.3399 -1.1804
  162SOPE  C31718224   7.186   4.671   8.755  0.0677 -0.0142 -0.5496
  162SOPE  H17X18225   7.114   4.663   8.670 -1.1201 -0.4964  0.4846
  162SOPE  H17Y18226   7.291   4.665   8.719 -0.0250 -0.3997 -0.7618
  162SOPE  C31818227   7.172   4.804   8.826 -0.9639 -0.2472  0.5446
  162SOPE  H18X18228   7.209   4.889   8.765 -0.9454 -1.1924 -0.8046
  162SOPE  H18Y18229   7.221   4.796   8.925  0.8721 -1.0632 -0.3916
  162SOPE  H18Z18230   7.067   4.831   8.852 -1.8527 -2.3181 -0.5586
  163SOPE     N18231   5.095   1.485  11.031 -0.2792  0.7181  0.0565
  163SOPE   HN118232   5.192   1.493  11.068 -0.3717  4.6069 -0.1413
  163SOPE   HN218233   5.020   1.505  11.100 -2.2306  0.9118 -2.0001
  163SOPE   HN318234   5.081   1.384  11.012 -0.0563  0.8414 -0.7920
  163SOPE   C1218235   5.082   1.542  10.892 -0.0296 -0.5456  0.2167
  163SOPE  H12A18236   4.973   1.547  10.869 -0.3052  3.2735  1.6751
  163SOPE  H12B18237   5.133   1.466  10.830  1.5697  0.3722  0.3548
  163SOPE   C1118238   5.136   1.686  10.876 -0.4995  0.1902 -0.0186
  163SOPE  H11A18239   5.082   1.764  10.933  0.2847 -0.4136  1.6162
  163SOPE  H11B18240   5.120   1.700  10.767  1.3986 -1.5451 -0.5957
  163SOPE     P18241   5.387   1.776  10.859 -0.6421  0.6519 -0.0541
  163SOPE   O1318242   5.477   1.689  10.789  0.0505  0.6823  0.1821
  163SOPE   O1418243   5.441   1.865  10.965 -0.0375  0.3215  0.0436
  163SOPE   O1218244   5.274   1.686  10.924  0.2752 -0.6786  0.4111
  163SOPE   O1118245   5.317   1.875  10.749 -0.2373 -0.2914  0.2700
  163SOPE    C118246   5.385   1.937  10.642 -0.0752  0.2483  0.0298
  163SOPE    HA18247   5.496   1.938  10.645 -0.0943  0.3229  0.9648
  163SOPE    HB18248   5.354   2.043  10.640  0.9283  0.6843  3.0457
  163SOPE    C218249   5.363   1.860  10.501  0.3788 -0.4886 -0.0806
  163SOPE    HS18250   5.428   1.922  10.434  1.5587 -1.3026  0.2626
  163SOPE   O2118251   5.230   1.848  10.464  0.2869 -0.2825  0.5409
  163SOPE   C2118252   5.174   1.962  10.430  0.3856  1.1189 -0.1797
  163SOPE   O2218253   5.223   2.072  10.409  0.0631  0.9836 -0.5261
  163SOPE   C2218254   5.027   1.929  10.420  0.1193 -0.7375  0.4479
  163SOPE   H2R18255   4.972   2.024  10.440 -0.8064 -0.8466 -1.3964
  163SOPE   H2S18256   4.996   1.868  10.507 -2.2666  1.0677  0.9911
  163SOPE    C318257   5.420   1.718  10.484  0.0619  0.4340  0.2107
  163SOPE    HX18258   5.362   1.646  10.545  2.6367 -0.9040  1.2401
  163SOPE    HY18259   5.523   1.725  10.525 -0.6582 -0.6305  2.3544
  163SOPE   O3118260   5.424   1.685  10.343  0.4393 -0.3229 -0.9026
  163SOPE   C3118261   5.467   1.563  10.324  0.5600 -0.6783  0.1503
  163SOPE   O3218262   5.503   1.487  10.412  0.6274 -0.3006 -0.1510
  163SOPE   C3218263   5.489   1.534  10.169  0.0243 -0.2134  0.3687
  163SOPE   H2X18264   5.477   1.425  10.155  2.2905 -0.5949  1.0034
  163SOPE   H2Y18265   5.594   1.565  10.151 -0.2110  0.3810 -0.0339
  163SOPE   C2318266   4.977   1.870  10.283  0.2001  0.4247 -0.4407
  163SOPE   H3R18267   5.036   1.910  10.198  0.3319 -0.4251 -0.7608
  163SOPE   H3S18268   4.870   1.899  10.271 -0.1302 -0.7971 -0.6356
  163SOPE   C2418269   4.982   1.718  10.268  1.2826 -0.1172  0.3020
  163SOPE   H4R18270   5.081   1.673  10.291  1.2626  0.6325  2.0662
  163SOPE   H4S18271   4.912   1.680  10.345 -0.3399  1.5643 -0.2498
  163SOPE   C2518272   4.928   1.662  10.130 -0.7897  0.4063 -0.3325
  163SOPE   H5R18273   4.937   1.552  10.123  0.0898  0.4595 -0.0712
  163SOPE   H5S18274   4.818   1.682  10.127 -0.9398 -0.4715 -1.4968
  163SOPE   C2618275   5.008   1.724  10.012  0.2580  0.1298  0.4401
  163SOPE   H6R18276   4.977   1.830  10.007 -1.2136 -0.1736  2.0620
  163SOPE   H6S18277   5.117   1.710  10.026  0.3842  0.0058 -0.6345
  163SOPE   C2718278   4.966   1.669   9.875  0.0543 -0.4853 -0.4125
  163SOPE   H7R18279   5.036   1.708   9.798  2.1592  1.3656  2.2400
  163SOPE   H7S18280   4.977   1.558   9.875  0.6504 -0.4327 -0.0556
  163SOPE   C2818281   4.823   1.704   9.828 -0.0968  0.3230 -0.2733
  163SOPE   H8R18282   4.786   1.613   9.776 -2.3019  0.5367  0.7886
  163SOPE   H8S18283   4.753   1.714   9.914 -0.7161 -0.6471 -0.6437
  163SOPE   C2918284   4.821   1.826   9.739 -0.1023 -0.0312 -0.3992
  163SOPE   H9118285   4.833   1.920   9.794  1.5789 -1.0920  1.1867
  163SOPE  C21018286   4.812   1.827   9.607  0.3481 -0.2225  0.3106
  163SOPE  H10118287   4.812   1.921   9.550  2.1572 -0.0020  0.5971
  163SOPE  C21118288   4.801   1.712   9.509  0.3733 -0.2293 -0.4660
  163SOPE  H11R18289   4.694   1.686   9.499 -0.0910 -0.6553  3.8583
  163SOPE  H11S18290   4.862   1.625   9.543 -0.3436  0.0140  1.5655
  163SOPE  C21218291   4.870   1.739   9.376  0.0207 -0.2838  0.2858
  163SOPE  H12R18292   4.981   1.739   9.388 -0.1402 -1.8275  2.2792
  163SOPE  H12S18293   4.831   1.836   9.337  0.4050 -0.4335 -0.4911
  163SOPE  C21318294   4.849   1.623   9.270  0.0220  0.5964 -0.0341
  163SOPE  H13R18295   4.739   1.626   9.254 -0.1397 -0.1503  0.8545
  163SOPE  H13S18296   4.894   1.528   9.304  5.8954  2.0356 -2.4133
  163SOPE  C21418297   4.912   1.658   9.134 -0.5873  0.5223 -0.1484
  163SOPE  H14R18298   5.021   1.674   9.146 -0.6317  0.8940 -0.2563
  163SOPE  H14S18299   4.865   1.756   9.114 -1.5419  0.4414  1.4930
  163SOPE  C21518300   4.891   1.555   9.023 -0.0874 -0.5586  0.2418
  163SOPE  H15R18301   4.887   1.453   9.067 -0.3437 -1.1552 -1.1222
  163SOPE  H15S18302   4.972   1.552   8.947 -1.1035 -2.1621 -0.8316
  163SOPE  C21618303   4.753   1.563   8.949  0.3748  0.8299 -0.1566
  163SOPE  H16R18304   4.738   1.663   8.903 -1.6676  1.2511  1.2707
  163SOPE  H16S18305   4.675   1.551   9.027  0.3311 -0.9176 -0.4328
  163SOPE  C21718306   4.740   1.453   8.850 -0.0978  0.3733 -0.0983
  163SOPE  H17R18307   4.740   1.350   8.891 -1.8672 -0.8283 -2.8504
  163SOPE  H17S18308   4.828   1.460   8.783  0.9280  0.5388  1.2087
  163SOPE  C21818309   4.609   1.462   8.779  0.5498 -0.0696 -0.2808
  163SOPE  H18R18310   4.604   1.527   8.688  0.4131  1.2606  0.6555
  163SOPE  H18S18311   4.532   1.501   8.848  1.3911 -1.4621  1.5122
  163SOPE  H18T18312   4.573   1.362   8.746  0.4914 -0.4630  0.9226
  163SOPE   C3318313   5.399   1.614  10.073  0.0475 -0.6236  0.4075
  163SOPE   H3X18314   5.418   1.723  10.072  1.8896 -0.9051 -0.6739
  163SOPE   H3Y18315   5.290   1.600  10.092 -0.6446  2.1851 -0.9071
  163SOPE   C3418316   5.425   1.565   9.929  0.3922 -0.2209 -0.1460
  163SOPE   H4X18317   5.387   1.461   9.935 -0.5563  0.0811 -0.7346
  163SOPE   H4Y18318   5.530   1.562   9.893  0.1963  2.4158 -1.2311
  163SOPE   C3518319   5.330   1.625   9.822  0.4982 -0.1095  0.0206
  163SOPE   H5X18320   5.333   1.736   9.822  0.0445 -0.0916  0.3688
  163SOPE   H5Y18321   5.224   1.607   9.852  0.0679 -0.3171 -1.5462
  163SOPE   C3618322   5.361   1.559   9.688 -0.3071 -0.0489  0.3366
  163SOPE   H6X18323   5.308   1.461   9.692 -0.7439  0.0623 -1.7027
  163SOPE   H6Y18324   5.472   1.550   9.687 -0.2042  0.6230 -2.6449
  163SOPE   C3718325   5.316   1.633   9.559 -0.5360 -0.8174  0.4736
  163SOPE   H7X18326   5.330   1.742   9.571  1.3177 -0.8903 -0.6679
  163SOPE   H7Y18327   5.210   1.612   9.534 -0.7251  1.0281 -0.4498
  163SOPE   C3818328   5.393   1.591   9.427 -0.5936 -0.1724  0.1142
  163SOPE   H8X18329   5.379   1.483   9.406  2.0073 -0.2577 -1.6699
  163SOPE   H8Y18330   5.503   1.598   9.441 -0.5735  0.0903 -0.1697
  163SOPE   C3918331   5.337   1.664   9.302 -0.5234  0.1460  0.1203
  163SOPE   H9X18332   5.302   1.760   9.345 -0.8074 -1.3145  3.4789
  163SOPE   H9Y18333   5.246   1.614   9.261 -0.6253  1.8261 -1.8353
  163SOPE  C31018334   5.446   1.688   9.200 -0.6514  0.3120 -0.3150
  163SOPE  H10X18335   5.478   1.591   9.157 -0.3524  0.6085 -0.7698
  163SOPE  H10Y18336   5.537   1.735   9.244  0.6442 -1.8694 -0.5040
  163SOPE  C31118337   5.390   1.786   9.081  0.7235 -0.2888  0.4574
  163SOPE  H11X18338   5.383   1.889   9.122  0.9831 -0.0324 -0.1331
  163SOPE  H11Y18339   5.285   1.759   9.058  0.0540 -0.6503  3.4586
  163SOPE  C31218340   5.491   1.789   8.962  0.5816 -0.0288 -0.1181
  163SOPE  H12X18341   5.501   1.688   8.918 -0.0444 -1.2045  2.2368
  163SOPE  H12Y18342   5.585   1.831   9.003  0.0562  0.8696  0.1941
  163SOPE  C31318343   5.447   1.886   8.843 -0.2375  0.5101 -0.7174
  163SOPE  H13X18344   5.449   1.989   8.884  1.1562 -0.0131  0.6732
  163SOPE  H13Y18345   5.339   1.870   8.827 -0.4667 -0.9638  1.7275
  163SOPE  C31418346   5.532   1.869   8.720  0.4646 -0.0480 -0.4214
  163SOPE  H14X18347   5.539   1.760   8.699  2.4010 -0.4289  1.8392
  163SOPE  H14Y18348   5.640   1.888   8.734  0.3896 -0.5992  1.1246
  163SOPE  C31518349   5.480   1.947   8.603  0.3475  0.3230 -0.0348
  163SOPE  H15X18350   5.425   1.865   8.552  3.2349 -2.2899  0.7542
  163SOPE  H15Y18351   5.564   1.975   8.535 -0.4154 -1.2637 -1.7278
  163SOPE  C31618352   5.382   2.058   8.629 -0.5151  0.4921 -0.3092
  163SOPE  H16X18353   5.418   2.130   8.705  2.1744 -1.1871  0.1160
  163SOPE  H16Y18354   5.288   2.021   8.677 -0.2514 -0.7926 -0.7547
  163SOPE  C31718355   5.347   2.132   8.502 -0.3787 -0.1786  0.0857
  163SOPE  H17X18356   5.435   2.171   8.448 -0.8485  0.6131 -0.1219
  163SOPE  H17Y18357   5.284   2.221   8.525 -0.2834 -0.0081 -0.3000
  163SOPE  C31818358   5.262   2.054   8.395 -0.4607 -0.2895  0.2808
  163SOPE  H18X18359   5.165   2.041   8.447 -0.2385 -2.4872  0.2482
  163SOPE  H18Y18360   5.306   1.953   8.381  1.5232  0.4142  1.0853
  163SOPE  H18Z18361   5.248   2.105   8.297 -0.0698  1.6738  1.2016
  164SOPE     N18362   3.843   4.282  10.466 -0.1366  0.8708 -0.4889
  164SOPE   HN118363   3.843   4.178  10.460  3.6872  0.7863 -1.7218
  164SOPE   HN218364   3.884   4.310  10.374  2.6334  1.5512  0.8358
  164SOPE   HN318365   3.898   4.323  10.544 -1.3691  0.3743  0.6870
  164SOPE   C1218366   3.704   4.325  10.480  0.1412  0.1107 -0.5022
  164SOPE  H12A18367   3.661   4.309  10.378 -1.0240  2.0287 -0.3411
  164SOPE  H12B18368   3.707   4.435  10.492 -0.2253 -0.0759  1.7151
  164SOPE   C1118369   3.627   4.248  10.586 -0.3998 -0.6199  0.4384
  164SOPE  H11A18370   3.529   4.299  10.592  0.7229  1.6515  0.8813
  164SOPE  H11B18371   3.671   4.261  10.687  0.0464  0.5296  0.1204
  164SOPE     P18372   3.493   4.027  10.601  0.0431  0.5361  0.0869
  164SOPE   O1318373   3.448   4.073  10.734 -0.1173 -0.0397  0.4811
  164SOPE   O1418374   3.545   3.890  10.584  0.4952  0.6376 -0.1339
  164SOPE   O1218375   3.608   4.120  10.548 -0.6545 -0.0083  0.1335
  164SOPE   O1118376   3.367   4.053  10.502 -0.1617 -0.4984  0.1665
  164SOPE    C118377   3.393   4.094  10.368 -0.2841  0.2636  0.3708
  164SOPE    HA18378   3.498   4.083  10.334 -0.4136  4.2917 -1.9848
  164SOPE    HB18379   3.374   4.201  10.347  0.3846  0.2442 -0.4146
  164SOPE    C218380   3.307   4.001  10.272  0.6146 -0.6949  0.4353
  164SOPE    HS18381   3.200   4.006  10.300  1.0720  0.4473  2.0951
  164SOPE   O2118382   3.363   3.870  10.288 -0.9021 -0.4579 -0.4594
  164SOPE   C2118383   3.276   3.774  10.295 -0.5086  0.1754  0.2148
  164SOPE   O2218384   3.155   3.790  10.298 -0.0306 -0.1536 -0.2342
  164SOPE   C2218385   3.346   3.645  10.285 -0.4634 -0.5604  0.0120
  164SOPE   H2R18386   3.332   3.578  10.372  0.4524 -0.4046  0.2895
  164SOPE   H2S18387   3.454   3.664  10.267 -0.3400 -0.6677  0.6449
  164SOPE    C318388   3.309   4.041  10.124  0.1839 -0.3633 -0.0086
  164SOPE    HX18389   3.413   4.056  10.088  0.2077  1.4066  0.7123
  164SOPE    HY18390   3.261   4.141  10.128  0.4920 -0.0349 -2.5479
  164SOPE   O3118391   3.243   3.941  10.036 -0.1557  0.4646  0.2995
  164SOPE   C3118392   3.114   3.981  10.016 -0.3190  0.9073 -0.3143
  164SOPE   O3218393   3.060   4.050  10.095 -0.1370 -0.0757 -0.3918
  164SOPE   C3218394   3.044   3.921   9.897 -0.1605  0.0967 -0.7937
  164SOPE   H2X18395   2.934   3.931   9.910  0.1043  2.6939  0.1045
  164SOPE   H2Y18396   3.068   3.812   9.897  1.0960  0.3616 -1.1916
  164SOPE   C2318397   3.297   3.558  10.164 -0.7077 -0.2712  0.9410
  164SOPE   H3R18398   3.187   3.544  10.170 -0.4391 -2.5802  1.5469
  164SOPE   H3S18399   3.329   3.452  10.175 -4.2658 -1.7611 -1.4615
  164SOPE   C2418400   3.337   3.600  10.017 -0.5826 -0.3532  0.2404
  164SOPE   H4R18401   3.329   3.711  10.008  2.6310  0.0204  0.7394
  164SOPE   H4S18402   3.444   3.571  10.011 -0.3273  0.6116 -0.1883
  164SOPE   C2518403   3.244   3.533   9.916 -0.4915 -0.4018  0.0875
  164SOPE   H5R18404   3.218   3.429   9.945 -0.3864 -1.1784 -2.4021
  164SOPE   H5S18405   3.141   3.569   9.896 -1.4156 -2.8917 -0.0939
  164SOPE   C2618406   3.314   3.531   9.774  0.2208 -0.2217  0.1807
  164SOPE   H6R18407   3.321   3.635   9.736 -0.8847 -0.4149 -0.5866
  164SOPE   H6S18408   3.413   3.485   9.790  0.2677 -0.6189 -1.1682
  164SOPE   C2718409   3.226   3.458   9.673  0.7150 -0.0206  0.2927
  164SOPE   H7R18410   3.198   3.356   9.708  1.6410  0.0694  1.3618
  164SOPE   H7S18411   3.139   3.526   9.660  1.1797  0.5858  0.2877
  164SOPE   C2818412   3.287   3.441   9.533 -0.2485 -0.5964  0.6228
  164SOPE   H8R18413   3.198   3.426   9.468 -0.1838  0.8124  0.1796
  164SOPE   H8S18414   3.335   3.537   9.506 -0.2497 -1.5483 -3.3683
  164SOPE   C2918415   3.385   3.327   9.520 -0.0508 -0.2968  0.6245
  164SOPE   H9118416   3.382   3.252   9.599 -4.7482  0.3341  1.3433
  164SOPE  C21018417   3.472   3.325   9.419 -0.7995  0.7747 -0.1778
  164SOPE  H10118418   3.539   3.237   9.418 -1.4207  0.2430  1.3054
  164SOPE  C21118419   3.492   3.427   9.308  0.3638  0.4650  0.1064
  164SOPE  H11R18420   3.598   3.460   9.312  0.8265 -0.8084 -0.8662
  164SOPE  H11S18421   3.426   3.515   9.320 -1.6612 -1.1870  2.0593
  164SOPE  C21218422   3.461   3.359   9.175 -0.2280  0.2463  0.1721
  164SOPE  H12R18423   3.353   3.332   9.175 -0.3166  0.5873 -0.5419
  164SOPE  H12S18424   3.534   3.276   9.168 -0.0245  0.4050  0.3935
  164SOPE  C21318425   3.479   3.454   9.050 -0.1377  0.2964  0.1349
  164SOPE  H13R18426   3.418   3.544   9.072 -1.4827 -1.2245  3.2285
  164SOPE  H13S18427   3.440   3.397   8.962  2.0150 -0.9558 -0.0782
  164SOPE  C21418428   3.629   3.479   9.020  0.0501 -0.2590  0.3419
  164SOPE  H14R18429   3.672   3.392   8.965  1.0323 -0.2844  1.1060
  164SOPE  H14S18430   3.671   3.475   9.123  1.6330  0.8502 -0.2361
  164SOPE  C21518431   3.643   3.608   8.949  0.5796  0.1902 -0.0608
  164SOPE  H15R18432   3.748   3.646   8.950  0.6629 -0.0283 -0.4579
  164SOPE  H15S18433   3.589   3.692   8.999  1.8100  0.3228  1.1241
  164SOPE  C21618434   3.599   3.604   8.801 -0.6024 -0.1011  0.7863
  164SOPE  H16R18435   3.623   3.700   8.751  1.2647 -0.5824  0.6733
  164SOPE  H16S18436   3.491   3.579   8.808 -0.3622 -1.0947  1.0754
  164SOPE  C21718437   3.676   3.495   8.721 -0.1853  0.3265 -0.2431
  164SOPE  H17R18438   3.649   3.397   8.765  1.5090  0.5526  1.4145
  164SOPE  H17S18439   3.783   3.505   8.746 -1.0677  0.8853  3.9299
  164SOPE  C21818440   3.662   3.494   8.570 -0.1568  1.1546 -0.1760
  164SOPE  H18R18441   3.555   3.493   8.540 -0.0617  1.1600 -0.5235
  164SOPE  H18S18442   3.699   3.406   8.514  0.8701  1.1566  0.4704
  164SOPE  H18T18443   3.711   3.587   8.533  0.9297  1.6118  2.2672
  164SOPE   C3318444   3.073   3.982   9.760 -0.1401  0.0883 -0.4064
  164SOPE   H3X18445   3.042   4.089   9.761  1.6502  0.6396 -0.0078
  164SOPE   H3Y18446   3.030   3.924   9.676 -0.3171 -0.1628 -0.1436
  164SOPE   C3418447   3.226   3.986   9.731  0.4051  0.3980  0.0992
  164SOPE   H4X18448   3.293   3.899   9.748  0.2374 -0.0891 -1.5508
  164SOPE   H4Y18449   3.270   4.070   9.790  1.1825  0.0027  0.0941
  164SOPE   C3518450   3.258   4.007   9.580  0.3995  0.0723 -0.0513
  164SOPE   H5X18451   3.366   4.033   9.580  0.8343 -1.5857  1.1334
  164SOPE   H5Y18452   3.205   4.092   9.532  0.9923 -0.6439 -2.0512
  164SOPE   C3618453   3.243   3.886   9.494  0.0403 -0.7088  0.9600
  164SOPE   H6X18454   3.135   3.864   9.486 -0.0859  0.5087 -1.1338
  164SOPE   H6Y18455   3.294   3.798   9.541  2.3608  0.9421  1.7199
  164SOPE   C3718456   3.305   3.919   9.358 -0.1931 -0.7588  0.1402
  164SOPE   H7X18457   3.416   3.923   9.369  0.0115 -0.2803 -1.8145
  164SOPE   H7Y18458   3.271   4.021   9.329  3.9238 -0.0961 -3.4464
  164SOPE   C3818459   3.276   3.825   9.236  0.2050 -0.0609  0.5781
  164SOPE   H8X18460   3.220   3.736   9.272 -0.4622 -0.7319 -1.9122
  164SOPE   H8Y18461   3.370   3.787   9.193 -0.1193  1.1655 -1.3758
  164SOPE   C3918462   3.193   3.886   9.115 -0.0906 -0.3834  0.0462
  164SOPE   H9X18463   3.248   3.964   9.057 -2.8199  1.2681 -0.4958
  164SOPE   H9Y18464   3.109   3.946   9.156  0.5742 -0.7984  2.1123
  164SOPE  C31018465   3.141   3.778   9.018 -0.2268  0.7216 -0.0643
  164SOPE  H10X18466   3.061   3.718   9.067  1.1924  0.0954  1.5913
  164SOPE  H10Y18467   3.224   3.705   9.007  0.7980  1.6309  1.2723
  164SOPE  C31118468   3.090   3.834   8.889  0.2452  0.2548 -0.3893
  164SOPE  H11X18469   3.165   3.895   8.835  1.0882  0.3290  0.8235
  164SOPE  H11Y18470   3.009   3.900   8.925  0.3518 -0.7986  1.9335
  164SOPE  C31218471   3.036   3.720   8.809 -0.7177  0.1191 -0.4628
  164SOPE  H12X18472   2.945   3.687   8.864  0.2902 -1.4159  0.3752
  164SOPE  H12Y18473   3.104   3.634   8.826 -0.7174  0.3935  1.1242
  164SOPE  C31318474   2.996   3.751   8.664  0.1828 -0.1738 -0.4848
  164SOPE  H13X18475   3.079   3.776   8.594 -0.2916  1.8031 -0.4017
  164SOPE  H13Y18476   2.928   3.839   8.658  0.6063  0.1291 -0.9888
  164SOPE  C31418477   2.924   3.631   8.594  0.4043  0.8625 -0.2193
  164SOPE  H14X18478   2.898   3.680   8.498  0.2006  0.7720 -0.2109
  164SOPE  H14Y18479   2.830   3.612   8.649  0.8202 -0.5420  0.0514
  164SOPE  C31518480   3.009   3.499   8.592  1.2328 -0.1619  0.1888
  164SOPE  H15X18481   3.030   3.473   8.698 -0.3771  1.1429  0.8712
  164SOPE  H15Y18482   3.106   3.518   8.542  0.8864  0.0906 -0.3989
  164SOPE  C31618483   2.943   3.383   8.508  0.6142 -0.0014  0.3461
  164SOPE  H16X18484   2.842   3.373   8.555 -0.3118 -0.8129 -1.7057
  164SOPE  H16Y18485   3.003   3.289   8.515  1.4363  0.1996 -2.6314
  164SOPE  C31718486   2.924   3.433   8.368 -0.3537  0.2399  0.1575
  164SOPE  H17X18487   3.014   3.462   8.309 -0.7885  0.5745 -0.3456
  164SOPE  H17Y18488   2.848   3.512   8.353  1.5686  2.1043 -0.2895
  164SOPE  C31818489   2.862   3.309   8.291  0.3091 -0.1229 -0.0648
  164SOPE  H18X18490   2.846   3.324   8.182 -0.8357 -1.7950 -0.1619
  164SOPE  H18Y18491   2.767   3.275   8.336  0.0289  2.1589  1.2264
  164SOPE  H18Z18492   2.938   3.229   8.304 -0.7505 -0.8910  1.6967
  165SOPE     N18493   6.571   0.763  11.081 -0.0995  0.7619 -0.2452
  165SOPE   HN118494   6.647   0.739  11.149 -2.2668  1.1064  2.4539
  165SOPE   HN218495   6.579   0.866  11.071 -0.2633  0.7210 -0.8167
  165SOPE   HN318496   6.486   0.743  11.137  0.4560 -0.7546  0.1315
  165SOPE   C1218497   6.589   0.699  10.942  0.0611 -0.4453  0.0545
  165SOPE  H12A18498   6.519   0.613  10.944 -1.0742  0.4574  0.0473
  165SOPE  H12B18499   6.696   0.681  10.918 -0.5383 -4.3517 -0.2594
  165SOPE   C1118500   6.545   0.805  10.835 -0.2350 -0.0712 -0.0356
  165SOPE  H11A18501   6.578   0.753  10.743  0.5458  0.0842  0.1471
  165SOPE  H11B18502   6.605   0.898  10.844 -0.8317  0.4516 -1.3353
  165SOPE     P18503   6.303   0.749  10.737  0.1942  0.0908  0.0685
  165SOPE   O1318504   6.173   0.815  10.767 -0.2414 -0.0350  0.1625
  165SOPE   O1418505   6.322   0.613  10.777 -0.0589 -0.0930 -0.4651
  165SOPE   O1218506   6.403   0.837  10.824 -0.4959  1.1388 -0.0640
  165SOPE   O1118507   6.356   0.781  10.588  0.1364  0.3148 -0.4279
  165SOPE    C118508   6.373   0.908  10.533  0.0473 -0.5838 -0.1115
  165SOPE    HA18509   6.442   0.900  10.447  0.4300  0.7807  0.0539
  165SOPE    HB18510   6.420   0.969  10.613  0.6435  1.1226 -1.7175
  165SOPE    C218511   6.234   0.970  10.499 -0.9307 -0.3155 -0.8119
  165SOPE    HS18512   6.176   0.982  10.593 -0.1949 -1.8033 -0.1518
  165SOPE   O2118513   6.168   0.884  10.410  0.1922 -0.2269 -0.2848
  165SOPE   C2118514   6.037   0.894  10.402 -0.1022 -0.0132  0.0784
  165SOPE   O2218515   5.969   0.960  10.480 -0.5531 -0.7859 -0.1268
  165SOPE   C2218516   5.985   0.802  10.293  0.2266  0.1644  0.1038
  165SOPE   H2R18517   5.944   0.708  10.335  3.9373 -2.0461 -0.7463
  165SOPE   H2S18518   6.065   0.776  10.219  0.0972 -0.1836  0.0825
  165SOPE    C318519   6.256   1.108  10.431  0.1990  0.2554 -0.7969
  165SOPE    HX18520   6.307   1.172  10.506  1.1034 -0.1680 -1.0378
  165SOPE    HY18521   6.158   1.155  10.407  0.2743  0.3942 -0.8363
  165SOPE   O3118522   6.308   1.103  10.299  0.3670 -0.0974 -0.4023
  165SOPE   C3118523   6.433   1.145  10.295  0.4940 -0.3123  0.9140
  165SOPE   O3218524   6.507   1.166  10.386 -0.2004 -0.1737  0.4531
  165SOPE   C3218525   6.479   1.164  10.149 -0.5080  0.3022  0.0439
  165SOPE   H2X18526   6.384   1.192  10.100  0.2586 -2.3323 -3.3420
  165SOPE   H2Y18527   6.516   1.068  10.106  0.9675  0.1320  1.5792
  165SOPE   C2318528   5.884   0.879  10.213 -0.0349 -0.1162  0.2891
  165SOPE   H3R18529   5.937   0.951  10.147  1.2814 -0.9976  0.3385
  165SOPE   H3S18530   5.817   0.939  10.278  1.4754  2.7823 -0.6632
  165SOPE   C2418531   5.796   0.780  10.129 -0.1834  0.0171  0.0257
  165SOPE   H4R18532   5.875   0.728  10.071  0.6467 -0.3914  1.4467
  165SOPE   H4S18533   5.753   0.708  10.202 -1.0799 -1.8824 -2.2722
  165SOPE   C2518534   5.679   0.849  10.057 -0.3947  0.2041 -0.4504
  165SOPE   H5R18535   5.608   0.768  10.025  1.4273 -2.2947  1.4463
  165SOPE   H5S18536   5.627   0.906  10.137  0.3416  1.1051 -0.6076
  165SOPE   C2618537   5.718   0.943   9.938 -0.0290  0.2321 -0.5836
  165SOPE   H6R18538   5.628   0.988   9.891 -2.0380 -2.7785  0.1059
  165SOPE   H6S18539   5.790   1.014   9.985  0.8112 -0.0218 -1.4530
  165SOPE   C2718540   5.788   0.860   9.830  0.2020  0.3251  0.0891
  165SOPE   H7R18541   5.886   0.818   9.859  1.5348  1.2969 -2.6882
  165SOPE   H7S18542   5.714   0.777   9.823 -2.7287  2.7685  0.0018
  165SOPE   C2818543   5.807   0.930   9.693 -0.0283 -0.1727 -0.0538
  165SOPE   H8R18544   5.712   0.973   9.654 -0.7000 -2.2907 -0.8989
  165SOPE   H8S18545   5.873   1.017   9.715  1.1233 -1.1533  0.4984
  165SOPE   C2918546   5.877   0.839   9.591 -0.4400 -0.5524 -0.6376
  165SOPE   H9118547   5.975   0.806   9.629  0.2015  2.3811  0.4584
  165SOPE  C21018548   5.829   0.806   9.472  0.2629 -1.0288  0.6615
  165SOPE  H10118549   5.895   0.734   9.420  0.1123 -0.2260 -0.6920
  165SOPE  C21118550   5.698   0.853   9.409 -0.6734 -0.3522  0.1835
  165SOPE  H11R18551   5.624   0.879   9.489 -2.3755 -3.7997 -0.0752
  165SOPE  H11S18552   5.660   0.767   9.351  1.0871  0.0421 -1.6763
  165SOPE  C21218553   5.705   0.961   9.305  0.3619 -0.5976 -0.9076
  165SOPE  H12R18554   5.756   1.040   9.364  1.2974 -0.8598 -1.3569
  165SOPE  H12S18555   5.605   1.002   9.277 -1.2507  1.0116  5.5667
  165SOPE  C21318556   5.801   0.946   9.187  0.3233  0.0708  0.3753
  165SOPE  H13R18557   5.900   0.916   9.229  0.3491  1.7011  1.6036
  165SOPE  H13S18558   5.819   1.050   9.152 -0.3039  0.1743  0.3514
  165SOPE  C21418559   5.754   0.853   9.073 -0.4109 -0.6468  0.8079
  165SOPE  H14R18560   5.647   0.870   9.049  0.1762 -0.1496 -1.7705
  165SOPE  H14S18561   5.757   0.747   9.106  1.0401 -0.1164  2.6331
  165SOPE  C21518562   5.828   0.877   8.942 -0.6441 -0.0511  0.9556
  165SOPE  H15R18563   5.934   0.855   8.968 -0.0495  1.5694  0.0562
  165SOPE  H15S18564   5.815   0.985   8.917  0.7132  0.0848  0.7639
  165SOPE  C21618565   5.802   0.799   8.816 -0.0089 -0.7806 -0.9834
  165SOPE  H16R18566   5.780   0.692   8.840 -0.4379 -0.4255  0.2448
  165SOPE  H16S18567   5.876   0.812   8.734 -0.2108  0.0385 -1.0377
  165SOPE  C21718568   5.666   0.846   8.760 -0.0815  0.1921  0.4921
  165SOPE  H17R18569   5.642   0.950   8.791 -2.7004 -0.5148  1.0468
  165SOPE  H17S18570   5.587   0.790   8.814 -1.2161 -1.0443 -2.2315
  165SOPE  C21818571   5.652   0.835   8.606  0.3233  0.1103 -0.4568
  165SOPE  H18R18572   5.730   0.901   8.563  0.5401  2.2712  2.8374
  165SOPE  H18S18573   5.552   0.870   8.573 -0.0804 -1.0773 -0.5431
  165SOPE  H18T18574   5.652   0.730   8.570 -0.4443  0.2392 -0.8611
  165SOPE   C3318575   6.586   1.276  10.121 -0.2924 -0.0607 -0.6096
  165SOPE   H3X18576   6.575   1.358  10.196  1.8141 -0.9680  0.7813
  165SOPE   H3Y18577   6.560   1.322  10.023  0.4295  0.5567 -0.5242
  165SOPE   C3418578   6.735   1.246  10.114  0.3296 -0.4680 -0.1559
  165SOPE   H4X18579   6.775   1.219  10.215 -0.6757  0.7134  0.5901
  165SOPE   H4Y18580   6.792   1.335  10.079 -1.9645  1.0236 -0.2570
  165SOPE   C3518581   6.789   1.130  10.020 -0.4888  0.7035 -0.5631
  165SOPE   H5X18582   6.766   1.039  10.079 -2.8193  0.1577 -2.1516
  165SOPE   H5Y18583   6.900   1.127  10.017 -0.3130 -5.0785 -0.4132
  165SOPE   C3618584   6.724   1.118   9.885 -0.6305  0.0023  0.7229
  165SOPE   H6X18585   6.729   1.214   9.830  1.3903 -0.4681 -0.0057
  165SOPE   H6Y18586   6.617   1.089   9.880  0.0995 -2.7173 -2.0790
  165SOPE   C3718587   6.786   1.009   9.799 -0.2619 -0.3286  0.4121
  165SOPE   H7X18588   6.777   0.918   9.862  0.3586 -0.0371  0.9289
  165SOPE   H7Y18589   6.894   1.030   9.781 -0.5440 -0.4580 -1.8206
  165SOPE   C3818590   6.708   0.977   9.666  0.5695 -0.3104  0.5908
  165SOPE   H8X18591   6.599   0.961   9.684 -0.4583  3.6509 -0.9855
  165SOPE   H8Y18592   6.758   0.894   9.612 -0.8649  0.7415 -2.5907
  165SOPE   C3918593   6.713   1.086   9.558  0.1259 -0.1049  0.1228
  165SOPE   H9X18594   6.817   1.124   9.550 -0.7662  2.1640 -2.5507
  165SOPE   H9Y18595   6.655   1.173   9.597  0.7101 -0.1942  1.2220
  165SOPE  C31018596   6.651   1.041   9.422 -0.3892 -0.3017 -0.1938
  165SOPE  H10X18597   6.542   1.026   9.433 -0.8127  1.2097 -1.7916
  165SOPE  H10Y18598   6.698   0.943   9.395 -1.4970 -1.0245  0.4570
  165SOPE  C31118599   6.686   1.141   9.308 -0.6740  0.0110  0.1032
  165SOPE  H11X18600   6.795   1.156   9.319  0.0856 -2.2705 -2.9856
  165SOPE  H11Y18601   6.632   1.235   9.334 -3.7223 -1.4433 -0.5294
  165SOPE  C31218602   6.657   1.087   9.174 -0.0570  0.9910  0.3711
  165SOPE  H12X18603   6.553   1.049   9.165  0.1843  0.6925 -1.7548
  165SOPE  H12Y18604   6.714   0.992   9.162 -2.0750 -0.6538  2.7622
  165SOPE  C31318605   6.687   1.174   9.055 -0.3014  0.6531  0.3774
  165SOPE  H13X18606   6.775   1.237   9.081 -0.0643  0.1229  0.8739
  165SOPE  H13Y18607   6.604   1.248   9.045 -0.6556 -0.0241 -2.2556
  165SOPE  C31418608   6.713   1.095   8.921  0.1220 -0.2473 -0.6566
  165SOPE  H14X18609   6.640   1.011   8.911 -0.1452 -0.3405  1.5276
  165SOPE  H14Y18610   6.815   1.052   8.932  0.6470  0.5560 -2.2412
  165SOPE  C31518611   6.710   1.186   8.801  0.3551  0.5670  0.0069
  165SOPE  H15X18612   6.763   1.280   8.828  0.3548  2.3628 -5.2029
  165SOPE  H15Y18613   6.606   1.219   8.786  0.4215  0.7740 -0.0034
  165SOPE  C31618614   6.776   1.118   8.673 -0.0241 -0.7063 -0.3387
  165SOPE  H16X18615   6.742   1.013   8.660 -0.2006 -1.2940  3.7111
  165SOPE  H16Y18616   6.886   1.117   8.687 -0.1332 -3.2379  0.9150
  165SOPE  C31718617   6.745   1.192   8.541  0.8126 -0.5627  0.5168
  165SOPE  H17X18618   6.764   1.301   8.556 -0.4378 -0.2680  0.0062
  165SOPE  H17Y18619   6.635   1.187   8.531  0.5559  0.7883  2.0644
  165SOPE  C31818620   6.820   1.125   8.434  0.0821  0.1266  0.1528
  165SOPE  H18X18621   6.825   1.014   8.435  0.7107  0.1483  0.1500
  165SOPE  H18Y18622   6.920   1.174   8.432 -0.4289  1.1827 -0.3285
  165SOPE  H18Z18623   6.776   1.145   8.334  1.1500  0.7486 -0.2184
  166SOPE     N18624   4.534   1.868  10.889 -0.4048 -0.6020 -0.6678
  166SOPE   HN118625   4.636   1.886  10.893 -0.0850 -2.4009  1.8597
  166SOPE   HN218626   4.499   1.959  10.926  0.1041 -0.4867 -0.4673
  166SOPE   HN318627   4.512   1.789  10.954  2.2368 -0.4762  0.5253
  166SOPE   C1218628   4.456   1.842  10.763  0.1244 -0.2978 -0.2213
  166SOPE  H12A18629   4.517   1.770  10.704  1.2661  0.9338 -0.5725
  166SOPE  H12B18630   4.452   1.940  10.711  2.1383  0.9619  1.8273
  166SOPE   C1118631   4.326   1.769  10.799 -0.4579 -0.4755  0.4942
  166SOPE  H11A18632   4.257   1.769  10.712 -1.9431 -2.6434  1.5659
  166SOPE  H11B18633   4.275   1.826  10.879  1.6147  2.4368 -0.0886
  166SOPE     P18634   4.281   1.510  10.814 -0.4258  0.4396 -0.0217
  166SOPE   O1318635   4.164   1.490  10.904  0.1847 -0.4211  0.2189
  166SOPE   O1418636   4.378   1.401  10.802 -0.5465 -0.4700  0.7425
  166SOPE   O1218637   4.356   1.640  10.851  0.0797  0.2370 -0.3303
  166SOPE   O1118638   4.220   1.544  10.673 -0.2827  0.3625 -0.3915
  166SOPE    C118639   4.289   1.502  10.551 -0.1989 -0.4817  0.0021
  166SOPE    HA18640   4.241   1.411  10.509 -1.0019 -1.6414  3.1515
  166SOPE    HB18641   4.396   1.482  10.574  0.5341  2.5892 -0.3657
  166SOPE    C218642   4.308   1.612  10.440 -0.0504  0.1544  0.6308
  166SOPE    HS18643   4.373   1.692  10.483  1.2508  0.0123 -0.9732
  166SOPE   O2118644   4.179   1.662  10.395 -0.5506  0.3325  0.3066
  166SOPE   C2118645   4.187   1.794  10.367  0.2326  0.1096  0.0218
  166SOPE   O2218646   4.286   1.860  10.391  0.0202 -0.1476  0.0257
  166SOPE   C2218647   4.041   1.842  10.329 -0.7612 -0.2442  0.2913
  166SOPE   H2R18648   4.026   1.948  10.358 -0.6326 -0.3322  0.6925
  166SOPE   H2S18649   3.982   1.782  10.401  0.8073 -1.6720  0.4536
  166SOPE    C318650   4.393   1.552  10.321  0.2590  0.1723 -0.1071
  166SOPE    HX18651   4.335   1.469  10.276  0.2423  1.0032 -1.6664
  166SOPE    HY18652   4.485   1.503  10.357 -0.1938 -0.5451  0.0924
  166SOPE   O3118653   4.420   1.648  10.225  0.0877  0.3744 -0.3487
  166SOPE   C3118654   4.516   1.742  10.253  0.3335  0.3910  0.4064
  166SOPE   O3218655   4.585   1.741  10.355 -0.3227  0.4114 -0.5726
  166SOPE   C3218656   4.531   1.838  10.130  0.6706 -0.4549  0.8792
  166SOPE   H2X18657   4.640   1.858  10.128  0.5983 -0.0623  0.9188
  166SOPE   H2Y18658   4.467   1.927  10.148 -0.9614 -1.1474 -1.0809
  166SOPE   C2318659   4.019   1.811  10.176 -0.2158 -0.2612  0.5519
  166SOPE   H3R18660   4.046   1.704  10.160 -2.8776 -1.2212  1.8940
  166SOPE   H3S18661   4.093   1.872  10.120  1.4539 -3.1232 -0.5911
  166SOPE   C2418662   3.871   1.816  10.144  0.2481 -1.0409 -0.5505
  166SOPE   H4R18663   3.823   1.737  10.206  0.7882 -2.1937 -1.5591
  166SOPE   H4S18664   3.823   1.915  10.163 -1.0404 -1.2450 -2.5051
  166SOPE   C2518665   3.819   1.764  10.008 -0.5402  0.4982 -0.2321
  166SOPE   H5R18666   3.853   1.661   9.985 -0.6106  0.4132  0.0344
  166SOPE   H5S18667   3.708   1.768  10.020 -0.5010  0.0543  0.3308
  166SOPE   C2618668   3.867   1.838   9.886  0.2706 -0.2303 -0.8891
  166SOPE   H6R18669   3.797   1.924   9.874 -0.1626 -0.1760  1.6400
  166SOPE   H6S18670   3.970   1.874   9.907  0.1805 -0.4581 -0.0422
  166SOPE   C2718671   3.863   1.763   9.760  0.0514 -0.1021  0.3768
  166SOPE   H7R18672   3.942   1.685   9.758 -1.1865 -1.3885 -0.1340
  166SOPE   H7S18673   3.767   1.710   9.741  0.0037  0.1605 -0.1421
  166SOPE   C2818674   3.902   1.846   9.636  0.1656 -0.6367 -0.1453
  166SOPE   H8R18675   3.818   1.918   9.624  0.1236 -0.9033 -1.7422
  166SOPE   H8S18676   3.989   1.910   9.663 -0.8265  0.5042  0.4409
  166SOPE   C2918677   3.917   1.774   9.507 -0.2853  0.2469  0.0704
  166SOPE   H9118678   3.986   1.689   9.515  0.5541  0.9030 -0.0796
  166SOPE  C21018679   3.846   1.779   9.394  0.1570 -0.6385  0.5780
  166SOPE  H10118680   3.884   1.706   9.321  1.3969  0.0411  0.5098
  166SOPE  C21118681   3.736   1.876   9.346 -0.8508  0.3152  0.1418
  166SOPE  H11R18682   3.701   1.943   9.427 -0.3082 -0.3764  0.9811
  166SOPE  H11S18683   3.644   1.828   9.308 -1.7960  2.7967 -0.8863
  166SOPE  C21218684   3.780   1.980   9.245  0.0253  0.3105  0.1157
  166SOPE  H12R18685   3.883   2.017   9.263  0.1972 -0.3422  0.5405
  166SOPE  H12S18686   3.701   2.058   9.238 -0.9160 -0.4624  1.4976
  166SOPE  C21318687   3.782   1.914   9.102 -0.1605  0.2412 -0.2709
  166SOPE  H13R18688   3.700   1.838   9.103 -0.7239  0.8366 -0.4769
  166SOPE  H13S18689   3.880   1.864   9.087 -1.6452 -2.3127 -2.3536
  166SOPE  C21418690   3.770   2.020   8.989 -0.1406  0.3985 -0.8364
  166SOPE  H14R18691   3.840   2.105   8.994 -0.9228  1.0449 -0.7539
  166SOPE  H14S18692   3.665   2.055   9.000 -0.0062  0.2065  1.4171
  166SOPE  C21518693   3.801   1.955   8.851  0.0364 -0.2315 -0.2462
  166SOPE  H15R18694   3.764   1.852   8.833  1.8786 -0.6380 -2.0495
  166SOPE  H15S18695   3.912   1.954   8.858  0.1657 -0.3306 -1.8529
  166SOPE  C21618696   3.758   2.048   8.737 -0.6319  0.0258 -0.6202
  166SOPE  H16R18697   3.804   2.004   8.646  1.5334  0.9504 -0.0391
  166SOPE  H16S18698   3.792   2.150   8.766 -2.1571  1.0381 -2.1799
  166SOPE  C21718699   3.606   2.037   8.714  0.8514 -0.0489  0.0619
  166SOPE  H17R18700   3.554   2.050   8.811  0.6522 -1.4339  0.1655
  166SOPE  H17S18701   3.591   1.929   8.689  0.8576 -0.2086  0.7348
  166SOPE  C21818702   3.551   2.136   8.609 -0.4637  0.7729 -0.5774
  166SOPE  H18R18703   3.571   2.106   8.504 -0.5957 -1.3112 -0.0419
  166SOPE  H18S18704   3.599   2.234   8.631 -2.3007  1.5794 -0.0479
  166SOPE  H18T18705   3.441   2.135   8.622 -0.3953 -1.4737  0.2151
  166SOPE   C3318706   4.483   1.785   9.987 -0.3582  0.0369 -0.6182
  166SOPE   H3X18707   4.504   1.676   9.977  2.3448  0.4513 -0.3477
  166SOPE   H3Y18708   4.551   1.829   9.912  1.0784  1.4091  1.3885
  166SOPE   C3418709   4.334   1.821   9.958 -0.0427 -0.0125  0.0437
  166SOPE   H4X18710   4.314   1.930   9.962 -1.3879 -0.2340 -0.1556
  166SOPE   H4Y18711   4.271   1.774  10.037 -2.0409  0.4228 -1.2022
  166SOPE   C3518712   4.277   1.766   9.826 -0.4372  0.5652 -0.0361
  166SOPE   H5X18713   4.169   1.790   9.827 -0.2922  1.4960 -2.1977
  166SOPE   H5Y18714   4.288   1.656   9.823 -0.3667  0.6010 -2.0539
  166SOPE   C3618715   4.350   1.820   9.704 -0.3318 -0.0239 -0.1345
  166SOPE   H6X18716   4.456   1.793   9.685  0.4146  1.6122  1.3807
  166SOPE   H6Y18717   4.349   1.930   9.717  0.4870 -0.3581  4.2313
  166SOPE   C3718718   4.274   1.794   9.571  0.4359 -0.7282 -0.9447
  166SOPE   H7X18719   4.175   1.842   9.584 -0.1556 -2.1571  0.2442
  166SOPE   H7Y18720   4.271   1.684   9.553 -1.2351 -0.5739 -1.7033
  166SOPE   C3818721   4.345   1.859   9.452 -0.3231  0.0012  0.4811
  166SOPE   H8X18722   4.440   1.802   9.440  0.3998  1.4823 -1.2156
  166SOPE   H8Y18723   4.356   1.964   9.485  1.1977 -0.5171  1.7247
  166SOPE   C3918724   4.270   1.863   9.323  0.2168 -0.4386  1.0797
  166SOPE   H9X18725   4.337   1.911   9.249 -0.6685 -1.2689 -0.3025
  166SOPE   H9Y18726   4.179   1.922   9.347 -0.9367 -2.0672  0.9382
  166SOPE  C31018727   4.238   1.722   9.264 -0.3080 -0.6851  0.8154
  166SOPE  H10X18728   4.170   1.664   9.331  0.0161 -1.0637  0.8189
  166SOPE  H10Y18729   4.335   1.668   9.267 -0.6964 -1.7595 -2.2106
  166SOPE  C31118730   4.206   1.721   9.117 -0.1608 -0.1890  0.1783
  166SOPE  H11X18731   4.145   1.811   9.093  2.3711  1.3741 -0.7713
  166SOPE  H11Y18732   4.150   1.628   9.091 -0.6684  0.4961 -1.3210
  166SOPE  C31218733   4.326   1.718   9.013 -0.3358 -0.4310 -0.9279
  166SOPE  H12X18734   4.413   1.669   9.062  0.0786  0.9755 -0.2060
  166SOPE  H12Y18735   4.352   1.825   8.998  2.2160 -0.7858  0.3583
  166SOPE  C31318736   4.291   1.643   8.884 -0.5473 -0.6542 -0.0006
  166SOPE  H13X18737   4.282   1.534   8.905  3.1814 -0.9223  1.0815
  166SOPE  H13Y18738   4.373   1.661   8.811 -0.8017  1.9934  0.2851
  166SOPE  C31418739   4.163   1.696   8.808 -0.0884 -0.0071 -0.8023
  166SOPE  H14X18740   4.149   1.806   8.802 -0.5358 -0.0040  0.0532
  166SOPE  H14Y18741   4.072   1.673   8.869  2.1942 -1.1294  2.4343
  166SOPE  C31518742   4.152   1.644   8.664 -0.1417 -0.3311  0.3663
  166SOPE  H15X18743   4.159   1.534   8.674  1.0385 -0.1232  2.1562
  166SOPE  H15Y18744   4.228   1.693   8.598 -0.6826 -1.0330 -0.8272
  166SOPE  C31618745   4.018   1.673   8.603  0.1915  0.0012 -0.2418
  166SOPE  H16X18746   3.940   1.665   8.681 -1.0512  1.6941 -1.2517
  166SOPE  H16Y18747   4.000   1.583   8.540 -0.8481 -1.2100  1.6671
  166SOPE  C31718748   3.998   1.801   8.518 -0.4315 -0.2207 -0.2401
  166SOPE  H17X18749   4.071   1.806   8.435 -1.1983  1.7655 -0.8405
  166SOPE  H17Y18750   4.019   1.886   8.586  0.7896  0.7353 -1.7802
  166SOPE  C31818751   3.855   1.816   8.465 -0.3954 -0.8211  0.0416
  166SOPE  H18X18752   3.846   1.920   8.425 -1.6085 -0.1469  1.9506
  166SOPE  H18Y18753   3.779   1.808   8.545 -0.5471 -0.7382 -0.0939
  166SOPE  H18Z18754   3.816   1.748   8.386  0.0470 -2.5924  1.2893
  167SOPE     N18755   5.214   0.538   6.228  0.0435  0.0564  0.1817
  167SOPE   HN118756   5.111   0.536   6.214  0.2085  0.3805 -1.2319
  167SOPE   HN218757   5.245   0.445   6.264 -2.7601 -1.8032 -1.7025
  167SOPE   HN318758   5.234   0.614   6.295  0.3993 -1.2245  1.5809
  167SOPE   C1218759   5.268   0.577   6.094  0.6362 -0.1730 -0.5299
  167SOPE  H12A18760   5.229   0.505   6.019  2.3061  0.0751 -1.6898
  167SOPE  H12B18761   5.378   0.561   6.098  0.3831 -1.9835  2.1585
  167SOPE   C1118762   5.236   0.724   6.068  0.2688 -0.4691  0.3708
  167SOPE  H11A18763   5.126   0.734   6.056  0.4021  0.8883  0.1471
  167SOPE  H11B18764   5.278   0.759   5.972  0.9281 -0.9626  0.4677
  167SOPE     P18765   5.405   0.883   6.184 -0.3049  0.8005 -0.3203
  167SOPE   O1318766   5.428   0.951   6.053 -0.2636 -0.4273  0.4500
  167SOPE   O1418767   5.499   0.776   6.205 -0.0256  0.3818  0.4304
  167SOPE   O1218768   5.257   0.821   6.177 -0.7196 -0.3298 -0.3839
  167SOPE   O1118769   5.417   0.986   6.300  0.4025  0.0904 -0.3984
  167SOPE    C118770   5.306   1.051   6.358 -0.8077 -0.2632 -0.5664
  167SOPE    HA18771   5.255   0.970   6.414 -1.1246 -0.7206 -1.5065
  167SOPE    HB18772   5.239   1.090   6.279 -0.1295 -0.6859 -1.3769
  167SOPE    C218773   5.338   1.161   6.460  0.0179 -0.0860  0.3450
  167SOPE    HS18774   5.389   1.245   6.409 -0.0353 -0.6393 -0.6411
  167SOPE   O2118775   5.422   1.092   6.562 -0.2100 -0.5029  0.9263
  167SOPE   C2118776   5.498   1.172   6.631  0.7058  0.4234  0.0501
  167SOPE   O2218777   5.510   1.291   6.614  0.0846  0.4851 -0.3943
  167SOPE   C2218778   5.565   1.097   6.759  0.3689  0.3737  0.1761
  167SOPE   H2R18779   5.657   1.053   6.714  0.7910  1.1331  0.2862
  167SOPE   H2S18780   5.494   1.023   6.802  0.1722  0.0676 -0.6375
  167SOPE    C318781   5.213   1.227   6.514 -0.0923 -0.2687  0.3787
  167SOPE    HX18782   5.155   1.274   6.431  0.5397 -2.5090 -1.4543
  167SOPE    HY18783   5.237   1.304   6.590 -2.1563  0.6215  0.1783
  167SOPE   O3118784   5.119   1.132   6.572  0.1523  0.1155  0.7749
  167SOPE   C3118785   5.136   1.108   6.691  0.7771 -0.1426  0.2660
  167SOPE   O3218786   5.208   1.163   6.771 -0.7935 -0.6115  0.5446
  167SOPE   C3218787   5.042   0.990   6.742 -0.3555  0.8613  0.5499
  167SOPE   H2X18788   5.049   0.908   6.668  0.8897  1.1969  0.2765
  167SOPE   H2Y18789   4.940   1.033   6.740 -0.0604  1.5826 -2.0872
  167SOPE   C2318790   5.599   1.185   6.878  1.2310 -0.4377  0.1806
  167SOPE   H3R18791   5.497   1.210   6.915  1.7063  0.7986  0.7146
  167SOPE   H3S18792   5.650   1.277   6.843  0.6648  0.1713  0.8948
  167SOPE   C2418793   5.663   1.100   6.993 -0.3262 -0.1915 -0.1076
  167SOPE   H4R18794   5.589   1.027   7.032 -0.2290  0.3338  1.0821
  167SOPE   H4S18795   5.750   1.050   6.945  1.8946  1.5690  1.8227
  167SOPE   C2518796   5.719   1.190   7.108 -0.7449 -0.1677 -0.7184
  167SOPE   H5R18797   5.823   1.215   7.076 -0.1594  0.4832  1.5593
  167SOPE   H5S18798   5.677   1.293   7.115  2.2296  1.0276  2.6234
  167SOPE   C2618799   5.711   1.136   7.251  0.3132 -0.0996 -0.2330
  167SOPE   H6R18800   5.633   1.058   7.236  0.0613  0.1155 -0.0505
  167SOPE   H6S18801   5.801   1.071   7.264  0.4689  0.0497 -0.5496
  167SOPE   C2718802   5.666   1.231   7.368 -1.0132 -0.3285 -0.5320
  167SOPE   H7R18803   5.738   1.315   7.377 -1.0919 -0.4482  1.8024
  167SOPE   H7S18804   5.571   1.275   7.331 -0.2103  0.8471 -1.2841
  167SOPE   C2818805   5.658   1.166   7.510 -1.6566  0.1038  0.0490
  167SOPE   H8R18806   5.621   1.236   7.588 -3.9447 -0.6963 -0.2329
  167SOPE   H8S18807   5.572   1.096   7.503 -0.9384 -0.8410  0.5588
  167SOPE   C2918808   5.790   1.102   7.557  0.3578  0.0584  0.4412
  167SOPE   H9118809   5.870   1.097   7.482 -0.1935 -0.0710 -0.1466
  167SOPE  C21018810   5.820   1.065   7.686 -0.4017 -0.4737 -0.3006
  167SOPE  H10118811   5.907   1.004   7.713 -0.6034 -0.4527  0.4257
  167SOPE  C21118812   5.732   1.088   7.811 -0.2334  0.3513 -0.1722
  167SOPE  H11R18813   5.738   0.999   7.877  0.4885 -0.6333 -1.5212
  167SOPE  H11S18814   5.629   1.108   7.775 -0.4811  0.2770  0.4867
  167SOPE  C21218815   5.766   1.217   7.885 -0.1811 -0.4237  0.1082
  167SOPE  H12R18816   5.682   1.236   7.956 -0.4186 -2.2211  0.3564
  167SOPE  H12S18817   5.757   1.309   7.823 -3.6424  3.2619  5.2124
  167SOPE  C21318818   5.901   1.224   7.961  0.0605  0.3234 -0.7619
  167SOPE  H13R18819   5.982   1.191   7.893 -0.8992 -1.4652 -1.0915
  167SOPE  H13S18820   5.906   1.160   8.052  1.7240  0.9032 -0.4146
  167SOPE  C21418821   5.924   1.371   8.003 -0.4085  0.6473  0.4891
  167SOPE  H14R18822   5.844   1.419   8.063 -0.2785  2.3671 -0.6430
  167SOPE  H14S18823   5.931   1.426   7.907  0.2012  1.4011  0.9516
  167SOPE  C21518824   6.063   1.389   8.071 -0.3840  0.4119  0.1545
  167SOPE  H15R18825   6.144   1.330   8.023 -1.3366 -1.0568  0.3066
  167SOPE  H15S18826   6.057   1.345   8.173 -2.1172 -0.3405 -0.2381
  167SOPE  C21618827   6.096   1.542   8.088 -0.0329  0.5804 -0.0134
  167SOPE  H16R18828   6.129   1.581   7.989 -2.8797  1.4214 -0.7077
  167SOPE  H16S18829   6.179   1.554   8.161  0.4354  0.0630 -0.4457
  167SOPE  C21718830   5.980   1.636   8.143 -0.4241 -0.1308  0.4227
  167SOPE  H17R18831   5.896   1.599   8.080 -0.4871 -0.2293  0.5652
  167SOPE  H17S18832   6.011   1.738   8.113  0.3249 -0.5812 -0.3750
  167SOPE  C21818833   5.929   1.613   8.285 -0.6360  0.1502 -0.2086
  167SOPE  H18R18834   5.993   1.667   8.358  0.7303 -0.8020 -0.6532
  167SOPE  H18S18835   5.926   1.505   8.311 -0.7146  0.1442 -0.2413
  167SOPE  H18T18836   5.823   1.645   8.293 -0.3399  1.8740 -2.2708
  167SOPE   C3318837   5.074   0.946   6.885 -0.2649 -0.2096 -1.0359
  167SOPE   H3X18838   4.990   0.892   6.934 -0.0069  0.6849  0.4335
  167SOPE   H3Y18839   5.092   1.032   6.953 -2.4709 -1.0991  0.8012
  167SOPE   C3418840   5.195   0.843   6.898 -0.0936  0.2723 -0.3936
  167SOPE   H4X18841   5.289   0.899   6.878  0.3766  0.1161  1.2582
  167SOPE   H4Y18842   5.182   0.762   6.824  0.5633  0.3072 -0.5556
  167SOPE   C3518843   5.206   0.781   7.036 -0.3927  0.5404 -0.4361
  167SOPE   H5X18844   5.269   0.690   7.026 -1.6048 -0.4741  0.7309
  167SOPE   H5Y18845   5.105   0.756   7.074  0.0155  1.5425  1.4916
  167SOPE   C3618846   5.285   0.877   7.132  0.2814  0.1878 -0.6132
  167SOPE   H6X18847   5.220   0.964   7.155  1.3005  1.1656 -1.2825
  167SOPE   H6Y18848   5.376   0.915   7.081  0.1018 -0.4921 -1.4585
  167SOPE   C3718849   5.326   0.804   7.259  0.0940 -0.0299 -0.4751
  167SOPE   H7X18850   5.388   0.722   7.216  1.9911  0.2338  1.5355
  167SOPE   H7Y18851   5.238   0.752   7.302 -0.0517 -0.7118 -1.5528
  167SOPE   C3818852   5.410   0.880   7.362  0.2345  0.0534 -0.6267
  167SOPE   H8X18853   5.373   0.984   7.366 -1.4510 -0.5471  0.9857
  167SOPE   H8Y18854   5.515   0.879   7.326 -0.0586 -0.1300 -1.5145
  167SOPE   C3918855   5.413   0.822   7.502  0.0290  0.1585  0.2370
  167SOPE   H9X18856   5.499   0.881   7.540 -0.2305  0.7426 -0.0654
  167SOPE   H9Y18857   5.445   0.717   7.517 -0.5880  0.0624  0.9708
  167SOPE  C31018858   5.290   0.845   7.588 -0.7174 -0.0793  0.0873
  167SOPE  H10X18859   5.202   0.801   7.538 -1.4714  0.1201  1.2028
  167SOPE  H10Y18860   5.260   0.952   7.591  1.6891  0.7155 -1.0576
  167SOPE  C31118861   5.295   0.795   7.726 -0.1982 -0.3240  0.1906
  167SOPE  H11X18862   5.291   0.684   7.734 -0.4311 -0.2924  0.5143
  167SOPE  H11Y18863   5.200   0.830   7.771 -0.3254  0.3352 -0.5732
  167SOPE  C31218864   5.422   0.842   7.801  0.4609 -0.1103 -0.0380
  167SOPE  H12X18865   5.440   0.940   7.752 -2.3767 -0.1535 -1.3210
  167SOPE  H12Y18866   5.507   0.777   7.769  0.5325 -1.0240  1.8816
  167SOPE  C31318867   5.410   0.840   7.955  0.8348 -0.3617 -0.6262
  167SOPE  H13X18868   5.399   0.735   7.991 -0.4256  0.6111  2.0858
  167SOPE  H13Y18869   5.309   0.883   7.970  1.1668  0.1698  0.1753
  167SOPE  C31418870   5.510   0.918   8.036  0.0658 -0.7429 -0.1921
  167SOPE  H14X18871   5.524   1.022   7.999  0.8028  0.1679  2.3973
  167SOPE  H14Y18872   5.610   0.869   8.034  1.4325  1.8461 -0.1203
  167SOPE  C31518873   5.453   0.943   8.187 -0.5474  0.4218  0.2553
  167SOPE  H15X18874   5.426   0.840   8.219 -1.9233  1.1354  1.4816
  167SOPE  H15Y18875   5.359   0.999   8.165 -0.0322  1.1079 -0.2576
  167SOPE  C31618876   5.542   1.014   8.283 -0.4338  0.0318 -0.1595
  167SOPE  H16X18877   5.589   0.938   8.348  1.3582  0.7887 -0.5175
  167SOPE  H16Y18878   5.486   1.084   8.350 -2.4843 -0.2019 -1.5366
  167SOPE  C31718879   5.645   1.112   8.211  0.2622 -0.6615 -0.5414
  167SOPE  H17X18880   5.585   1.195   8.170  0.3289 -1.0096 -1.3534
  167SOPE  H17Y18881   5.703   1.067   8.127  1.4325 -1.3470  0.5922
  167SOPE  C31818882   5.749   1.180   8.297  0.3356 -0.2989  0.1223
  167SOPE  H18X18883   5.835   1.114   8.322 -0.2519 -2.4079 -2.8721
  167SOPE  H18Y18884   5.714   1.196   8.401  2.4153  0.1519  0.8016
  167SOPE  H18Z18885   5.779   1.273   8.243  2.5419 -2.1338 -2.0850
  168SOPE     N18886   3.626   6.204   6.515  0.1865  0.3848  0.3640
  168SOPE   HN118887   3.647   6.293   6.565 -3.9659  2.4738 -1.1064
  168SOPE   HN218888   3.530   6.167   6.533 -0.3660  0.2525 -2.4044
  168SOPE   HN318889   3.698   6.138   6.549 -0.4022 -0.1338  0.6192
  168SOPE   C1218890   3.644   6.229   6.368  0.4847 -0.5769 -0.0032
  168SOPE  H12A18891   3.750   6.246   6.339  0.4221  0.2966  0.2709
  168SOPE  H12B18892   3.586   6.320   6.342 -0.9516 -2.1600 -2.8564
  168SOPE   C1118893   3.594   6.109   6.293 -0.3289 -0.0179 -0.1841
  168SOPE  H11A18894   3.608   6.133   6.185  1.2101  0.7816  0.1724
  168SOPE  H11B18895   3.486   6.085   6.309  0.1712 -1.8062  0.6889
  168SOPE     P18896   3.621   5.860   6.329  0.2782  0.4266 -0.3403
  168SOPE   O1318897   3.721   5.752   6.340  0.9517 -0.4293  0.0917
  168SOPE   O1418898   3.539   5.858   6.207  0.0969 -0.1138  0.3899
  168SOPE   O1218899   3.682   6.002   6.329 -0.3012  0.2102 -0.6759
  168SOPE   O1118900   3.527   5.854   6.453  0.0932 -0.1009  0.3081
  168SOPE    C118901   3.587   5.830   6.585 -0.2459 -0.5323  0.3601
  168SOPE    HA18902   3.574   5.924   6.643 -1.1009 -1.2346  1.3480
  168SOPE    HB18903   3.694   5.800   6.583 -0.1334 -0.7576  3.6876
  168SOPE    C218904   3.502   5.720   6.657 -0.3641 -0.1123  0.7251
  168SOPE    HS18905   3.395   5.740   6.636  0.1621  2.1548 -0.1682
  168SOPE   O2118906   3.529   5.731   6.797  0.3240 -0.0652 -0.8901
  168SOPE   C2118907   3.455   5.651   6.877  0.1593  0.5466 -0.1580
  168SOPE   O2218908   3.357   5.585   6.842  0.3482 -1.1807 -0.1724
  168SOPE   C2218909   3.526   5.637   7.007 -0.4866 -0.0898  0.0236
  168SOPE   H2R18910   3.548   5.739   7.043 -2.5883 -0.1500  1.6790
  168SOPE   H2S18911   3.619   5.585   6.973 -1.9269 -1.7122 -1.7395
  168SOPE    C318912   3.538   5.586   6.604  0.6189  0.2506 -0.3220
  168SOPE    HX18913   3.532   5.606   6.495 -1.0557 -0.1398 -0.3202
  168SOPE    HY18914   3.456   5.513   6.619  0.6375  0.5422  1.4848
  168SOPE   O3118915   3.666   5.542   6.649 -0.1034 -0.2883 -0.3008
  168SOPE   C3118916   3.718   5.450   6.574 -0.6902 -0.4878  0.6275
  168SOPE   O3218917   3.667   5.411   6.471  0.4563 -0.3132 -0.2956
  168SOPE   C3218918   3.853   5.388   6.636 -0.1243  0.5035 -0.8035
  168SOPE   H2X18919   3.876   5.310   6.560 -3.2602 -0.7832 -0.5978
  168SOPE   H2Y18920   3.824   5.345   6.734 -1.6079  2.5331 -0.2795
  168SOPE   C2318921   3.451   5.560   7.123  0.6717  0.1017  0.2467
  168SOPE   H3R18922   3.400   5.474   7.074  1.0558 -1.4260  2.3822
  168SOPE   H3S18923   3.364   5.618   7.160  0.6626  0.8117 -0.8462
  168SOPE   C2418924   3.538   5.523   7.241  0.4238 -0.1221  0.0132
  168SOPE   H4R18925   3.474   5.467   7.313  1.5434  2.0983  2.9301
  168SOPE   H4S18926   3.613   5.446   7.212  1.2340  0.3064  0.8917
  168SOPE   C2518927   3.606   5.653   7.300  0.1514 -0.2778  0.3824
  168SOPE   H5R18928   3.703   5.650   7.247 -0.8083 -0.1951 -1.4794
  168SOPE   H5S18929   3.550   5.742   7.262 -2.3167 -1.8102  0.1857
  168SOPE   C2618930   3.625   5.652   7.449  0.2132 -0.0574 -0.2180
  168SOPE   H6R18931   3.685   5.739   7.484 -2.2949  1.2568  1.0960
  168SOPE   H6S18932   3.535   5.682   7.507  0.9083  1.4377  0.1186
  168SOPE   C2718933   3.684   5.525   7.505  0.4377  0.7138  0.1627
  168SOPE   H7R18934   3.621   5.437   7.477  4.2932 -1.7643 -1.6070
  168SOPE   H7S18935   3.777   5.501   7.449 -0.9219 -2.6966 -0.9346
  168SOPE   C2818936   3.700   5.514   7.657 -1.2318 -0.4382 -0.8045
  168SOPE   H8R18937   3.603   5.543   7.702 -1.4919 -1.4367 -0.7054
  168SOPE   H8S18938   3.716   5.412   7.698  1.6526  0.6944  1.2259
  168SOPE   C2918939   3.809   5.615   7.702  0.2899 -0.2528  0.8584
  168SOPE   H9118940   3.808   5.711   7.647  0.5045 -2.1565 -2.8002
  168SOPE  C21018941   3.909   5.586   7.776 -0.5131 -0.2038 -0.2929
  168SOPE  H10118942   3.977   5.670   7.797 -0.9324  0.5794 -1.9289
  168SOPE  C21118943   3.944   5.455   7.843 -0.4628 -0.1169 -0.3655
  168SOPE  H11R18944   4.033   5.416   7.789 -1.6412 -0.8736 -1.8445
  168SOPE  H11S18945   3.864   5.378   7.838  2.0093 -3.0290  1.5919
  168SOPE  C21218946   3.986   5.474   7.989  0.7091 -0.5826  0.7350
  168SOPE  H12R18947   3.903   5.527   8.039 -2.1920 -1.5809 -2.6453
  168SOPE  H12S18948   4.070   5.547   7.986 -0.1778  0.4311 -0.3853
  168SOPE  C21318949   4.034   5.345   8.060  0.1537  0.1645 -0.0876
  168SOPE  H13R18950   4.126   5.303   8.014 -1.2331 -0.8528 -2.0692
  168SOPE  H13S18951   3.948   5.276   8.047  1.1732 -1.4065  1.1229
  168SOPE  C21418952   4.082   5.385   8.199  0.1295 -0.6227 -0.2523
  168SOPE  H14R18953   4.002   5.437   8.255 -0.9984 -1.4801 -1.0413
  168SOPE  H14S18954   4.164   5.460   8.203 -1.9861  1.7882  2.4671
  168SOPE  C21518955   4.110   5.258   8.278 -0.1221  0.2041  0.0270
  168SOPE  H15R18956   4.200   5.222   8.223  0.4195  0.5604  0.6628
  168SOPE  H15S18957   4.027   5.185   8.270  0.3855 -0.3882  0.0385
  168SOPE  C21618958   4.142   5.290   8.431 -0.1599  0.2923 -0.0478
  168SOPE  H16R18959   4.042   5.323   8.466 -0.9633  0.1189 -2.0749
  168SOPE  H16S18960   4.211   5.375   8.449  0.4516 -0.0579 -0.7126
  168SOPE  C21718961   4.184   5.167   8.513  0.2208 -0.6109  0.0082
  168SOPE  H17R18962   4.247   5.196   8.600 -0.2027 -0.4212  0.2607
  168SOPE  H17S18963   4.249   5.097   8.456  0.9440  0.0757 -0.0323
  168SOPE  C21818964   4.063   5.084   8.550  0.7981 -0.1502  0.0194
  168SOPE  H18R18965   4.092   5.015   8.633  0.1940 -1.7496 -1.0401
  168SOPE  H18S18966   4.042   5.020   8.462 -0.1845 -1.6645  1.2992
  168SOPE  H18T18967   3.975   5.147   8.572 -0.6026 -1.9416 -0.2276
  168SOPE   C3318968   3.965   5.493   6.668 -0.2040  0.3803 -0.4925
  168SOPE   H3X18969   3.985   5.556   6.579  0.6391 -0.0468 -0.6108
  168SOPE   H3Y18970   4.050   5.427   6.696 -0.5884  0.0172 -0.1639
  168SOPE   C3418971   3.938   5.576   6.789 -0.4999  0.1935  0.0536
  168SOPE   H4X18972   3.836   5.612   6.814  0.2523  2.1135  0.5045
  168SOPE   H4Y18973   4.015   5.655   6.796  1.3560 -1.4625 -0.7491
  168SOPE   C3518974   3.973   5.491   6.917 -0.0804 -0.2915  0.3513
  168SOPE   H5X18975   4.073   5.446   6.902 -0.4817 -2.0287  2.3955
  168SOPE   H5Y18976   3.894   5.413   6.927 -1.6114  1.1684  0.0823
  168SOPE   C3618977   3.958   5.578   7.038  0.0032 -0.2583 -0.6122
  168SOPE   H6X18978   3.884   5.661   7.031  1.4385  1.0709 -0.6894
  168SOPE   H6Y18979   4.054   5.635   7.038  0.0080 -0.2410 -1.7296
  168SOPE   C3718980   3.933   5.505   7.170  0.0439  0.6216  0.0799
  168SOPE   H7X18981   3.827   5.472   7.175  0.4935 -1.6231 -2.8023
  168SOPE   H7Y18982   3.951   5.574   7.256  0.1691  2.0029 -1.0082
  168SOPE   C3818983   4.033   5.381   7.178 -0.2115  0.3192 -0.1365
  168SOPE   H8X18984   4.128   5.413   7.129 -0.3327  0.3687 -0.3378
  168SOPE   H8Y18985   3.989   5.298   7.120  1.3672 -1.0069  0.4686
  168SOPE   C3918986   4.059   5.312   7.321  0.1443 -0.4723 -0.0430
  168SOPE   H9X18987   4.108   5.213   7.311  0.5087 -0.5844  2.2709
  168SOPE   H9Y18988   3.957   5.305   7.366 -1.1136 -1.8173 -2.8556
  168SOPE  C31018989   4.151   5.399   7.406 -0.5605 -0.9410 -0.0368
  168SOPE  H10X18990   4.099   5.491   7.442 -0.4039 -0.0197 -1.9885
  168SOPE  H10Y18991   4.242   5.426   7.348 -0.7410 -0.1046  0.0556
  168SOPE  C31118992   4.194   5.327   7.540  0.2767 -0.6055  0.7329
  168SOPE  H11X18993   4.119   5.247   7.554 -0.0657 -0.1585  1.5547
  168SOPE  H11Y18994   4.186   5.396   7.627 -0.4920  0.0320  0.1734
  168SOPE  C31218995   4.337   5.271   7.531 -0.6642  0.5078 -0.1544
  168SOPE  H12X18996   4.402   5.351   7.491 -0.6127  0.3467 -0.3998
  168SOPE  H12Y18997   4.352   5.172   7.481  0.4831  0.5450  0.0956
  168SOPE  C31318998   4.395   5.253   7.672  0.8729  0.2077 -0.0054
  168SOPE  H13X18999   4.375   5.354   7.715 -0.6988 -0.4060  0.7743
  168SOPE  H13Y19000   4.506   5.260   7.668  0.8839  0.8578  1.1391
  168SOPE  C31419001   4.335   5.139   7.760 -0.1186  0.0920 -0.3392
  168SOPE  H14X19002   4.328   5.040   7.710  0.0322 -0.8898  1.4939
  168SOPE  H14Y19003   4.235   5.174   7.793  1.2740  2.1407  2.0267
  168SOPE  C31519004   4.413   5.121   7.894 -0.2831 -0.1767 -0.2397
  168SOPE  H15X19005   4.434   5.224   7.929 -3.0480  0.6593 -0.7850
  168SOPE  H15Y19006   4.513   5.074   7.879  0.7667  1.1143  2.1572
  168SOPE  C31619007   4.354   5.042   8.008 -0.4359 -1.3550  0.0784
  168SOPE  H16X19008   4.357   4.936   7.974  1.0655 -0.3478 -3.3920
  168SOPE  H16Y19009   4.247   5.068   8.023 -0.7807 -2.9103  0.5027
  168SOPE  C31719010   4.440   5.058   8.132 -0.3596  0.3212 -0.8086
  168SOPE  H17X19011   4.384   5.065   8.228 -0.5187  0.0238 -0.8803
  168SOPE  H17Y19012   4.501   5.151   8.128  1.5201 -0.5636  2.8113
  168SOPE  C31819013   4.536   4.930   8.147 -0.2762 -0.0984  0.8739
  168SOPE  H18X19014   4.573   4.913   8.251  0.6861 -2.1205  0.2538
  168SOPE  H18Y19015   4.621   4.918   8.077  1.1377 -0.2590  2.5374
  168SOPE  H18Z19016   4.482   4.834   8.131  0.8472 -0.8370  1.3071
  169SOPE     N19017   6.646   2.509   6.310  0.1825  0.0137  0.4676
  169SOPE   HN119018   6.544   2.525   6.301  0.1421  1.6919  2.7904
  169SOPE   HN219019   6.700   2.598   6.308  2.7307 -1.3743  1.9903
  169SOPE   HN319020   6.688   2.450   6.236  2.1331  0.4827  1.1228
  169SOPE   C1219021   6.671   2.428   6.426  0.0037  0.0250  0.0891
  169SOPE  H12A19022   6.618   2.472   6.512 -0.1566 -0.5528  0.2927
  169SOPE  H12B19023   6.777   2.442   6.455 -0.4059 -0.9618  2.2420
  169SOPE   C1119024   6.636   2.278   6.408 -0.0730  0.0538  0.0043
  169SOPE  H11A19025   6.525   2.270   6.402  0.1086 -2.1365 -1.8566
  169SOPE  H11B19026   6.670   2.221   6.497  0.1399  0.8161  0.4143
  169SOPE     P19027   6.660   2.077   6.244 -0.4517  0.0882 -0.4592
  169SOPE   O1319028   6.729   2.056   6.114  0.4044 -0.0825  0.7287
  169SOPE   O1419029   6.515   2.048   6.261 -0.0493  0.0114  0.3517
  169SOPE   O1219030   6.694   2.224   6.289 -0.2352  0.6488 -0.1027
  169SOPE   O1119031   6.743   1.999   6.354 -0.6460  0.2192  0.3961
  169SOPE    C119032   6.886   2.033   6.382  0.4733 -0.2513 -0.1065
  169SOPE    HA19033   6.901   2.143   6.386 -1.1039 -0.0262  0.8730
  169SOPE    HB19034   6.950   1.991   6.302 -1.1968 -0.7592 -1.2373
  169SOPE    C219035   6.922   1.995   6.532  0.5897  0.4666  0.0421
  169SOPE    HS19036   6.925   1.885   6.547 -0.1017  0.5074  0.5663
  169SOPE   O2119037   6.829   2.056   6.621  0.1043 -0.1226 -0.3718
  169SOPE   C2119038   6.785   1.982   6.725  0.2783  0.5130  0.2852
  169SOPE   O2219039   6.832   1.874   6.759 -0.1822 -0.1545  0.2939
  169SOPE   C2219040   6.674   2.057   6.807  0.0102 -0.1374 -0.1546
  169SOPE   H2R19041   6.587   2.059   6.738 -0.2417 -1.2889  0.1038
  169SOPE   H2S19042   6.696   2.165   6.819 -2.3557  0.2525  1.4315
  169SOPE    C319043   7.066   2.050   6.562  0.6172 -0.1282 -0.1790
  169SOPE    HX19044   7.056   2.161   6.565  0.3412 -0.1328 -0.8117
  169SOPE    HY19045   7.135   2.029   6.478  1.8081  2.3483  0.0650
  169SOPE   O3119046   7.109   1.992   6.687  0.6792  0.0922 -0.0512
  169SOPE   C3119047   7.186   2.065   6.766  0.4676 -0.0530  0.5503
  169SOPE   O3219048   7.233   2.177   6.737  0.3101  0.1088  0.1358
  169SOPE   C3219049   7.205   1.982   6.893  0.3147 -0.6340 -0.8961
  169SOPE   H2X19050   7.276   1.900   6.866 -0.2939 -1.0262 -1.3279
  169SOPE   H2Y19051   7.103   1.947   6.916 -0.7724  0.2003 -3.8870
  169SOPE   C2319052   6.635   1.976   6.934 -0.4149 -0.1977 -0.5160
  169SOPE   H3R19053   6.611   1.869   6.918  0.6091 -0.3557 -1.0976
  169SOPE   H3S19054   6.547   2.023   6.984  0.4244  0.9581 -0.0601
  169SOPE   C2419055   6.746   1.971   7.038 -0.3642 -0.9829  0.3734
  169SOPE   H4R19056   6.849   1.955   7.000  0.0146  0.3822  0.7705
  169SOPE   H4S19057   6.751   2.076   7.075  0.0116 -1.0498  0.5166
  169SOPE   C2519058   6.724   1.885   7.156 -0.4069  0.4865  0.3360
  169SOPE   H5R19059   6.614   1.879   7.165 -0.3209  0.5563  1.6096
  169SOPE   H5S19060   6.753   1.782   7.126  1.0953  1.3095 -1.2535
  169SOPE   C2619061   6.786   1.938   7.278  0.3291 -0.5301 -0.9791
  169SOPE   H6R19062   6.815   1.857   7.348 -0.6100 -0.0678 -0.0126
  169SOPE   H6S19063   6.886   1.982   7.257  0.2940  0.6099  0.9434
  169SOPE   C2719064   6.683   2.031   7.343 -0.6559  0.4320  0.2240
  169SOPE   H7R19065   6.697   2.138   7.316 -1.5112  1.1444  2.3618
  169SOPE   H7S19066   6.584   1.993   7.311 -0.7747  0.1393  0.9163
  169SOPE   C2819067   6.682   2.014   7.496  0.1388  0.4120 -0.0769
  169SOPE   H8R19068   6.595   2.080   7.519  1.6454  2.9888 -1.3215
  169SOPE   H8S19069   6.640   1.915   7.524  2.7663 -0.2705  1.7804
  169SOPE   C2919070   6.799   2.049   7.581 -0.4067  0.3765  0.3445
  169SOPE   H9119071   6.895   2.017   7.538 -0.6026 -0.9061  0.8371
  169SOPE  C21019072   6.787   2.113   7.699  0.4372 -0.1875  0.0619
  169SOPE  H10119073   6.876   2.127   7.762  0.1571 -2.5984  1.0937
  169SOPE  C21119074   6.659   2.152   7.775  0.7222  0.3817 -0.0392
  169SOPE  H11R19075   6.570   2.168   7.711 -0.2389 -1.0845  0.8578
  169SOPE  H11S19076   6.673   2.252   7.822 -1.2883  0.2898  0.8610
  169SOPE  C21219077   6.616   2.037   7.865  0.3698 -0.5125  0.1876
  169SOPE  H12R19078   6.615   1.940   7.812  0.3015 -0.8929  0.8733
  169SOPE  H12S19079   6.510   2.057   7.889  0.8461  1.1661  1.0986
  169SOPE  C21319080   6.698   2.036   7.993  0.2641 -0.3898 -0.0741
  169SOPE  H13R19081   6.806   2.015   7.975  0.1793  0.1328 -1.2497
  169SOPE  H13S19082   6.645   1.954   8.045  0.7773 -1.5801 -1.3364
  169SOPE  C21419083   6.671   2.161   8.087 -0.2798 -0.1344  0.2176
  169SOPE  H14R19084   6.562   2.174   8.103 -0.3286 -2.2982  2.1303
  169SOPE  H14S19085   6.713   2.256   8.047  0.2300 -0.5467 -0.2297
  169SOPE  C21519086   6.733   2.139   8.222 -0.1124  0.5696 -0.5944
  169SOPE  H15R19087   6.844   2.146   8.209 -0.0477 -1.5272 -1.6793
  169SOPE  H15S19088   6.702   2.037   8.253  1.1955 -0.0218 -1.1352
  169SOPE  C21619089   6.680   2.233   8.331 -0.5463 -0.1913 -0.6585
  169SOPE  H16R19090   6.578   2.196   8.358 -0.7020  0.7594  0.1228
  169SOPE  H16S19091   6.660   2.337   8.296  1.2447  0.0615 -1.0272
  169SOPE  C21719092   6.767   2.236   8.462  0.0884 -0.1295  0.3657
  169SOPE  H17R19093   6.868   2.277   8.441  0.4460 -1.1541  0.0703
  169SOPE  H17S19094   6.781   2.130   8.492 -1.1091 -0.6486 -0.8229
  169SOPE  C21819095   6.704   2.317   8.578  0.2552  0.0834 -0.3664
  169SOPE  H18R19096   6.769   2.297   8.666 -0.6515 -1.1852  0.0218
  169SOPE  H18S19097   6.601   2.278   8.592  1.2792 -2.3358  1.0495
  169SOPE  H18T19098   6.710   2.425   8.552  0.2705  0.3115  0.5390
  169SOPE   C3319099   7.258   2.079   7.006 -0.3984 -0.6693  0.6339
  169SOPE   H3X19100   7.332   2.154   6.972 -2.3391  2.3307  2.5638
  169SOPE   H3Y19101   7.295   2.017   7.091 -0.9843  0.0000  1.4018
  169SOPE   C3419102   7.141   2.162   7.070 -0.3522  0.5486  0.4879
  169SOPE   H4X19103   7.069   2.085   7.107 -0.0062  0.8762  1.8969
  169SOPE   H4Y19104   7.090   2.225   6.994  0.7551  0.2088 -0.5623
  169SOPE   C3519105   7.181   2.237   7.192 -0.6340  0.0075 -0.5504
  169SOPE   H5X19106   7.231   2.167   7.262 -0.4515 -2.3697 -2.9139
  169SOPE   H5Y19107   7.099   2.284   7.252  1.1842  1.0190  1.2834
  169SOPE   C3619108   7.291   2.346   7.161  0.4321 -0.4845 -0.6224
  169SOPE   H6X19109   7.249   2.426   7.096  0.6352 -1.1273 -1.5732
  169SOPE   H6Y19110   7.369   2.305   7.093  0.7442  1.6999 -1.6498
  169SOPE   C3719111   7.366   2.393   7.282 -0.8676 -0.1559 -0.0392
  169SOPE   H7X19112   7.445   2.459   7.241 -0.3278 -0.7937 -0.0291
  169SOPE   H7Y19113   7.416   2.308   7.334 -0.4237 -0.2876 -0.6839
  169SOPE   C3819114   7.275   2.467   7.382  0.7890 -0.5370 -0.2216
  169SOPE   H8X19115   7.212   2.545   7.333 -0.0505  0.2200  1.9549
  169SOPE   H8Y19116   7.197   2.399   7.423 -2.5015  2.7351 -0.5135
  169SOPE   C3919117   7.354   2.521   7.493 -0.4216 -0.3596 -0.7197
  169SOPE   H9X19118   7.430   2.589   7.449 -1.8171  0.2674 -2.2792
  169SOPE   H9Y19119   7.404   2.433   7.538  2.3957  1.0507 -0.8465
  169SOPE  C31019120   7.280   2.595   7.604  0.8967 -0.1831  0.7216
  169SOPE  H10X19121   7.190   2.535   7.632  0.3107  0.5699  0.5014
  169SOPE  H10Y19122   7.245   2.686   7.550  1.8810 -0.6162 -0.6741
  169SOPE  C31119123   7.367   2.624   7.721 -0.0635  0.0395 -0.1947
  169SOPE  H11X19124   7.446   2.698   7.697  1.4155 -1.2478  0.4671
  169SOPE  H11Y19125   7.432   2.543   7.760 -0.0747  0.3587  0.5077
  169SOPE  C31219126   7.283   2.695   7.821 -0.1457  0.1403 -0.4059
  169SOPE  H12X19127   7.210   2.760   7.768  1.0779  0.9679 -1.1319
  169SOPE  H12Y19128   7.350   2.765   7.876 -1.8360  2.2490 -0.8929
  169SOPE  C31319129   7.209   2.608   7.922  0.0891 -0.4382  0.3359
  169SOPE  H13X19130   7.160   2.521   7.875 -0.5137  0.3084 -0.4537
  169SOPE  H13Y19131   7.150   2.679   7.985 -0.6083 -1.9038  1.3995
  169SOPE  C31419132   7.317   2.542   8.024  0.4611 -0.1629 -0.7919
  169SOPE  H14X19133   7.388   2.620   8.059  0.9020 -0.9725  0.1648
  169SOPE  H14Y19134   7.380   2.463   7.977  0.0610  0.1467 -1.8938
  169SOPE  C31519135   7.247   2.488   8.153  0.0457  0.4169  0.9021
  169SOPE  H15X19136   7.189   2.571   8.199 -0.2059  1.1586 -0.6986
  169SOPE  H15Y19137   7.334   2.458   8.215  0.2454 -0.8828  0.0267
  169SOPE  C31619138   7.149   2.370   8.128  0.3475  0.4842  0.3901
  169SOPE  H16X19139   7.177   2.306   8.041  1.2079  0.3238  0.7726
  169SOPE  H16Y19140   7.049   2.415   8.115 -1.1054 -2.1545  1.6583
  169SOPE  C31719141   7.135   2.274   8.244  0.0754 -0.2358 -0.1169
  169SOPE  H17X19142   7.065   2.196   8.207 -1.5909  1.0098  0.2816
  169SOPE  H17Y19143   7.081   2.325   8.327  0.5086 -0.2271  0.1648
  169SOPE  C31819144   7.262   2.213   8.299 -0.5534 -0.0928 -0.2016
  169SOPE  H18X19145   7.257   2.182   8.405 -0.3573  3.6909  1.0671
  169SOPE  H18Y19146   7.344   2.288   8.295  0.6470 -1.3159  0.6668
  169SOPE  H18Z19147   7.290   2.127   8.234 -1.5224 -0.0018 -0.7655
  170SOPE     N19148   6.269   5.550   6.533  0.6396  0.2754  0.0415
  170SOPE   HN119149   6.279   5.553   6.636  0.0429 -1.5649  0.1911
  170SOPE   HN219150   6.194   5.613   6.497 -0.7997 -1.8914 -1.0242
  170SOPE   HN319151   6.228   5.457   6.511  1.3598 -0.4229  1.5664
  170SOPE   C1219152   6.394   5.565   6.457 -0.1258  0.7365  0.1150
  170SOPE  H12A19153   6.382   5.520   6.356 -0.4917  0.4491  0.2800
  170SOPE  H12B19154   6.469   5.501   6.509 -0.7506  1.3566  1.8554
  170SOPE   C1119155   6.433   5.714   6.440 -0.0008  0.0868  0.5396
  170SOPE  H11A19156   6.450   5.753   6.543  0.0797  0.1136  0.5164
  170SOPE  H11B19157   6.348   5.764   6.389  2.5637  3.1662 -1.1167
  170SOPE     P19158   6.692   5.732   6.414 -0.1170  0.0985  0.0890
  170SOPE   O1319159   6.729   5.873   6.445  0.1285 -0.3328  0.2458
  170SOPE   O1419160   6.778   5.657   6.316  0.2176 -0.4248  0.5797
  170SOPE   O1219161   6.546   5.719   6.356  0.2272  0.0139 -0.2439
  170SOPE   O1119162   6.674   5.649   6.550 -0.5373 -0.3344  0.4894
  170SOPE    C119163   6.782   5.651   6.649 -0.2509 -0.3015  0.9273
  170SOPE    HA19164   6.876   5.695   6.609 -1.6676  0.9724 -1.1368
  170SOPE    HB19165   6.806   5.553   6.697  1.0879 -0.5048 -0.0853
  170SOPE    C219166   6.746   5.757   6.758  0.9080  0.0004 -0.5063
  170SOPE    HS19167   6.724   5.855   6.710 -0.5848  0.0342  0.1810
  170SOPE   O2119168   6.852   5.768   6.856  0.0922  0.2025 -0.4846
  170SOPE   C2119169   6.858   5.881   6.929  0.5986  0.0510  0.2079
  170SOPE   O2219170   6.789   5.979   6.916  0.2822 -0.6431  0.3713
  170SOPE   C2219171   6.975   5.867   7.029 -0.3806  0.1854 -0.6522
  170SOPE   H2R19172   6.994   5.974   7.054 -2.5471  0.8449 -1.6172
  170SOPE   H2S19173   7.069   5.832   6.981 -0.3315  0.0953 -0.4917
  170SOPE    C319174   6.617   5.725   6.821  0.0503 -0.0259  0.2020
  170SOPE    HX19175   6.590   5.618   6.806 -0.2128  0.0335  0.2551
  170SOPE    HY19176   6.542   5.777   6.758  2.9115  1.8529 -1.9363
  170SOPE   O3119177   6.607   5.763   6.960  0.5502  0.4384  0.2235
  170SOPE   C3119178   6.500   5.728   7.031  0.3334 -0.0764  0.0832
  170SOPE   O3219179   6.399   5.680   6.988 -0.6037  0.2561  0.3633
  170SOPE   C3219180   6.519   5.787   7.176 -0.0590  0.0795  0.6387
  170SOPE   H2X19181   6.560   5.890   7.171 -1.0903  0.4604 -0.1894
  170SOPE   H2Y19182   6.595   5.720   7.223  0.4691  1.4467  1.8403
  170SOPE   C2319183   6.941   5.780   7.140  0.1663  0.7271  0.0416
  170SOPE   H3R19184   6.912   5.681   7.097 -1.8627  0.9472  0.7837
  170SOPE   H3S19185   6.853   5.819   7.195 -1.1599 -3.1843  1.0498
  170SOPE   C2419186   7.063   5.759   7.234  0.2782 -0.3639  0.1741
  170SOPE   H4R19187   7.042   5.684   7.313  0.1235 -2.2758 -1.5819
  170SOPE   H4S19188   7.145   5.713   7.174 -0.1535 -1.6416  0.5179
  170SOPE   C2519189   7.111   5.895   7.289 -0.4797 -0.4547  0.4419
  170SOPE   H5R19190   7.171   5.937   7.206  0.2304  0.7278  1.4987
  170SOPE   H5S19191   7.028   5.960   7.324  0.4702  0.6783  0.6792
  170SOPE   C2619192   7.200   5.875   7.414  0.5203  0.0132  0.4111
  170SOPE   H6R19193   7.275   5.795   7.395  1.5605  1.3053 -1.2461
  170SOPE   H6S19194   7.250   5.970   7.443 -0.6497  0.4556  1.0240
  170SOPE   C2719195   7.112   5.827   7.538  0.1530  0.2963 -0.3827
  170SOPE   H7R19196   7.030   5.903   7.545  0.1402  0.1625  1.5128
  170SOPE   H7S19197   7.060   5.729   7.531  0.3491 -0.4493  4.7335
  170SOPE   C2819198   7.179   5.828   7.678  0.1941 -0.8063 -0.1947
  170SOPE   H8R19199   7.227   5.925   7.702  0.0488 -0.1747 -2.2319
  170SOPE   H8S19200   7.094   5.815   7.749 -0.8931  0.6428 -1.1684
  170SOPE   C2919201   7.286   5.716   7.681 -0.1632  0.1558 -0.2182
  170SOPE   H9119202   7.365   5.743   7.609  0.1137  2.0524  0.7323
  170SOPE  C21019203   7.295   5.608   7.762 -0.0830  0.2768 -0.1596
  170SOPE  H10119204   7.390   5.554   7.751  0.6510  0.6154  3.3326
  170SOPE  C21119205   7.212   5.575   7.882 -0.0349  0.4820  0.0232
  170SOPE  H11R19206   7.192   5.466   7.890  0.2315  0.3806 -0.6562
  170SOPE  H11S19207   7.123   5.639   7.897 -1.2055 -1.4497  1.8876
  170SOPE  C21219208   7.305   5.599   8.002 -0.3403  0.5413 -0.3160
  170SOPE  H12R19209   7.356   5.697   7.996  0.1079  0.3068 -0.3901
  170SOPE  H12S19210   7.386   5.523   8.006  1.9185  2.8170 -0.6912
  170SOPE  C21319211   7.226   5.588   8.130  0.3914  0.0305  0.5320
  170SOPE  H13R19212   7.188   5.484   8.124  0.9809 -0.4495  3.4667
  170SOPE  H13S19213   7.141   5.660   8.123  0.6555  0.5893  2.4954
  170SOPE  C21419214   7.308   5.605   8.256 -0.1467 -0.1488 -0.1285
  170SOPE  H14R19215   7.335   5.713   8.263 -0.1592 -0.0628 -1.2870
  170SOPE  H14S19216   7.403   5.549   8.236 -0.4900 -0.6973 -0.2447
  170SOPE  C21519217   7.235   5.558   8.382 -0.1189  0.2168 -0.4160
  170SOPE  H15R19218   7.213   5.451   8.364 -1.9132  0.2695  1.2008
  170SOPE  H15S19219   7.134   5.602   8.393 -1.3000 -2.8352  3.7217
  170SOPE  C21619220   7.307   5.600   8.516 -0.5749  0.2032 -0.1317
  170SOPE  H16R19221   7.327   5.708   8.501 -3.1292  0.4303 -2.6342
  170SOPE  H16S19222   7.399   5.539   8.531 -0.1981  1.1303  1.7289
  170SOPE  C21719223   7.205   5.578   8.628 -0.8446 -0.1024  0.3717
  170SOPE  H17R19224   7.184   5.470   8.644  0.1050 -0.4381 -0.5168
  170SOPE  H17S19225   7.109   5.628   8.604  0.3419  2.2016  0.1120
  170SOPE  C21819226   7.258   5.635   8.758  0.8208  0.4019  0.7342
  170SOPE  H18R19227   7.189   5.614   8.843 -1.6748  0.7990 -1.1014
  170SOPE  H18S19228   7.265   5.743   8.735 -1.5661 -0.0065 -2.6187
  170SOPE  H18T19229   7.357   5.593   8.788  1.4159  1.5374  0.4256
  170SOPE   C3319230   6.398   5.793   7.269 -0.6079  0.1023 -0.0514
  170SOPE   H3X19231   6.326   5.709   7.266  0.2625 -0.6613  0.1016
  170SOPE   H3Y19232   6.334   5.876   7.232 -1.7601 -1.5980 -2.0130
  170SOPE   C3419233   6.421   5.833   7.416  0.1142  0.8215  0.2324
  170SOPE   H4X19234   6.491   5.919   7.409  0.5485  0.3922 -1.2714
  170SOPE   H4Y19235   6.466   5.749   7.473  0.8881  0.6233 -0.6394
  170SOPE   C3519236   6.292   5.882   7.489 -0.0255 -0.2213  0.1921
  170SOPE   H5X19237   6.225   5.794   7.483  0.7728 -0.9591  1.6347
  170SOPE   H5Y19238   6.247   5.978   7.454 -0.1518 -0.4271 -0.2118
  170SOPE   C3619239   6.332   5.908   7.636  0.6543 -0.1229  0.7602
  170SOPE   H6X19240   6.408   5.989   7.628 -0.8006  1.1065 -2.8968
  170SOPE   H6Y19241   6.370   5.830   7.705 -0.1431  0.6722  2.1611
  170SOPE   C3719242   6.203   5.960   7.715 -0.2242  0.1906  0.8025
  170SOPE   H7X19243   6.120   5.888   7.699  0.3772  0.0713 -2.3503
  170SOPE   H7Y19244   6.173   6.051   7.660 -1.2522 -1.3366 -1.3234
  170SOPE   C3819245   6.232   5.979   7.865  0.2940  0.9735  0.0686
  170SOPE   H8X19246   6.306   6.061   7.874  0.0747  1.1373  0.4080
  170SOPE   H8Y19247   6.260   5.881   7.910  0.8518  0.5061 -1.2371
  170SOPE   C3919248   6.114   6.038   7.943 -0.7366  0.2744  0.1682
  170SOPE   H9X19249   6.026   5.970   7.944 -0.9288  0.5294  1.0295
  170SOPE   H9Y19250   6.086   6.133   7.893 -0.0021  0.1384 -0.5320
  170SOPE  C31019251   6.154   6.071   8.083  0.5652  0.9213 -0.6525
  170SOPE  H10X19252   6.225   6.157   8.084  0.7001  0.8363  1.3640
  170SOPE  H10Y19253   6.201   5.980   8.125 -0.1003  0.6653 -0.4351
  170SOPE  C31119254   6.032   6.104   8.166 -0.4736 -0.1758  0.0566
  170SOPE  H11X19255   6.058   6.137   8.269 -0.5569 -1.8137  0.6197
  170SOPE  H11Y19256   5.963   6.019   8.182 -0.2241 -0.9403 -2.5066
  170SOPE  C31219257   5.946   6.226   8.112  0.2833 -0.6953  1.0131
  170SOPE  H12X19258   5.897   6.197   8.016  1.1123  1.9891 -0.3148
  170SOPE  H12Y19259   6.010   6.313   8.089  0.1665 -0.9691 -0.4751
  170SOPE  C31319260   5.836   6.290   8.204  0.0748  0.8460  0.1717
  170SOPE  H13X19261   5.893   6.320   8.295  1.9927 -1.6897 -0.0684
  170SOPE  H13Y19262   5.769   6.205   8.226 -0.6205  1.1650 -0.6772
  170SOPE  C31419263   5.756   6.404   8.138  0.1456 -0.7504 -0.1702
  170SOPE  H14X19264   5.705   6.354   8.054  0.7934 -0.1333 -0.9420
  170SOPE  H14Y19265   5.828   6.477   8.096 -0.8238 -0.1129 -0.7565
  170SOPE  C31519266   5.663   6.473   8.242 -0.4042 -0.1786 -0.0700
  170SOPE  H15X19267   5.603   6.550   8.189  0.6304  0.1720 -0.7626
  170SOPE  H15Y19268   5.732   6.521   8.314  1.9674 -0.2213 -2.1827
  170SOPE  C31619269   5.560   6.388   8.326 -0.6373  0.4342  0.6983
  170SOPE  H16X19270   5.496   6.452   8.389 -0.9306  1.0115 -0.1702
  170SOPE  H16Y19271   5.607   6.309   8.389 -0.7197 -1.1929 -1.1703
  170SOPE  C31719272   5.473   6.301   8.235  0.5291  0.2088  0.5173
  170SOPE  H17X19273   5.440   6.210   8.290 -0.9207  0.9717  0.9765
  170SOPE  H17Y19274   5.524   6.264   8.144 -1.6228 -2.3866  0.2419
  170SOPE  C31819275   5.349   6.386   8.204  0.1209  0.7125 -0.0729
  170SOPE  H18X19276   5.327   6.368   8.097  2.5639 -0.0221 -0.5195
  170SOPE  H18Y19277   5.371   6.495   8.204  1.6616  0.4333  0.5524
  170SOPE  H18Z19278   5.262   6.360   8.268  0.7335  0.5218  0.6949
  171SOPE     N19279   2.028   3.267   6.431 -0.2004 -0.6181  0.0794
  171SOPE   HN119280   2.046   3.177   6.481  1.7609  0.4860  1.4981
  171SOPE   HN219281   2.124   3.298   6.410 -1.2125  0.7049 -3.2561
  171SOPE   HN319282   1.981   3.327   6.501  0.8311 -0.5483  0.7196
  171SOPE   C1219283   1.950   3.241   6.303  0.0684 -0.7117  0.6344
  171SOPE  H12A19284   2.027   3.236   6.223  0.9151  1.4886  1.2353
  171SOPE  H12B19285   1.889   3.328   6.271 -0.6853 -1.3032  0.4204
  171SOPE   C1119286   1.844   3.130   6.307 -1.0447  0.1521  0.1451
  171SOPE  H11A19287   1.898   3.036   6.333 -0.5227  0.0533 -1.2350
  171SOPE  H11B19288   1.811   3.113   6.202 -1.3100 -1.7011  0.4848
  171SOPE     P19289   1.608   3.071   6.393  0.5029  0.2960 -0.3296
  171SOPE   O1319290   1.631   2.931   6.433 -0.5360  0.1612 -0.1731
  171SOPE   O1419291   1.550   3.095   6.261 -0.1856  0.2699  0.1177
  171SOPE   O1219292   1.744   3.153   6.409 -0.2095  0.3282 -0.4954
  171SOPE   O1119293   1.508   3.148   6.495 -0.3299  0.5165  0.2324
  171SOPE    C119294   1.517   3.285   6.514 -0.7862 -0.1207  0.4473
  171SOPE    HA19295   1.414   3.321   6.535  0.2758  2.6327  1.3605
  171SOPE    HB19296   1.559   3.348   6.432  1.4388  0.9720  2.3106
  171SOPE    C219297   1.591   3.306   6.644 -0.1093  0.9392 -0.1300
  171SOPE    HS19298   1.688   3.253   6.632 -0.4244  0.3978 -0.3252
  171SOPE   O2119299   1.508   3.248   6.747  0.1441 -0.0871  0.3308
  171SOPE   C2119300   1.578   3.170   6.829 -0.2318  0.0245  0.1827
  171SOPE   O2219301   1.697   3.174   6.845 -0.9024  0.4205  0.0102
  171SOPE   C2219302   1.484   3.065   6.892  0.6291 -0.2684  0.5649
  171SOPE   H2R19303   1.466   2.992   6.810  1.4825  0.4691 -0.3047
  171SOPE   H2S19304   1.392   3.124   6.911  0.6204 -0.0254 -0.2005
  171SOPE    C319305   1.621   3.455   6.679 -0.3301 -0.1079  0.5030
  171SOPE    HX19306   1.515   3.486   6.685 -0.4419  0.0237 -1.6602
  171SOPE    HY19307   1.658   3.511   6.591 -2.8066 -0.2733 -0.7193
  171SOPE   O3119308   1.700   3.471   6.797  0.4864 -0.8532  0.1665
  171SOPE   C3119309   1.828   3.455   6.781 -0.4576 -0.0684  0.2933
  171SOPE   O3219310   1.880   3.420   6.673  0.9384  0.1171 -1.1026
  171SOPE   C3219311   1.904   3.481   6.908 -0.5815 -0.2144 -0.2081
  171SOPE   H2X19312   1.922   3.590   6.925 -0.3315 -0.5536  2.1353
  171SOPE   H2Y19313   2.007   3.442   6.891  0.1949  1.2173  0.8816
  171SOPE   C2319314   1.534   3.008   7.022  0.5238 -0.1310  0.1658
  171SOPE   H3R19315   1.639   2.973   7.023  0.6104  0.0673 -1.0329
  171SOPE   H3S19316   1.464   2.931   7.064  0.9751  0.5369  2.2874
  171SOPE   C2419317   1.526   3.118   7.129  0.3736  0.6637 -0.4394
  171SOPE   H4R19318   1.577   3.211   7.096  0.8789  0.4203 -0.3380
  171SOPE   H4S19319   1.420   3.149   7.146  1.0028  1.5275  2.5752
  171SOPE   C2519320   1.584   3.070   7.267 -0.2071  0.0326  0.2891
  171SOPE   H5R19321   1.548   2.978   7.319  0.5758 -0.5706 -0.2094
  171SOPE   H5S19322   1.682   3.038   7.226 -1.0011 -1.4821 -0.5329
  171SOPE   C2619323   1.589   3.183   7.370 -0.3059 -0.1583  0.6359
  171SOPE   H6R19324   1.616   3.277   7.318 -2.2825 -1.0327 -2.2148
  171SOPE   H6S19325   1.489   3.200   7.416 -1.0330 -1.8891 -0.1925
  171SOPE   C2719326   1.679   3.146   7.492  0.4873 -0.5982  0.8038
  171SOPE   H7R19327   1.766   3.094   7.446  1.2948  0.2131  1.3845
  171SOPE   H7S19328   1.716   3.236   7.547  3.0755 -2.2208  1.9466
  171SOPE   C2819329   1.618   3.052   7.593  0.1466  0.5731 -0.1770
  171SOPE   H8R19330   1.511   3.082   7.602  0.7474  2.7435  0.3468
  171SOPE   H8S19331   1.619   2.953   7.542  1.1824  2.1377 -3.4182
  171SOPE   C2919332   1.697   3.053   7.714  0.1857  0.3756 -0.0551
  171SOPE   H9119333   1.718   3.148   7.766 -0.6932  1.2304 -1.2088
  171SOPE  C21019334   1.757   2.946   7.765  0.0610 -0.1023 -0.6553
  171SOPE  H10119335   1.807   2.959   7.862 -2.2347  0.7146  0.5000
  171SOPE  C21119336   1.744   2.807   7.714 -0.3770 -0.3864  0.4071
  171SOPE  H11R19337   1.770   2.787   7.607 -0.5173 -1.9253  0.6312
  171SOPE  H11S19338   1.640   2.772   7.728 -0.2823  0.1587  2.8546
  171SOPE  C21219339   1.832   2.702   7.794 -0.7028 -0.1830 -0.3261
  171SOPE  H12R19340   1.793   2.601   7.769 -0.9355 -0.4679  1.1081
  171SOPE  H12S19341   1.825   2.717   7.904 -0.5275 -0.3155 -0.2974
  171SOPE  C21319342   1.982   2.723   7.756  0.2370  0.3205  0.2567
  171SOPE  H13R19343   2.020   2.818   7.800  1.4018  0.3564 -0.7624
  171SOPE  H13S19344   1.977   2.717   7.645 -1.2825 -1.0622  0.3610
  171SOPE  C21419345   2.074   2.613   7.813  0.1012  0.3939 -0.6973
  171SOPE  H14R19346   2.169   2.622   7.755 -0.4747  1.6323 -1.4949
  171SOPE  H14S19347   2.051   2.506   7.793  0.5578  0.2176 -0.2813
  171SOPE  C21519348   2.103   2.616   7.962  0.5111  0.2662 -0.4338
  171SOPE  H15R19349   2.108   2.714   8.013  0.8115  0.4933 -0.9065
  171SOPE  H15S19350   2.204   2.578   7.986  0.2293  0.9930  2.2766
  171SOPE  C21619351   2.008   2.518   8.039  0.0822 -0.2850  0.3760
  171SOPE  H16R19352   1.993   2.424   7.983 -2.2464  1.3655 -2.0171
  171SOPE  H16S19353   1.905   2.557   8.025  1.1265  1.8254 -2.2280
  171SOPE  C21719354   2.039   2.483   8.187 -0.5406 -0.1901 -0.6946
  171SOPE  H17R19355   1.967   2.406   8.220 -2.4454  0.0459 -3.8101
  171SOPE  H17S19356   2.011   2.576   8.240  0.1391  0.3671 -1.2942
  171SOPE  C21819357   2.182   2.454   8.222 -0.3693  0.4966  0.1456
  171SOPE  H18R19358   2.250   2.537   8.193 -1.8219  1.0878 -1.8054
  171SOPE  H18S19359   2.214   2.357   8.179  0.5549  0.4912  0.8185
  171SOPE  H18T19360   2.191   2.458   8.333  2.6337  0.4960 -0.0109
  171SOPE   C3319361   1.853   3.410   7.035 -0.6685 -0.0366 -0.1838
  171SOPE   H3X19362   1.881   3.303   7.022  1.9843  0.8184 -2.3507
  171SOPE   H3Y19363   1.743   3.421   7.030 -0.5334  2.5131  0.8240
  171SOPE   C3419364   1.919   3.475   7.161  0.0973 -0.1263  0.5522
  171SOPE   H4X19365   1.886   3.580   7.173  0.4296 -0.0214  0.5579
  171SOPE   H4Y19366   2.030   3.484   7.164 -0.0818  2.8216  1.6582
  171SOPE   C3519367   1.883   3.398   7.283 -0.3424 -0.2122 -1.4077
  171SOPE   H5X19368   1.902   3.291   7.260 -1.8788 -0.9674  0.5590
  171SOPE   H5Y19369   1.773   3.410   7.296 -0.0463  0.8235  0.5875
  171SOPE   C3619370   1.964   3.444   7.408 -0.5999 -0.0766  0.5673
  171SOPE   H6X19371   1.952   3.548   7.445  1.1503  0.3479  0.0395
  171SOPE   H6Y19372   2.069   3.430   7.376 -1.0855 -0.6911 -0.8878
  171SOPE   C3719373   1.931   3.370   7.535  0.3644  0.3580 -0.3061
  171SOPE   H7X19374   1.955   3.261   7.535  0.1611  0.2791  1.7819
  171SOPE   H7Y19375   1.823   3.387   7.553  0.0622 -2.3471  0.9113
  171SOPE   C3819376   2.006   3.413   7.659  0.2169 -0.7913 -0.3121
  171SOPE   H8X19377   1.971   3.515   7.687  0.1048 -0.8180 -0.3554
  171SOPE   H8Y19378   2.112   3.411   7.624 -0.0209 -1.2205 -1.0443
  171SOPE   C3919379   1.995   3.307   7.773 -0.7938 -0.8837 -0.2111
  171SOPE   H9X19380   2.038   3.213   7.734  0.8646 -0.1731 -0.1921
  171SOPE   H9Y19381   1.885   3.295   7.785 -0.3309 -4.8873  1.4459
  171SOPE  C31019382   2.060   3.358   7.909  0.0046 -0.5125  0.5440
  171SOPE  H10X19383   2.038   3.464   7.934  1.9153  0.1876 -0.5693
  171SOPE  H10Y19384   2.169   3.353   7.889  0.1337  1.0260  0.6898
  171SOPE  C31119385   2.020   3.257   8.025 -0.5022  0.0675 -0.5683
  171SOPE  H11X19386   2.051   3.153   8.002 -0.1849  0.1151 -0.3597
  171SOPE  H11Y19387   1.910   3.252   8.041 -0.3489  0.7649  0.7759
  171SOPE  C31219388   2.087   3.307   8.157  0.1011  0.6225 -0.3896
  171SOPE  H12X19389   2.030   3.398   8.187 -1.0973 -0.4231  0.6546
  171SOPE  H12Y19390   2.191   3.336   8.133  0.4811 -0.5808 -0.2433
  171SOPE  C31319391   2.084   3.201   8.270 -0.3042  0.0766  0.2951
  171SOPE  H13X19392   1.980   3.169   8.294 -0.0655 -0.0939  1.1290
  171SOPE  H13Y19393   2.124   3.244   8.364  1.1085  1.3385 -0.8354
  171SOPE  C31419394   2.164   3.076   8.232  0.7084  0.7611 -0.1924
  171SOPE  H14X19395   2.252   3.102   8.168  0.8709 -1.6349 -1.0517
  171SOPE  H14Y19396   2.097   3.007   8.176  0.7183 -0.2906  1.0696
  171SOPE  C31519397   2.220   3.001   8.355 -0.7483 -0.5724 -0.5769
  171SOPE  H15X19398   2.152   2.956   8.430 -0.8940 -2.8601 -1.9743
  171SOPE  H15Y19399   2.273   3.076   8.417 -2.6312  0.3298  0.0328
  171SOPE  C31619400   2.328   2.895   8.309  0.0754 -0.0206  0.2766
  171SOPE  H16X19401   2.411   2.955   8.265 -0.7399  0.6931 -0.3302
  171SOPE  H16Y19402   2.280   2.835   8.228 -0.9950  0.8971  0.2039
  171SOPE  C31719403   2.390   2.815   8.431  0.0790  0.9710  0.1371
  171SOPE  H17X19404   2.442   2.889   8.494 -3.1070  0.7313  3.3456
  171SOPE  H17Y19405   2.470   2.755   8.380 -0.9094 -0.7230  0.5026
  171SOPE  C31819406   2.294   2.734   8.513  0.0467 -0.0381  0.6538
  171SOPE  H18X19407   2.357   2.668   8.576  0.2549 -1.3681 -0.8543
  171SOPE  H18Y19408   2.239   2.664   8.445  0.2594 -1.0825  1.5262
  171SOPE  H18Z19409   2.226   2.789   8.581  0.4714 -0.3290  1.3196
  172SOPE     N19410   5.737   4.259   6.107 -0.4452 -0.4665  0.1340
  172SOPE   HN119411   5.816   4.193   6.091  0.3102  0.3930  0.2435
  172SOPE   HN219412   5.663   4.202   6.152  1.3249 -1.5656  1.8107
  172SOPE   HN319413   5.704   4.283   6.011  1.9228 -2.6747 -1.3667
  172SOPE   C1219414   5.767   4.388   6.183  0.6842 -0.7819 -0.4534
  172SOPE  H12A19415   5.853   4.442   6.138 -0.2846  1.8301  0.6147
  172SOPE  H12B19416   5.805   4.368   6.286 -2.6116  0.9894  1.2883
  172SOPE   C1119417   5.649   4.480   6.181 -0.0342 -0.0949 -0.7861
  172SOPE  H11A19418   5.576   4.429   6.248 -1.4773  0.8547 -1.5858
  172SOPE  H11B19419   5.607   4.493   6.079  0.3239  0.2040 -0.8967
  172SOPE     P19420   5.720   4.625   6.385 -0.5600  0.1445  0.1590
  172SOPE   O1319421   5.663   4.757   6.413  0.0088  0.6983  0.3592
  172SOPE   O1419422   5.868   4.598   6.402  0.2578 -0.2340 -0.5061
  172SOPE   O1219423   5.693   4.606   6.231 -0.6062 -0.2065 -0.0533
  172SOPE   O1119424   5.639   4.514   6.454  0.6993  0.6519  0.1434
  172SOPE    C119425   5.509   4.524   6.493  0.1546  0.1809  0.2515
  172SOPE    HA19426   5.463   4.424   6.505  1.3848 -0.3944  0.3476
  172SOPE    HB19427   5.453   4.577   6.413  1.7636  2.7657  0.7099
  172SOPE    C219428   5.491   4.605   6.624  0.0938  0.1137 -0.0643
  172SOPE    HS19429   5.549   4.698   6.605  3.5601 -2.2555 -2.3739
  172SOPE   O2119430   5.556   4.528   6.727  0.6724 -0.0775 -0.5917
  172SOPE   C2119431   5.646   4.604   6.805 -0.3944 -0.2346  0.2693
  172SOPE   O2219432   5.673   4.718   6.782 -0.2561  0.6199  0.4494
  172SOPE   C2219433   5.704   4.525   6.914 -0.0864 -0.4475 -0.4440
  172SOPE   H2R19434   5.804   4.481   6.892 -0.0332 -0.1476 -0.8043
  172SOPE   H2S19435   5.634   4.448   6.953  2.2132 -0.8689  3.4717
  172SOPE    C319436   5.336   4.624   6.658 -0.8646  0.3816 -0.9375
  172SOPE    HX19437   5.313   4.520   6.690  0.6310 -0.1934 -1.6402
  172SOPE    HY19438   5.285   4.655   6.565 -0.5910  2.7433 -0.3648
  172SOPE   O3119439   5.318   4.716   6.772 -0.5107  0.0017  0.4104
  172SOPE   C3119440   5.321   4.842   6.748  0.3090  0.8014 -0.3437
  172SOPE   O3219441   5.333   4.894   6.638 -0.4210  0.0740 -0.0830
  172SOPE   C3219442   5.310   4.915   6.886 -0.2385 -0.0001 -0.1112
  172SOPE   H2X19443   5.297   4.840   6.967  1.5666 -0.1265  0.1091
  172SOPE   H2Y19444   5.219   4.979   6.882 -0.7172 -0.7490 -3.4243
  172SOPE   C2319445   5.724   4.623   7.035 -0.2174 -0.1606  0.4284
  172SOPE   H3R19446   5.795   4.703   7.006 -0.6983  0.3572  0.6456
  172SOPE   H3S19447   5.769   4.566   7.119  1.0328  2.1049  1.3937
  172SOPE   C2419448   5.588   4.692   7.076  0.6135  0.3826 -0.3476
  172SOPE   H4R19449   5.603   4.763   7.160 -2.0101  0.0948  0.4445
  172SOPE   H4S19450   5.534   4.730   6.986 -1.7586  1.1409  1.2918
  172SOPE   C2519451   5.488   4.598   7.143  0.0210  0.1831  0.7242
  172SOPE   H5R19452   5.384   4.636   7.150  0.1917  1.2073 -1.6071
  172SOPE   H5S19453   5.480   4.497   7.096 -1.6307  0.5682  0.1095
  172SOPE   C2619454   5.535   4.574   7.285 -0.3060 -0.7157 -0.8877
  172SOPE   H6R19455   5.481   4.482   7.316 -0.0464  0.3195  3.3394
  172SOPE   H6S19456   5.642   4.544   7.289  0.2831  1.2717 -0.8181
  172SOPE   C2719457   5.500   4.686   7.392 -0.1163  0.0799 -0.3502
  172SOPE   H7R19458   5.486   4.784   7.342 -1.2271 -0.9241 -2.0744
  172SOPE   H7S19459   5.397   4.668   7.430 -0.3402  1.7866 -0.0741
  172SOPE   C2819460   5.606   4.709   7.500 -0.3783 -0.1024  0.0724
  172SOPE   H8R19461   5.700   4.743   7.453 -0.8981 -1.1916 -1.8310
  172SOPE   H8S19462   5.574   4.794   7.565  0.9565  0.5727 -0.1290
  172SOPE   C2919463   5.627   4.575   7.564  0.1893 -0.0375  0.1556
  172SOPE   H9119464   5.674   4.503   7.496 -0.6388 -0.1052 -0.3610
  172SOPE  C21019465   5.597   4.533   7.690 -0.0715  0.6099  0.8174
  172SOPE  H10119466   5.639   4.437   7.723  0.1311  0.6523  0.6822
  172SOPE  C21119467   5.540   4.618   7.801  0.6353  0.2547  0.4796
  172SOPE  H11R19468   5.438   4.583   7.829 -0.0539  1.6558 -0.1545
  172SOPE  H11S19469   5.550   4.728   7.783 -1.1042  0.5076  0.8181
  172SOPE  C21219470   5.617   4.596   7.931 -0.1467 -0.1400  0.1551
  172SOPE  H12R19471   5.600   4.687   7.992  1.0004  0.8023 -0.8806
  172SOPE  H12S19472   5.727   4.592   7.917 -0.1490 -0.9138  0.2900
  172SOPE  C21319473   5.551   4.474   8.007 -0.7596 -0.2600  0.4529
  172SOPE  H13R19474   5.563   4.398   7.926  0.9589  2.0081 -1.5924
  172SOPE  H13S19475   5.445   4.491   8.032 -1.6022  1.4117 -3.5097
  172SOPE  C21419476   5.638   4.438   8.127  0.2581  0.1589 -0.2542
  172SOPE  H14R19477   5.739   4.414   8.086  0.4551  1.5981 -0.6452
  172SOPE  H14S19478   5.598   4.344   8.171  0.7831 -0.2451 -0.6300
  172SOPE  C21519479   5.634   4.540   8.248  0.0659 -0.0175 -0.0911
  172SOPE  H15R19480   5.529   4.548   8.282  0.9462  1.7254  2.5886
  172SOPE  H15S19481   5.676   4.640   8.224  0.4421  0.5518  2.5489
  172SOPE  C21619482   5.701   4.483   8.368 -0.3877 -0.0426 -0.1995
  172SOPE  H16R19483   5.806   4.510   8.347 -0.7332  1.4666 -0.0454
  172SOPE  H16S19484   5.696   4.372   8.377  0.7758 -0.1904 -1.2437
  172SOPE  C21719485   5.656   4.573   8.492  0.0532  0.3926 -0.5755
  172SOPE  H17R19486   5.546   4.580   8.509  0.3682 -0.2781  2.2101
  172SOPE  H17S19487   5.690   4.677   8.469  3.8271 -0.1947  1.5476
  172SOPE  C21819488   5.713   4.532   8.632 -0.6790 -0.6194 -0.3854
  172SOPE  H18R19489   5.691   4.615   8.703  0.5902  1.2752 -2.0872
  172SOPE  H18S19490   5.821   4.508   8.624 -0.3986  1.1683 -3.2753
  172SOPE  H18T19491   5.653   4.446   8.668  0.1829 -1.1660 -0.2221
  172SOPE   C3319492   5.445   4.996   6.924 -0.0323  0.3439 -0.0706
  172SOPE   H3X19493   5.444   5.090   6.865  1.1089 -0.5653 -1.6228
  172SOPE   H3Y19494   5.540   4.948   6.892  1.4189  2.9596  0.0601
  172SOPE   C3419495   5.451   5.021   7.076 -0.2039  1.0082 -0.3551
  172SOPE   H4X19496   5.421   4.935   7.139  0.6878 -0.6887 -2.1392
  172SOPE   H4Y19497   5.394   5.111   7.107 -0.0552  1.5512 -1.6010
  172SOPE   C3519498   5.601   5.050   7.109  0.2851 -1.0601 -0.2487
  172SOPE   H5X19499   5.639   5.133   7.046  1.1454 -0.0801  1.4818
  172SOPE   H5Y19500   5.668   4.965   7.085  1.8178  0.3921 -1.2548
  172SOPE   C3619501   5.601   5.091   7.250 -0.3171  0.6802  0.0091
  172SOPE   H6X19502   5.540   5.018   7.307  1.4369 -0.6719  0.2043
  172SOPE   H6Y19503   5.554   5.192   7.254  1.6840  1.6923 -0.6144
  172SOPE   C3719504   5.736   5.083   7.319  0.3076  0.1099 -0.0072
  172SOPE   H7X19505   5.806   5.158   7.276 -0.5274  0.0425 -1.5207
  172SOPE   H7Y19506   5.779   4.982   7.303 -2.5807 -1.1995 -0.0851
  172SOPE   C3819507   5.732   5.107   7.475 -0.0732  0.2032  0.2835
  172SOPE   H8X19508   5.662   5.034   7.522 -1.9559  3.1232  2.3151
  172SOPE   H8Y19509   5.680   5.200   7.504 -0.3405 -0.4534  2.0308
  172SOPE   C3919510   5.873   5.090   7.537  0.2264  0.1307  0.1556
  172SOPE   H9X19511   5.922   5.169   7.476  1.4417 -0.6851  0.0513
  172SOPE   H9Y19512   5.932   5.005   7.496  1.1791  1.7372 -2.0057
  172SOPE  C31019513   5.883   5.091   7.694 -0.0911  0.4091 -0.5470
  172SOPE  H10X19514   5.834   5.180   7.736 -0.9136 -1.1044  1.8847
  172SOPE  H10Y19515   5.986   5.083   7.737  0.2335  1.6333 -1.0590
  172SOPE  C31119516   5.809   4.963   7.740 -0.7170 -0.1008  0.6453
  172SOPE  H11X19517   5.858   4.872   7.701 -0.9762 -1.2140  2.7972
  172SOPE  H11Y19518   5.705   4.959   7.701 -0.1861 -0.3832 -0.8065
  172SOPE  C31219519   5.809   4.954   7.893 -0.2905  0.0499  0.0632
  172SOPE  H12X19520   5.743   4.872   7.928  1.1552 -0.4323  1.8222
  172SOPE  H12Y19521   5.781   5.051   7.938  0.4685  0.1140  0.4131
  172SOPE  C31319522   5.953   4.911   7.939 -0.0285  0.0612  0.3134
  172SOPE  H13X19523   6.024   4.994   7.920  0.6026 -1.2351 -4.0765
  172SOPE  H13Y19524   5.988   4.822   7.883 -0.5797 -0.7174  1.1771
  172SOPE  C31419525   5.954   4.879   8.097  0.4216  0.3319  0.7291
  172SOPE  H14X19526   5.861   4.824   8.124 -1.5541  2.8605 -0.4606
  172SOPE  H14Y19527   5.947   4.975   8.153 -1.2167  0.7446 -0.1300
  172SOPE  C31519528   6.081   4.817   8.143  0.2135 -0.1430  0.1029
  172SOPE  H15X19529   6.178   4.869   8.126  0.9825 -1.2509  0.9490
  172SOPE  H15Y19530   6.092   4.721   8.087  1.0023  0.8478 -1.5254
  172SOPE  C31619531   6.078   4.794   8.288  0.7154  0.7264 -0.5741
  172SOPE  H16X19532   5.990   4.728   8.299  0.7607  0.6110 -0.9112
  172SOPE  H16Y19533   6.069   4.884   8.353 -0.5295 -0.5536  1.1260
  172SOPE  C31719534   6.202   4.707   8.318 -0.5489 -0.3911 -0.7359
  172SOPE  H17X19535   6.293   4.765   8.292 -1.4265  2.6899  2.3666
  172SOPE  H17Y19536   6.206   4.617   8.252  1.7682 -0.2759 -0.8336
  172SOPE  C31819537   6.207   4.645   8.457  0.0178 -0.1416 -0.7639
  172SOPE  H18X19538   6.180   4.722   8.532  0.0385 -0.9500  0.1000
  172SOPE  H18Y19539   6.298   4.585   8.476 -1.4075 -2.3561 -0.4580
  172SOPE  H18Z19540   6.126   4.569   8.469 -0.5695  0.7827  1.6456
  173SAPI   C1219541   4.508   5.445  10.874 -0.4225 -0.2329  0.0400
  173SAPI    H219542   4.410   5.483  10.837 -1.0468 -0.0152  1.8427
  173SAPI    O219543   4.574   5.554  10.940  0.7770 -0.2962 -0.5629
  173SAPI   HO219544   4.611   5.613  10.873 -1.3579  1.7252 -0.0925
  173SAPI   C1319545   4.487   5.328  10.967 -0.8311  0.0996 -1.1139
  173SAPI    H319546   4.445   5.245  10.906 -2.1806  0.5244 -0.8075
  173SAPI    O319547   4.382   5.355  11.058 -0.1225  0.7003  0.3508
  173SAPI   HO319548   4.398   5.441  11.096 -1.4642  1.2845 -0.3679
  173SAPI   C1419549   4.614   5.288  11.030  0.3082  0.0075 -0.1741
  173SAPI    H419550   4.657   5.372  11.089  0.6119 -0.9865  1.0784
  173SAPI    O419551   4.588   5.184  11.126  0.1224 -0.3485 -0.9283
  173SAPI   HO419552   4.497   5.200  11.153  0.6811  0.1703  0.7523
  173SAPI   C1519553   4.700   5.248  10.912 -0.3015 -0.2682  0.3574
  173SAPI    H519554   4.638   5.167  10.867 -0.2453 -0.2203  0.1954
  173SAPI    O519555   4.823   5.200  10.966  0.5823  0.3308 -0.7472
  173SAPI   HO519556   4.898   5.234  10.916  1.7837  0.4510  1.0565
  173SAPI   C1619557   4.719   5.336  10.802 -0.7210 -0.2034  0.5339
  173SAPI    H619558   4.794   5.415  10.825  1.0506 -1.6178 -0.1640
  173SAPI    O619559   4.786   5.272  10.687 -0.1564 -0.5624  0.5306
  173SAPI   HO619560   4.824   5.346  10.640  2.3414 -0.8867  1.8390
  173SAPI   C1119561   4.592   5.398  10.756 -0.1182  0.3944 -0.4497
  173SAPI    H119562   4.528   5.319  10.712 -0.8815  0.4807  0.4651
  173SAPI     P19563   4.497   5.547  10.551  0.3101 -0.1334  0.0895
  173SAPI   O1319564   4.503   5.699  10.547  0.1276 -0.4575  0.4133
  173SAPI   O1419565   4.363   5.484  10.585 -0.5016 -0.0786 -0.1535
  173SAPI   O1219566   4.615   5.501  10.658  0.4142  0.1891  0.1708
  173SAPI   O1119567   4.546   5.499  10.409 -0.4381  0.0818  0.6541
  173SAPI    C119568   4.509   5.368  10.358  0.2652 -0.4576 -0.0744
  173SAPI    HA19569   4.420   5.322  10.406  0.8415 -1.1034  0.3790
  173SAPI    HB19570   4.482   5.367  10.250 -0.1205 -0.0406  0.0132
  173SAPI    C219571   4.629   5.265  10.381  0.1299  0.1964 -0.8783
  173SAPI    HS19572   4.666   5.281  10.484 -0.8576  0.8207 -0.6073
  173SAPI   O2119573   4.734   5.298  10.284  0.2280  0.8887  0.5494
  173SAPI   C2119574   4.824   5.385  10.314 -0.1087 -0.0136  0.3421
  173SAPI   O2219575   4.840   5.427  10.430  0.0421 -0.1125  0.3597
  173SAPI   C2219576   4.919   5.415  10.200  0.3737  0.0201  0.3781
  173SAPI   H2R19577   4.857   5.452  10.115 -0.6354  1.8773  1.8464
  173SAPI   H2S19578   5.000   5.474  10.246  0.0303  0.2750  0.6613
  173SAPI    C319579   4.587   5.113  10.366  0.1639 -0.5125 -0.0166
  173SAPI    HX19580   4.507   5.099  10.442  0.9391  0.2430  0.9814
  173SAPI    HY19581   4.675   5.053  10.399 -0.6982 -1.4678  0.5888
  173SAPI   O3119582   4.543   5.089  10.233 -0.1044  0.3397 -0.3369
  173SAPI   C3119583   4.632   5.026  10.162 -0.2401  0.0560  0.0640
  173SAPI   O3219584   4.747   4.992  10.191 -0.4113  0.0127 -0.2648
  173SAPI   C3219585   4.562   5.005  10.029 -0.4758  0.2855  0.4549
  173SAPI   H2X19586   4.540   5.105   9.985 -0.8052 -0.2277 -0.5622
  173SAPI   H2Y19587   4.470   4.956  10.067  0.0650  0.3099  1.8493
  173SAPI   C2319588   4.979   5.288  10.140 -0.0039 -0.2352  0.7458
  173SAPI   H3R19589   4.912   5.200  10.129 -1.4496  0.8176  0.7514
  173SAPI   H3S19590   5.066   5.266  10.205  1.3205 -0.0601 -0.9045
  173SAPI   C2419591   5.056   5.321  10.005  0.2939 -0.1174 -0.5956
  173SAPI   H4R19592   5.096   5.424  10.016 -0.7194  0.1869  0.5103
  173SAPI   H4S19593   4.970   5.314   9.936 -1.3411 -3.6185  1.4905
  173SAPI   C2519594   5.165   5.227   9.975 -0.1311 -0.0285  0.7187
  173SAPI   H5R19595   5.265   5.266  10.000  1.4433 -1.9198 -2.1144
  173SAPI   C2619596   5.157   5.111   9.905  0.0168  0.0411 -0.6193
  173SAPI   H6R19597   5.244   5.045   9.889 -0.8354 -1.1515 -0.4141
  173SAPI   C2719598   5.032   5.049   9.853 -0.2213  0.2856  0.3118
  173SAPI   H7R19599   5.012   5.110   9.763  1.7429  1.7164  0.7751
  173SAPI   H7S19600   4.944   5.072   9.917 -0.5922  1.6161 -0.6388
  173SAPI   C2819601   5.045   4.902   9.820 -0.1367 -0.0756  0.2995
  173SAPI   H8R19602   5.042   4.824   9.896 -2.8111  0.2725  0.6740
  173SAPI   C2919603   5.078   4.845   9.697  0.1597  0.4288  0.1548
  173SAPI   H9R19604   5.096   4.738   9.683  2.2638  0.9395 -1.6418
  173SAPI  C21019605   5.098   4.925   9.569 -0.0370 -0.6540  0.6774
  173SAPI  H10R19606   5.019   5.002   9.562  0.8999  0.4870  2.1258
  173SAPI  H10S19607   5.075   4.859   9.483 -1.2361  0.3181  0.2285
  173SAPI  C21119608   5.234   4.989   9.553  0.2648 -0.2038  0.5709
  173SAPI  H11R19609   5.256   5.072   9.622 -0.5249  0.7832 -0.3462
  173SAPI  C21219610   5.325   4.961   9.459 -0.1770 -0.7032  0.5596
  173SAPI  H12R19611   5.419   5.019   9.464 -1.0800  0.8357  0.2854
  173SAPI  C21319612   5.318   4.872   9.332  0.2842  0.5071  0.0198
  173SAPI  H13R19613   5.223   4.815   9.338  0.0962  0.9380  2.5090
  173SAPI  H13S19614   5.400   4.798   9.328 -1.8785 -1.9933 -1.0122
  173SAPI  C21419615   5.313   4.954   9.208 -0.1524  0.5887  0.3031
  173SAPI  H14R19616   5.389   5.033   9.209 -0.2465  0.6754  1.7256
  173SAPI  C21519617   5.228   4.953   9.104  0.1405  0.3963 -0.5558
  173SAPI  H15R19618   5.254   5.007   9.012 -0.7495  0.2768 -0.8928
  173SAPI  C21619619   5.123   4.849   9.090 -0.0475  0.3668 -0.1690
  173SAPI  H16R19620   5.083   4.809   9.186  0.9060  0.3349  0.2263
  173SAPI  H16S19621   5.157   4.761   9.031 -2.1733 -0.4694 -0.2552
  173SAPI  C21719622   4.991   4.905   9.020 -0.5186  0.6608  0.4526
  173SAPI  H17R19623   4.982   5.007   9.062  0.2362  1.0928 -0.4060
  173SAPI  H17S19624   4.907   4.840   9.053  1.4059 -2.3170 -0.0525
  173SAPI  C21819625   5.007   4.912   8.870  0.6992  0.0846  0.9545
  173SAPI  H18R19626   5.106   4.948   8.836  1.0303 -0.6464  1.1211
  173SAPI  H18S19627   4.919   4.966   8.828  0.1758  0.8957  3.0012
  173SAPI  C21919628   5.006   4.768   8.809 -0.0441  0.2618  0.0299
  173SAPI  H19R19629   4.928   4.705   8.858  2.5726 -1.6338  2.0447
  173SAPI  H19S19630   5.102   4.712   8.815 -0.2967 -0.1020  0.8828
  173SAPI  C22019631   4.958   4.773   8.669 -0.0118 -0.0479  0.5086
  173SAPI  H20R19632   4.933   4.675   8.622  1.2420 -0.0902 -0.1262
  173SAPI  H20S19633   5.039   4.813   8.604 -1.0162 -0.2592 -0.9070
  173SAPI  H20T19634   4.878   4.848   8.657  1.1217  1.0690 -0.3849
  173SAPI   C3319635   4.633   4.917   9.920 -0.7535 -0.7125 -0.7575
  173SAPI   H3X19636   4.652   4.820   9.970 -1.1762 -0.7081 -0.5822
  173SAPI   H3Y19637   4.727   4.974   9.908 -1.2869  1.0443  2.2365
  173SAPI   C3419638   4.558   4.903   9.785  0.1405  0.4210  0.5501
  173SAPI   H4X19639   4.519   5.002   9.756  1.2790  1.5109  2.4989
  173SAPI   H4Y19640   4.469   4.837   9.795  0.7443 -0.7492 -1.3100
  173SAPI   C3519641   4.650   4.845   9.682  0.4660 -0.6808  0.4298
  173SAPI   H5X19642   4.711   4.767   9.733  3.4811  2.2510  1.7081
  173SAPI   H5Y19643   4.727   4.919   9.650  0.6085 -0.9267  0.2009
  173SAPI   C3619644   4.586   4.793   9.555  0.4324  0.2904  0.4624
  173SAPI   H6X19645   4.529   4.876   9.509  0.3266 -0.0236  0.0254
  173SAPI   H6Y19646   4.513   4.710   9.571  0.4302  0.2237  0.1076
  173SAPI   C3719647   4.685   4.737   9.459  0.3670 -0.4116  0.5457
  173SAPI   H7X19648   4.726   4.653   9.519 -0.8354  0.6840  3.0194
  173SAPI   H7Y19649   4.765   4.814   9.448  2.4266 -2.4013  0.9552
  173SAPI   C3819650   4.629   4.680   9.323 -0.1722  0.3529 -0.3957
  173SAPI   H8X19651   4.556   4.745   9.270 -0.8411  0.3401  0.4934
  173SAPI   H8Y19652   4.574   4.593   9.364  1.2169  0.9640  3.0990
  173SAPI   C3919653   4.748   4.629   9.238 -0.3958  0.7925  0.4522
  173SAPI   H9X19654   4.806   4.558   9.299  3.1346  3.9504  1.1761
  173SAPI   H9Y19655   4.824   4.710   9.225  0.2716 -0.0574 -1.2651
  173SAPI  C31019656   4.717   4.579   9.094  0.0268  0.3496  0.0039
  173SAPI  H10X19657   4.787   4.624   9.020  1.1364  0.8282  1.3061
  173SAPI  H10Y19658   4.612   4.592   9.061 -0.4113 -0.5005  1.0048
  173SAPI  C31119659   4.716   4.424   9.087  0.8656 -0.0993  0.4233
  173SAPI  H11X19660   4.635   4.389   9.155  1.7329  0.5956  1.8673
  173SAPI  H11Y19661   4.814   4.384   9.121 -0.1018 -1.8638  1.2263
  173SAPI  C31219662   4.683   4.371   8.946  0.1788  0.9396 -0.0613
  173SAPI  H12X19663   4.587   4.405   8.904  0.7386 -0.1431 -2.3520
  173SAPI  H12Y19664   4.684   4.260   8.956 -1.1243  0.9205 -0.0663
  173SAPI  C31319665   4.801   4.401   8.847 -0.0756  0.6519 -0.2430
  173SAPI  H13X19666   4.891   4.367   8.903 -0.3605 -1.3459 -0.9305
  173SAPI  H13Y19667   4.800   4.510   8.824  2.2997  0.7071 -0.3439
  173SAPI  C31419668   4.786   4.319   8.721  0.0425 -0.1291  0.1476
  173SAPI  H14X19669   4.854   4.351   8.640  2.3660 -2.4785  1.0346
  173SAPI  H14Y19670   4.681   4.317   8.684 -0.1991  1.5640  0.6540
  173SAPI  C31519671   4.821   4.165   8.734  0.0742  0.1298  0.1199
  173SAPI  H15X19672   4.771   4.128   8.825  0.4399 -0.1215  0.2217
  173SAPI  H15Y19673   4.929   4.143   8.744 -0.6460 -4.5115  0.0481
  173SAPI  C31619674   4.766   4.074   8.624 -0.3218 -0.6309 -0.4008
  173SAPI  H16X19675   4.810   4.107   8.528 -0.0633 -0.0562 -0.0847
  173SAPI  H16Y19676   4.657   4.087   8.604 -0.0976  3.6288  0.2401
  173SAPI  C31719677   4.791   3.925   8.648  0.4592 -0.1440 -0.0692
  173SAPI  H17X19678   4.755   3.877   8.555 -0.4452 -0.8148  0.6110
  173SAPI  H17Y19679   4.731   3.889   8.734 -1.2148 -0.0615 -1.1659
  173SAPI  C31819680   4.942   3.890   8.657  0.5031 -0.1307  0.6575
  173SAPI  H18X19681   4.983   3.933   8.751  1.0374 -0.0867  0.4100
  173SAPI  H18Y19682   4.991   3.924   8.563 -4.3991  0.6943 -1.9154
  173SAPI  H18Z19683   4.934   3.780   8.667 -1.9957  0.0479  1.2137
  174SAPI   C1219684   1.349   2.032  10.950  1.0775 -0.7077  0.0201
  174SAPI    H219685   1.324   2.053  10.843 -1.0778  2.0289  0.9274
  174SAPI    O219686   1.470   2.101  10.971  0.5627 -0.3300 -0.3842
  174SAPI   HO219687   1.514   2.103  10.886 -0.4913 -2.8278 -1.0885
  174SAPI   C1319688   1.231   2.087  11.025  0.4469  0.7837  0.4977
  174SAPI    H319689   1.135   2.042  10.991  1.5128  1.1174 -3.3292
  174SAPI    O319690   1.197   2.219  10.993 -0.4006  0.0172 -0.2044
  174SAPI   HO319691   1.268   2.279  11.014  1.0439 -1.4420 -0.7091
  174SAPI   C1419692   1.258   2.058  11.168 -0.4925  0.1605  0.1864
  174SAPI    H419693   1.357   2.099  11.196 -0.5900 -0.3577  1.3632
  174SAPI    O419694   1.172   2.130  11.259 -0.3046 -0.4337  0.5444
  174SAPI   HO419695   1.087   2.091  11.240 -0.4825  1.0797 -2.3225
  174SAPI   C1519696   1.264   1.910  11.200  0.2110 -0.0474 -0.3768
  174SAPI    H519697   1.171   1.860  11.164 -0.5783  2.0297 -1.3581
  174SAPI    O519698   1.270   1.878  11.340  0.4339 -0.5069  0.2651
  174SAPI   HO519699   1.358   1.881  11.378  0.3258  1.9561  0.4941
  174SAPI   C1619700   1.384   1.850  11.119  0.1338 -0.0580 -0.2617
  174SAPI    H619701   1.474   1.900  11.162  0.4900  1.6193 -2.7510
  174SAPI    O619702   1.403   1.709  11.147 -0.3430 -0.4367  0.1748
  174SAPI   HO619703   1.335   1.647  11.121  2.1695 -3.3903  0.1578
  174SAPI   C1119704   1.366   1.878  10.972  0.1886  0.5582  0.2632
  174SAPI    H119705   1.272   1.830  10.935  0.7409 -0.5130  0.1919
  174SAPI     P19706   1.457   1.758  10.742 -0.3829  0.0382  0.4158
  174SAPI   O1319707   1.388   1.632  10.757 -0.5024  0.2231  0.0115
  174SAPI   O1419708   1.595   1.750  10.684  0.0514 -0.4318 -0.0181
  174SAPI   O1219709   1.477   1.833  10.887 -0.5045 -0.2167 -0.1192
  174SAPI   O1119710   1.368   1.852  10.660  0.2302 -0.3153  0.5142
  174SAPI    C119711   1.228   1.834  10.645 -0.5690 -0.8967  0.3426
  174SAPI    HA19712   1.187   1.775  10.730  1.1041  0.2481  2.0150
  174SAPI    HB19713   1.180   1.934  10.636 -0.3767 -0.6832  1.6227
  174SAPI    C219714   1.186   1.761  10.512 -0.4619  0.0246 -0.8691
  174SAPI    HS19715   1.212   1.653  10.520  0.1457  0.1775 -0.7235
  174SAPI   O2119716   1.241   1.825  10.396  0.3443  0.1125  0.4204
  174SAPI   C2119717   1.303   1.740  10.315  0.1612  0.5536 -0.0340
  174SAPI   O2219718   1.315   1.619  10.333 -0.1907 -1.1303  0.5922
  174SAPI   C2219719   1.341   1.795  10.175 -0.2562  0.2166 -0.3486
  174SAPI   H2R19720   1.242   1.787  10.125 -0.0288 -2.5352 -0.4716
  174SAPI   H2S19721   1.373   1.900  10.196  0.6308  0.2615 -1.7948
  174SAPI    C319722   1.030   1.778  10.489  0.0232  0.0146 -0.0616
  174SAPI    HX19723   1.005   1.887  10.487 -0.5568 -0.1164 -0.4152
  174SAPI    HY19724   0.984   1.734  10.580 -1.3470  1.5314  0.0271
  174SAPI   O3119725   0.984   1.714  10.363  0.2571  0.1593 -0.1521
  174SAPI   C3119726   0.903   1.611  10.378  0.0018 -0.1785  0.5323
  174SAPI   O3219727   0.859   1.573  10.483  0.4055  0.5367 -0.7965
  174SAPI   C3219728   0.885   1.551  10.236  0.1733  0.0003 -0.0274
  174SAPI   H2X19729   0.842   1.626  10.167  1.2002 -0.0115 -0.7038
  174SAPI   H2Y19730   0.815   1.466  10.249 -0.1903  0.5191  1.5838
  174SAPI   C2319731   1.459   1.716  10.111 -0.1978 -0.6900  0.0478
  174SAPI   H3R19732   1.434   1.609  10.099 -1.1411 -0.2248 -3.2566
  174SAPI   H3S19733   1.556   1.728  10.162 -0.2744  0.0750  0.0326
  174SAPI   C2419734   1.488   1.774   9.972  0.2142  0.4184 -0.3315
  174SAPI   H4R19735   1.528   1.876   9.990 -2.2061  1.0599  2.0955
  174SAPI   H4S19736   1.392   1.791   9.919 -0.7848  0.8861  1.5270
  174SAPI   C2519737   1.577   1.670   9.906  0.4645 -0.0388 -0.1876
  174SAPI   H5R19738   1.656   1.621   9.965  1.2985  2.9921  1.4101
  174SAPI   C2619739   1.557   1.629   9.782  0.0339 -0.1105 -0.4460
  174SAPI   H6R19740   1.628   1.554   9.746  1.1540  0.6417  0.1454
  174SAPI   C2719741   1.456   1.672   9.675  0.4797 -0.0138 -0.4792
  174SAPI   H7R19742   1.365   1.683   9.738 -0.7294  0.9086 -2.3155
  174SAPI   H7S19743   1.422   1.588   9.611  1.5193 -0.9895  0.2038
  174SAPI   C2819744   1.492   1.795   9.595 -0.3913 -0.0724  0.1789
  174SAPI   H8R19745   1.502   1.882   9.660  0.4217 -0.1940  0.2221
  174SAPI   C2919746   1.529   1.800   9.461 -0.3596  0.6046 -0.4381
  174SAPI   H9R19747   1.576   1.890   9.417  0.8371  0.4910  0.5535
  174SAPI  C21019748   1.534   1.685   9.371 -0.5320  0.4708  0.3463
  174SAPI  H10R19749   1.541   1.592   9.431  2.2463  0.3190 -0.0766
  174SAPI  H10S19750   1.629   1.686   9.315  0.9623 -0.8797  2.6698
  174SAPI  C21119751   1.408   1.693   9.286 -0.0167 -0.7158  0.2346
  174SAPI  H11R19752   1.324   1.650   9.341  1.7752 -2.6791  1.6207
  174SAPI  C21219753   1.386   1.743   9.160 -0.1444  0.0241 -0.4770
  174SAPI  H12R19754   1.287   1.734   9.114  0.6533 -2.6838 -1.8537
  174SAPI  C21319755   1.486   1.810   9.071 -0.1704 -0.1216  0.0567
  174SAPI  H13R19756   1.504   1.742   8.986  1.9015 -0.2421  0.5404
  174SAPI  H13S19757   1.587   1.824   9.116  0.9724 -1.6645 -1.8689
  174SAPI  C21419758   1.449   1.952   9.035  0.1128  0.3246  0.3143
  174SAPI  H14R19759   1.435   2.020   9.120  2.4615  0.4563  0.6659
  174SAPI  C21519760   1.432   2.009   8.914 -0.0187 -0.9435 -0.8738
  174SAPI  H15R19761   1.396   2.113   8.911  0.9531 -0.6204 -2.0013
  174SAPI  C21619762   1.454   1.943   8.785 -0.0628  0.1333 -0.4975
  174SAPI  H16R19763   1.363   1.947   8.721 -0.4407  1.3116  0.0740
  174SAPI  H16S19764   1.476   1.837   8.808  0.6281  0.4209  0.2185
  174SAPI  C21719765   1.582   2.004   8.721 -0.1533  0.2090 -0.0690
  174SAPI  H17R19766   1.674   1.992   8.782  0.4261 -0.9566 -1.1167
  174SAPI  H17S19767   1.549   2.109   8.704 -0.3310  0.5818  2.3299
  174SAPI  C21819768   1.626   1.936   8.588 -0.0101  0.0692 -0.1295
  174SAPI  H18R19769   1.734   1.958   8.579 -0.1711  0.9915  0.0375
  174SAPI  H18S19770   1.564   1.976   8.505 -1.9549  2.2362  2.2195
  174SAPI  C21919771   1.625   1.782   8.588  0.9564 -0.3535  0.3576
  174SAPI  H19R19772   1.517   1.756   8.590  0.7847  0.3375  0.7266
  174SAPI  H19S19773   1.666   1.747   8.685  2.8758 -0.9143 -0.6035
  174SAPI  C22019774   1.692   1.724   8.462  0.0052 -0.8138  0.3936
  174SAPI  H20R19775   1.802   1.740   8.458 -0.0846 -0.5121 -1.3480
  174SAPI  H20S19776   1.642   1.754   8.368 -0.8482  1.6774  1.5393
  174SAPI  H20T19777   1.675   1.616   8.480 -1.2958 -0.5420  0.9195
  174SAPI   C3319778   1.021   1.484  10.188 -0.2926 -0.8284 -0.0287
  174SAPI   H3X19779   1.024   1.379  10.224  1.1707 -0.5477  0.7650
  174SAPI   H3Y19780   1.110   1.540  10.224 -0.0675 -1.0445 -0.2563
  174SAPI   C3419781   1.020   1.481  10.034  0.1266 -0.1204  0.3535
  174SAPI   H4X19782   1.120   1.465   9.988  0.9239  1.4370  1.4447
  174SAPI   H4Y19783   0.978   1.577  10.000 -1.4010 -0.7873  0.2859
  174SAPI   C3519784   0.936   1.371   9.977 -0.3369 -0.1478 -0.0128
  174SAPI   H5X19785   0.849   1.371  10.045  0.1095 -2.0073  0.6279
  174SAPI   H5Y19786   0.987   1.272   9.968  0.8556  0.6213 -2.9059
  174SAPI   C3619787   0.894   1.407   9.831  0.2863 -0.4640  0.0961
  174SAPI   H6X19788   0.832   1.497   9.851 -3.4557 -2.8632  0.3544
  174SAPI   H6Y19789   0.824   1.329   9.791  1.2207 -2.0483  1.4027
  174SAPI   C3719790   1.007   1.408   9.725 -0.8166  0.8808  0.0785
  174SAPI   H7X19791   1.037   1.302   9.739 -2.1298  0.2664 -1.4770
  174SAPI   H7Y19792   1.100   1.462   9.751  0.3975 -1.6450  1.4011
  174SAPI   C3819793   0.952   1.419   9.585 -0.3941 -0.3853  0.5363
  174SAPI   H8X19794   0.884   1.506   9.573 -1.1776 -0.9529  0.7945
  174SAPI   H8Y19795   0.894   1.328   9.559 -0.5063  0.2516 -1.7248
  174SAPI   C3919796   1.061   1.437   9.470  0.7640 -0.3241  0.9300
  174SAPI   H9X19797   1.131   1.353   9.491 -0.2398 -1.3339  0.3824
  174SAPI   H9Y19798   1.105   1.536   9.492 -3.7182  1.5418  2.5635
  174SAPI  C31019799   1.007   1.436   9.325  0.0611 -0.0876 -0.2465
  174SAPI  H10X19800   0.947   1.526   9.303  0.8893  0.6969  0.5874
  174SAPI  H10Y19801   0.935   1.352   9.321 -0.4530  0.3913 -1.5392
  174SAPI  C31119802   1.121   1.414   9.224  0.2759 -0.5611  0.6182
  174SAPI  H11X19803   1.198   1.342   9.261  1.5742  0.9404  0.9249
  174SAPI  H11Y19804   1.184   1.505   9.218  2.9405 -2.2004  1.7121
  174SAPI  C31219805   1.068   1.355   9.085 -0.6667 -0.2027 -0.1993
  174SAPI  H12X19806   0.986   1.417   9.042  0.5058  1.0124 -0.7704
  174SAPI  H12Y19807   1.033   1.250   9.092  0.0142 -0.3617  1.2273
  174SAPI  C31319808   1.189   1.353   8.987  0.0543 -0.5667 -0.8359
  174SAPI  H13X19809   1.257   1.273   9.022 -0.5704 -1.2292 -1.1238
  174SAPI  H13Y19810   1.246   1.449   8.983 -0.7348 -0.0114  0.6590
  174SAPI  C31419811   1.145   1.331   8.843  0.2197 -0.1787 -0.4690
  174SAPI  H14X19812   1.243   1.341   8.791  1.2962  2.6059  1.8615
  174SAPI  H14Y19813   1.083   1.415   8.805  0.3911 -1.1853 -3.2246
  174SAPI  C31519814   1.085   1.197   8.816  0.2294 -0.0898 -0.7408
  174SAPI  H15X19815   0.974   1.198   8.827  0.1146 -1.2316 -1.6456
  174SAPI  H15Y19816   1.114   1.119   8.889  2.3188  0.2549 -1.1627
  174SAPI  C31619817   1.105   1.157   8.674 -0.5098 -0.3784 -0.2458
  174SAPI  H16X19818   1.209   1.173   8.638 -0.1795 -0.5705  0.6020
  174SAPI  H16Y19819   1.053   1.214   8.594  0.4620  0.5384 -0.2457
  174SAPI  C31719820   1.071   1.014   8.648  0.5812  0.9675 -0.4122
  174SAPI  H17X19821   0.975   0.972   8.685  1.9733 -0.8659  1.3527
  174SAPI  H17Y19822   1.138   0.969   8.726  0.5240  1.4288 -0.0949
  174SAPI  C31819823   1.111   0.949   8.515 -0.1868 -0.5595  0.2640
  174SAPI  H18X19824   1.049   0.864   8.479 -2.4401  1.2750 -0.4606
  174SAPI  H18Y19825   1.220   0.928   8.517 -0.0878 -0.0146  1.5003
  174SAPI  H18Z19826   1.097   1.016   8.428 -0.3298  2.5100  2.4897
  175SAPI   C1219827   2.360   4.001   5.936 -0.4477 -0.4751  0.5777
  175SAPI    H219828   2.388   3.904   5.889 -0.4857  1.1301 -3.0992
  175SAPI    O219829   2.480   4.082   5.951  0.1981  0.4912  0.2039
  175SAPI   HO219830   2.514   4.048   6.034 -0.7143 -0.6168  0.1424
  175SAPI   C1319831   2.247   4.062   5.856  0.7183  0.4212 -0.0474
  175SAPI    H319832   2.168   3.984   5.846  0.4149  0.7712 -0.4164
  175SAPI    O319833   2.284   4.095   5.723 -0.3597  0.0174  0.8079
  175SAPI   HO319834   2.209   4.068   5.669  1.3745 -0.4553 -1.5389
  175SAPI   C1419835   2.177   4.178   5.930 -0.1434  0.1568 -0.7010
  175SAPI    H419836   2.248   4.261   5.951 -1.1059  0.4457  1.7570
  175SAPI    O419837   2.070   4.230   5.852 -0.2231  0.0405 -0.1411
  175SAPI   HO419838   2.000   4.164   5.850 -0.6950  0.5477 -1.6412
  175SAPI   C1519839   2.129   4.141   6.071 -0.5896 -0.5244 -0.1444
  175SAPI    H519840   2.044   4.071   6.061 -0.9111 -0.1407 -0.1002
  175SAPI    O519841   2.079   4.260   6.135 -0.5711 -0.0725 -0.0188
  175SAPI   HO519842   1.984   4.249   6.133 -0.4890 -0.8295 -1.6570
  175SAPI   C1619843   2.247   4.081   6.150 -0.8980  0.7798  0.1458
  175SAPI    H619844   2.326   4.155   6.175  0.7505  0.0218 -2.4146
  175SAPI    O619845   2.199   4.042   6.280 -0.3043 -0.1196  0.5137
  175SAPI   HO619846   2.165   4.125   6.314 -0.9008  0.2502 -0.9011
  175SAPI   C1119847   2.303   3.964   6.069  0.5132  0.4720 -0.0510
  175SAPI    H119848   2.218   3.894   6.051  0.3534  0.7655 -0.4375
  175SAPI     P19849   2.428   3.732   6.155 -0.1190  0.8888  0.1151
  175SAPI   O1319850   2.570   3.697   6.181 -0.3796 -0.2443 -0.1267
  175SAPI   O1419851   2.367   3.668   6.034  0.7461 -0.1485 -0.6946
  175SAPI   O1219852   2.409   3.900   6.152 -0.5382  0.1740  0.2144
  175SAPI   O1119853   2.354   3.689   6.287 -0.2693 -0.3823 -0.4328
  175SAPI    C119854   2.398   3.734   6.415  0.0830  0.8022 -0.5438
  175SAPI    HA19855   2.506   3.748   6.436 -0.6674  0.7263  4.7017
  175SAPI    HB19856   2.363   3.839   6.424  0.0561  0.7611 -0.1205
  175SAPI    C219857   2.330   3.640   6.526  0.2544  0.1793  0.1555
  175SAPI    HS19858   2.221   3.648   6.507  0.0895  1.4559  1.4596
  175SAPI   O2119859   2.383   3.698   6.643 -0.3144 -0.0473 -0.5986
  175SAPI   C2119860   2.316   3.674   6.753 -0.7656  0.2650 -0.0762
  175SAPI   O2219861   2.225   3.598   6.772  0.2679 -0.3022  0.3212
  175SAPI   C2219862   2.401   3.740   6.863  0.4036 -0.0956  0.0474
  175SAPI   H2R19863   2.503   3.697   6.873  0.0650 -0.8923  0.1825
  175SAPI   H2S19864   2.415   3.843   6.823 -3.1259  0.2731 -0.5663
  175SAPI    C319865   2.384   3.496   6.513  0.8126  0.7021 -0.2476
  175SAPI    HX19866   2.495   3.496   6.526  0.7719 -1.0878  0.5242
  175SAPI    HY19867   2.357   3.455   6.414 -1.1700  2.0785 -0.3243
  175SAPI   O3119868   2.314   3.398   6.599 -0.0081  0.3335  0.3112
  175SAPI   C3119869   2.384   3.351   6.702 -0.1046 -0.1058  0.5881
  175SAPI   O3219870   2.500   3.369   6.724 -0.3707  0.3398 -0.3917
  175SAPI   C3219871   2.288   3.273   6.791 -0.6800 -0.3659  0.6675
  175SAPI   H2X19872   2.279   3.169   6.754 -1.1486 -0.8569  2.0846
  175SAPI   H2Y19873   2.190   3.325   6.785 -1.2817 -1.1837  2.5375
  175SAPI   C2319874   2.334   3.753   6.997  0.3519 -0.1015 -0.3743
  175SAPI   H3R19875   2.281   3.660   7.024  0.4976 -0.4016 -1.1150
  175SAPI   H3S19876   2.260   3.836   6.992  2.2129  1.6075 -0.6339
  175SAPI   C2419877   2.448   3.779   7.101  0.1200 -0.7167  0.1001
  175SAPI   H4R19878   2.493   3.877   7.073 -2.3497  0.0955 -1.3307
  175SAPI   H4S19879   2.527   3.704   7.079  1.1809  0.7590 -1.5079
  175SAPI   C2519880   2.399   3.794   7.245  1.2340 -0.1911  0.1798
  175SAPI   H5R19881   2.351   3.889   7.273  0.0143  0.0127 -2.3680
  175SAPI   C2619882   2.411   3.696   7.338 -0.1066  0.3404  0.8378
  175SAPI   H6R19883   2.367   3.715   7.437 -1.8718  1.7254 -0.1670
  175SAPI   C2719884   2.485   3.564   7.323  0.2629 -0.0793  0.3275
  175SAPI   H7R19885   2.594   3.574   7.340  0.4937 -0.5206 -0.8255
  175SAPI   H7S19886   2.492   3.546   7.214 -0.4772  0.6449  0.1488
  175SAPI   C2819887   2.434   3.445   7.402  0.9292 -0.1164 -0.0060
  175SAPI   H8R19888   2.325   3.436   7.391  0.6876  2.8146 -0.8860
  175SAPI   C2919889   2.496   3.353   7.479 -0.1039 -0.1043  0.4468
  175SAPI   H9R19890   2.425   3.283   7.526  0.0683 -0.0109  0.8585
  175SAPI  C21019891   2.635   3.339   7.519 -1.2091 -0.3674 -0.2866
  175SAPI  H10R19892   2.668   3.407   7.600  1.6485 -1.2542 -0.5959
  175SAPI  H10S19893   2.701   3.369   7.435  0.8851 -0.9865  1.0577
  175SAPI  C21119894   2.669   3.193   7.558  0.0132 -0.3198 -0.6543
  175SAPI  H11R19895   2.649   3.116   7.482 -0.9523  0.4464 -1.1931
  175SAPI  C21219896   2.715   3.144   7.677 -0.2579  0.0671  0.4587
  175SAPI  H12R19897   2.746   3.038   7.679 -3.1693 -0.8783  1.1945
  175SAPI  C21319898   2.741   3.225   7.798  0.0233 -0.7433 -0.0324
  175SAPI  H13R19899   2.745   3.335   7.780 -0.0845 -0.9824 -1.6613
  175SAPI  H13S19900   2.843   3.191   7.826 -1.1856 -2.7219  2.3013
  175SAPI  C21419901   2.641   3.191   7.907 -0.4466  0.2449 -0.1335
  175SAPI  H14R19902   2.553   3.257   7.906 -0.2025  0.5708 -0.5623
  175SAPI  C21519903   2.628   3.081   7.987 -0.0644  0.7953  0.8068
  175SAPI  H15R19904   2.549   3.087   8.063 -0.1022 -0.1073  0.8535
  175SAPI  C21619905   2.733   2.968   7.998  0.3046 -0.9647 -0.1749
  175SAPI  H16R19906   2.794   2.956   7.906  1.3729  1.0824  0.1913
  175SAPI  H16S19907   2.687   2.868   8.013  1.8136 -1.3886  2.1241
  175SAPI  C21719908   2.827   2.992   8.114  0.9226  0.5573 -0.1010
  175SAPI  H17R19909   2.883   3.088   8.109  0.5808  0.7921  0.4004
  175SAPI  H17S19910   2.900   2.909   8.113  0.3251  0.0274 -0.0526
  175SAPI  C21819911   2.745   2.983   8.241 -0.4977  0.4906 -0.5133
  175SAPI  H18R19912   2.683   2.893   8.223  0.3465 -0.5794  1.5618
  175SAPI  H18S19913   2.680   3.070   8.264 -3.1535 -1.7951  1.4260
  175SAPI  C21919914   2.824   2.952   8.363  0.0286  0.6397  0.2872
  175SAPI  H19R19915   2.899   3.032   8.374 -0.6718  1.2288  0.9424
  175SAPI  H19S19916   2.871   2.852   8.349 -0.7721  0.4569 -1.2555
  175SAPI  C22019917   2.752   2.947   8.498  0.3681  0.3921  0.5495
  175SAPI  H20R19918   2.682   2.860   8.498  0.3845  0.3711 -0.2200
  175SAPI  H20S19919   2.681   3.033   8.492  0.1398  0.0991 -1.4545
  175SAPI  H20T19920   2.815   2.935   8.589 -0.6052 -1.2348  1.0536
  175SAPI   C3319921   2.331   3.251   6.942  0.3652 -0.2993 -0.4930
  175SAPI   H3X19922   2.350   3.347   6.994 -2.4049 -0.1543  0.3778
  175SAPI   H3Y19923   2.418   3.182   6.942 -0.1049 -0.9238  0.7941
  175SAPI   C3419924   2.212   3.178   7.012 -0.3791  0.6033  0.0979
  175SAPI   H4X19925   2.173   3.103   6.940  0.7725  0.2162 -0.1504
  175SAPI   H4Y19926   2.123   3.242   7.030  0.1415  1.2033  0.5729
  175SAPI   C3519927   2.251   3.110   7.145 -0.0986 -0.5181  0.1297
  175SAPI   H5X19928   2.308   3.181   7.208  3.4697 -0.6218 -2.6417
  175SAPI   H5Y19929   2.324   3.031   7.118  1.1726  0.5859  0.2402
  175SAPI   C3619930   2.129   3.053   7.222  0.1093  0.0786 -0.1804
  175SAPI   H6X19931   2.083   2.966   7.169 -0.5365 -0.8171  1.7718
  175SAPI   H6Y19932   2.053   3.133   7.227  1.1724  1.2850 -2.1343
  175SAPI   C3719933   2.159   3.036   7.371  0.0095 -0.5497  0.3627
  175SAPI   H7X19934   2.080   2.987   7.432  0.3430 -0.8133  0.5890
  175SAPI   H7Y19935   2.167   3.135   7.420  1.5335 -0.3876 -0.1485
  175SAPI   C3819936   2.291   2.970   7.398 -0.0760 -0.1560 -0.1940
  175SAPI   H8X19937   2.373   3.017   7.340  0.1121 -0.7713 -0.4341
  175SAPI   H8Y19938   2.271   2.864   7.371 -2.7528  0.0863  0.5841
  175SAPI   C3919939   2.312   2.967   7.552  0.8814 -0.8496  0.3008
  175SAPI   H9X19940   2.220   2.939   7.607  0.4959 -0.2848 -0.0472
  175SAPI   H9Y19941   2.339   3.073   7.570  0.9160 -0.7285 -0.4288
  175SAPI  C31019942   2.431   2.883   7.599 -0.2430 -0.3934  0.6006
  175SAPI  H10X19943   2.485   2.950   7.669  0.9027  0.6840 -1.2411
  175SAPI  H10Y19944   2.512   2.862   7.526  0.4750  1.7871  0.7137
  175SAPI  C31119945   2.387   2.745   7.662 -0.1088  0.0066 -0.3606
  175SAPI  H11X19946   2.315   2.704   7.588  0.1784 -0.7757 -0.2098
  175SAPI  H11Y19947   2.328   2.763   7.754  0.5949 -1.4664  0.3995
  175SAPI  C31219948   2.501   2.647   7.696  0.8148  0.2945  0.9434
  175SAPI  H12X19949   2.561   2.608   7.611 -0.5630  1.9654 -0.9029
  175SAPI  H12Y19950   2.448   2.557   7.736  0.0520 -0.6768 -1.9657
  175SAPI  C31319951   2.598   2.710   7.796  0.4668 -0.2607  0.5584
  175SAPI  H13X19952   2.537   2.789   7.844  0.4571  0.3634 -0.4400
  175SAPI  H13Y19953   2.677   2.763   7.738  0.1986 -0.2056  0.2373
  175SAPI  C31419954   2.662   2.614   7.902 -0.1819  0.1807  0.2252
  175SAPI  H14X19955   2.734   2.663   7.971  2.6364 -1.7775 -1.1414
  175SAPI  H14Y19956   2.720   2.544   7.838  0.9926  1.4707 -0.1844
  175SAPI  C31519957   2.560   2.509   7.967  0.6823 -0.5570 -0.1065
  175SAPI  H15X19958   2.536   2.427   7.897  2.4441 -1.6698  0.5192
  175SAPI  H15Y19959   2.465   2.560   7.993  0.3383 -2.3811  2.5647
  175SAPI  C31619960   2.624   2.447   8.091 -0.1282 -0.6114  0.0835
  175SAPI  H16X19961   2.729   2.422   8.065 -0.4151 -1.1252 -0.6413
  175SAPI  H16Y19962   2.569   2.354   8.118 -0.6985 -0.3534 -0.1627
  175SAPI  C31719963   2.609   2.543   8.211  0.3689  0.0288  0.5989
  175SAPI  H17X19964   2.502   2.575   8.206 -0.3009 -2.0857  0.1507
  175SAPI  H17Y19965   2.665   2.638   8.204 -1.0952  1.0284  1.7120
  175SAPI  C31819966   2.656   2.483   8.346  0.2493  0.4013  0.0862
  175SAPI  H18X19967   2.766   2.470   8.343  0.0983 -1.7082  1.6431
  175SAPI  H18Y19968   2.617   2.381   8.368 -2.8113  1.8531  2.0787
  175SAPI  H18Z19969   2.636   2.547   8.435  1.5005 -0.9776  1.4211
  176SAPI   C1219970   1.212   0.808   6.719 -0.1415  0.6635 -0.1897
  176SAPI    H219971   1.281   0.751   6.785 -1.1696  1.4503  1.6532
  176SAPI    O219972   1.149   0.717   6.632  0.8651  0.3683  0.6886
  176SAPI   HO219973   1.212   0.653   6.598 -2.0734 -1.3822 -2.0398
  176SAPI   C1319974   1.114   0.880   6.812  0.4320 -0.0361 -0.3326
  176SAPI    H319975   1.173   0.943   6.882  0.0145 -0.0536  0.0398
  176SAPI    O319976   1.032   0.792   6.890  0.6890  0.0277 -0.1737
  176SAPI   HO319977   0.968   0.850   6.932  2.1239  2.9039 -1.6633
  176SAPI   C1419978   1.013   0.975   6.728 -0.0827 -0.0279 -0.4216
  176SAPI    H419979   0.949   0.908   6.666 -1.6072  0.0629  0.9943
  176SAPI    O419980   0.915   1.048   6.814 -0.2328 -0.4202 -0.2631
  176SAPI   HO419981   0.830   1.067   6.774  0.3558  1.0712 -0.8545
  176SAPI   C1519982   1.093   1.070   6.646  0.2508 -0.7226 -0.3757
  176SAPI    H519983   1.156   1.119   6.723  1.7774 -0.8751 -1.4861
  176SAPI    O519984   1.015   1.173   6.585  1.1943  0.0291 -0.0730
  176SAPI   HO519985   0.979   1.227   6.655 -4.0156 -1.5906 -1.0642
  176SAPI   C1619986   1.200   0.998   6.561  0.6666  0.0359  0.2248
  176SAPI    H619987   1.142   0.941   6.485 -0.2237 -0.5165  1.2820
  176SAPI    O619988   1.262   1.090   6.476 -0.1879  0.3502  0.3126
  176SAPI   HO619989   1.355   1.089   6.500  0.3224  2.4529 -1.2356
  176SAPI   C1119990   1.299   0.912   6.641 -0.8301 -0.7205 -0.5301
  176SAPI    H119991   1.342   0.973   6.723  2.1064  0.9825 -3.1215
  176SAPI     P19992   1.542   0.902   6.538 -0.2423 -0.3506  0.2546
  176SAPI   O1319993   1.510   1.045   6.514  0.0544 -1.3004  0.0677
  176SAPI   O1419994   1.608   0.816   6.440 -0.1724 -0.0239  0.7442
  176SAPI   O1219995   1.399   0.834   6.567  0.5162 -0.0573  0.1243
  176SAPI   O1119996   1.614   0.889   6.680  0.1604  0.4589 -0.2707
  176SAPI    C119997   1.648   0.758   6.728  0.0104 -0.1484 -0.3676
  176SAPI    HA19998   1.579   0.676   6.697 -0.9691 -0.2306  1.8018
  176SAPI    HB19999   1.754   0.735   6.705 -0.1714 -1.2554 -0.1494
  176SAPI    C220000   1.642   0.746   6.878  0.8605  0.2371 -0.5403
  176SAPI    HS20001   1.693   0.650   6.897 -0.4514 -1.2061 -3.6931
  176SAPI   O2120002   1.505   0.754   6.918  0.5640 -0.0043 -0.6216
  176SAPI   C2120003   1.472   0.665   7.002  0.2006 -0.2543  0.2196
  176SAPI   O2220004   1.541   0.576   7.046 -0.6880 -0.5047  0.1468
  176SAPI   C2220005   1.326   0.681   7.043 -0.1253 -0.2582  0.0361
  176SAPI   H2R20006   1.292   0.785   7.023  1.0755 -0.0617 -1.1095
  176SAPI   H2S20007   1.278   0.613   6.970  2.8664 -1.7717 -0.6585
  176SAPI    C320008   1.728   0.850   6.954  0.2977 -0.1795 -0.4038
  176SAPI    HX20009   1.666   0.942   6.942  0.9027  0.0133 -2.2638
  176SAPI    HY20010   1.824   0.877   6.906 -0.5649  0.6114 -1.7427
  176SAPI   O3120011   1.743   0.820   7.098 -0.2415 -0.6707 -0.0316
  176SAPI   C3120012   1.851   0.751   7.132  0.1011  0.1074 -0.0292
  176SAPI   O3220013   1.927   0.708   7.051  0.5179  0.4653 -0.1203
  176SAPI   C3220014   1.852   0.724   7.283  0.0997  0.7680 -0.1674
  176SAPI   H2X20015   1.764   0.660   7.303  0.8968 -0.2910  0.0305
  176SAPI   H2Y20016   1.843   0.824   7.331 -2.9878  0.7051 -0.4230
  176SAPI   C2320017   1.298   0.635   7.187  0.4974  0.1726  0.4834
  176SAPI   H3R20018   1.309   0.723   7.254 -0.1082  0.8221 -0.2464
  176SAPI   H3S20019   1.359   0.547   7.213 -0.3371 -0.5907 -0.0627
  176SAPI   C2420020   1.151   0.599   7.216 -0.1609  0.6283  0.0249
  176SAPI   H4R20021   1.085   0.675   7.168 -0.8419  0.3077  0.4418
  176SAPI   H4S20022   1.134   0.602   7.326  0.0697 -0.8544  0.1146
  176SAPI   C2520023   1.119   0.465   7.157  0.1662  0.1630  0.4530
  176SAPI   H5R20024   1.125   0.460   7.047  3.1395 -0.4553  0.5594
  176SAPI   C2620025   1.078   0.353   7.224  0.0400  0.1357  0.4285
  176SAPI   H6R20026   1.044   0.263   7.170  0.0086 -0.6379  1.6987
  176SAPI   C2720027   1.047   0.348   7.365 -0.0676 -0.0342 -0.4981
  176SAPI   H7R20028   0.941   0.379   7.372  0.4181  1.2577  2.9915
  176SAPI   H7S20029   1.096   0.434   7.415  0.9349 -0.5021 -0.6463
  176SAPI   C2820030   1.063   0.222   7.447 -0.1831 -0.3496  0.4470
  176SAPI   H8R20031   1.158   0.170   7.431  1.9700  3.1483  0.7177
  176SAPI   C2920032   0.990   0.188   7.559  0.5861 -0.0738 -0.2835
  176SAPI   H9R20033   1.023   0.100   7.616 -3.5359 -1.9389 -0.4456
  176SAPI  C21020034   0.877   0.269   7.617  0.2783 -0.7711 -0.2803
  176SAPI  H10R20035   0.783   0.251   7.560 -0.4897 -0.5600  0.8930
  176SAPI  H10S20036   0.896   0.377   7.602 -1.2711 -0.1105  2.0061
  176SAPI  C21120037   0.856   0.248   7.766 -0.1320 -0.6191  0.1222
  176SAPI  H11R20038   0.922   0.173   7.811 -0.1808 -1.2922 -0.8770
  176SAPI  C21220039   0.775   0.317   7.847 -0.4766 -0.6108 -0.0689
  176SAPI  H12R20040   0.752   0.273   7.946 -0.9984 -0.4852 -0.1364
  176SAPI  C21320041   0.694   0.434   7.803 -0.5923  0.3296  0.1065
  176SAPI  H13R20042   0.585   0.414   7.800 -0.8081  1.2529  1.1194
  176SAPI  H13S20043   0.717   0.457   7.697  0.6799  1.8438  0.6629
  176SAPI  C21420044   0.714   0.553   7.891 -0.2941  0.6710  0.0771
  176SAPI  H14R20045   0.656   0.561   7.984  2.2073 -0.2161  1.8133
  176SAPI  C21520046   0.788   0.660   7.859 -0.9663  0.2368 -0.4582
  176SAPI  H15R20047   0.806   0.741   7.931  2.3202 -1.3614  0.7133
  176SAPI  C21620048   0.882   0.681   7.739  0.0166 -1.1915 -0.1407
  176SAPI  H16R20049   0.842   0.769   7.685 -0.8931 -0.3947  1.7499
  176SAPI  H16S20050   0.903   0.594   7.673  0.7693  0.3270 -1.9857
  176SAPI  C21720051   1.028   0.723   7.764  0.4134 -0.3524  0.2432
  176SAPI  H17R20052   1.057   0.676   7.861 -2.0254  1.9214  2.2497
  176SAPI  H17S20053   1.019   0.834   7.769  1.2167 -0.2031 -1.1627
  176SAPI  C21820054   1.128   0.692   7.660 -0.2223  0.3763  0.2638
  176SAPI  H18R20055   1.090   0.741   7.568 -0.2386  0.1341  0.1410
  176SAPI  H18S20056   1.135   0.583   7.640 -1.4367  0.4397 -0.5958
  176SAPI  C21920057   1.274   0.746   7.694 -0.2898  0.3235  0.2885
  176SAPI  H19R20058   1.272   0.857   7.691  1.4524  0.4067  1.2083
  176SAPI  H19S20059   1.345   0.724   7.612  3.2762  2.0661  2.6722
  176SAPI  C22020060   1.345   0.690   7.814 -0.4389  0.4481 -0.1177
  176SAPI  H20R20061   1.275   0.709   7.898  0.3534  2.9525  0.0412
  176SAPI  H20S20062   1.446   0.735   7.820  0.0064 -0.6708  1.3220
  176SAPI  H20T20063   1.358   0.580   7.808  0.3494  0.5578 -0.4454
  176SAPI   C3320064   1.982   0.652   7.323  0.1299 -0.1751  0.0358
  176SAPI   H3X20065   2.050   0.731   7.285 -1.0606  1.9531  2.0554
  176SAPI   H3Y20066   1.993   0.551   7.277  0.8863  0.0423 -0.2841
  176SAPI   C3420067   1.993   0.634   7.471  0.3636 -0.3737 -0.2540
  176SAPI   H4X20068   2.003   0.735   7.517  2.0441 -0.2944 -0.7231
  176SAPI   H4Y20069   2.090   0.581   7.479  0.8870  0.4952 -0.6256
  176SAPI   C3520070   1.882   0.547   7.528 -0.4294 -0.1433  0.2807
  176SAPI   H5X20071   1.860   0.450   7.479  0.0468  0.4106 -1.0876
  176SAPI   H5Y20072   1.785   0.599   7.543 -1.8370 -2.2490 -0.9980
  176SAPI   C3620073   1.921   0.502   7.672 -0.1129 -0.1762  0.6697
  176SAPI   H6X20074   1.947   0.593   7.729  1.1312 -0.3984  0.4732
  176SAPI   H6Y20075   2.011   0.437   7.661 -0.7197 -1.1845  1.4170
  176SAPI   C3720076   1.799   0.443   7.746 -0.6592  0.2498  1.0437
  176SAPI   H7X20077   1.773   0.348   7.694 -0.6059  0.8761 -0.1634
  176SAPI   H7Y20078   1.715   0.513   7.731 -0.8907 -0.0238  1.0637
  176SAPI   C3820079   1.814   0.416   7.893 -0.2559 -0.0042  0.1335
  176SAPI   H8X20080   1.823   0.512   7.947  0.1328  2.1680 -3.4738
  176SAPI   H8Y20081   1.914   0.373   7.917 -0.6637 -0.5142  0.9715
  176SAPI   C3920082   1.720   0.319   7.971  0.1521 -0.3061 -0.5902
  176SAPI   H9X20083   1.699   0.224   7.918 -0.2067 -0.8592  0.5128
  176SAPI   H9Y20084   1.618   0.363   7.980  1.0584  1.6895  0.8480
  176SAPI  C31020085   1.769   0.296   8.118  0.3762  0.6681  0.2530
  176SAPI  H10X20086   1.799   0.391   8.167  1.9081 -1.0733  2.9605
  176SAPI  H10Y20087   1.864   0.240   8.098 -0.2355 -1.0130  1.7332
  176SAPI  C31120088   1.678   0.212   8.211 -0.1337 -0.1482  0.4700
  176SAPI  H11X20089   1.665   0.112   8.165 -3.7923  0.1175  0.5919
  176SAPI  H11Y20090   1.582   0.267   8.205  1.1923  2.1552 -1.6334
  176SAPI  C31220091   1.723   0.221   8.354  0.0539 -0.3306  0.2969
  176SAPI  H12X20092   1.778   0.315   8.373 -1.2145  0.3258  0.8670
  176SAPI  H12Y20093   1.794   0.135   8.361 -2.1445 -2.2250  0.7122
  176SAPI  C31320094   1.614   0.197   8.464  0.5421 -0.3941  0.2171
  176SAPI  H13X20095   1.556   0.104   8.445 -0.2103  0.0051  0.5244
  176SAPI  H13Y20096   1.549   0.287   8.455  1.8753  0.5071 -0.8120
  176SAPI  C31420097   1.661   0.202   8.611  0.0286 -0.0674  0.2309
  176SAPI  H14X20098   1.648   0.297   8.667 -1.5169  0.8629 -1.5980
  176SAPI  H14Y20099   1.769   0.179   8.626  0.8519  3.8064  1.3842
  176SAPI  C31520100   1.575   0.095   8.688  0.2072 -0.2930  0.0700
  176SAPI  H15X20101   1.611   0.004   8.637 -0.2785 -1.2257  1.3485
  176SAPI  H15Y20102   1.469   0.125   8.675  0.1578 -0.2378  0.5793
  176SAPI  C31620103   1.604   0.083   8.842 -0.1420  0.5112 -0.4570
  176SAPI  H16X20104   1.711   0.100   8.867  0.0224 -1.2428  0.1111
  176SAPI  H16Y20105   1.578  -0.022   8.863  1.6534  0.2330  0.5381
  176SAPI  C31720106   1.516   0.178   8.923 -0.4724  0.8112  0.3993
  176SAPI  H17X20107   1.411   0.145   8.910 -0.2014 -0.1143  0.4791
  176SAPI  H17Y20108   1.524   0.287   8.908  3.3353  0.6843  0.4888
  176SAPI  C31820109   1.535   0.158   9.080 -0.3054 -0.0705  0.6064
  176SAPI  H18X20110   1.450   0.191   9.143 -0.0845 -0.3748  1.0671
  176SAPI  H18Y20111   1.624   0.219   9.107  1.4165 -2.8679  1.6586
  176SAPI  H18Z20112   1.561   0.052   9.103  0.3663  0.4763  2.5739
  177SLPC     N20113   3.883   1.159  11.021  0.1027 -0.5874  0.9039
  177SLPC   C1320114   4.005   1.245  11.023 -0.2545  0.0776  0.1398
  177SLPC  H13A20115   4.040   1.265  11.123 -1.1169  2.3795  0.0553
  177SLPC  H13B20116   4.083   1.216  10.955  0.6982  2.0049  0.3516
  177SLPC  H13C20117   3.980   1.343  10.985  0.0213 -0.1111 -0.5519
  177SLPC   C1420118   3.764   1.220  11.092  0.5635  0.2732 -0.2532
  177SLPC  H14A20119   3.681   1.152  11.083 -0.0632  0.9167  0.4886
  177SLPC  H14B20120   3.783   1.220  11.198 -1.3773 -0.9092  0.1501
  177SLPC  H14C20121   3.738   1.319  11.056  1.2902  0.6278  0.1725
  177SLPC   C1520122   3.914   1.031  11.097 -0.3038 -0.0931  0.0016
  177SLPC  H15A20123   3.922   1.052  11.202  0.0518 -1.9293  0.3715
  177SLPC  H15B20124   3.837   0.956  11.087 -2.0077  1.5698  0.0717
  177SLPC  H15C20125   4.006   0.997  11.050 -0.1240  2.7887 -2.0271
  177SLPC   C1220126   3.844   1.113  10.885  0.2181  0.6745  0.4867
  177SLPC  H12A20127   3.847   1.208  10.833  0.4331  1.2220  1.4583
  177SLPC  H12B20128   3.742   1.084  10.869  0.9164 -1.0847 -1.2172
  177SLPC   C1120129   3.932   1.014  10.798  0.0593 -0.7579  0.2198
  177SLPC  H11A20130   3.905   1.023  10.691  1.0541 -1.5492 -0.1179
  177SLPC  H11B20131   3.937   0.906  10.826  1.1229 -0.2869  2.0476
  177SLPC     P20132   4.181   0.960  10.833  0.2695  0.1498 -0.1165
  177SLPC   O1320133   4.312   1.024  10.807 -0.3282  0.2187 -0.7020
  177SLPC   O1420134   4.167   0.899  10.971  0.3456 -0.4767  0.1586
  177SLPC   O1220135   4.062   1.068  10.807 -0.5626  0.0917  0.0712
  177SLPC   O1120136   4.162   0.852  10.725  0.1938  0.2709 -0.1362
  177SLPC    C120137   4.267   0.781  10.663 -0.4542  0.9526  0.3297
  177SLPC    HA20138   4.356   0.845  10.643  0.8201 -0.4681  1.1755
  177SLPC    HB20139   4.291   0.690  10.723  0.7147 -0.5927 -2.2502
  177SLPC    C220140   4.209   0.698  10.544 -0.4603 -0.6547 -0.0097
  177SLPC    HS20141   4.273   0.619  10.500  2.9091  1.9040 -0.1013
  177SLPC   O2120142   4.190   0.789  10.439  0.0499 -0.3868  0.3980
  177SLPC   C2120143   4.301   0.842  10.386  0.5397  0.7285 -0.2662
  177SLPC   O2220144   4.413   0.799  10.396 -0.2994 -0.2471  0.5208
  177SLPC   C2220145   4.259   0.966  10.302  0.0038  0.3030 -0.1418
  177SLPC   H2R20146   4.150   0.985  10.305  0.1226  1.6273 -2.2764
  177SLPC   H2S20147   4.307   1.042  10.367  0.5703 -0.1926  0.0318
  177SLPC    C320148   4.070   0.634  10.579 -0.3717  0.3761  0.1308
  177SLPC    HX20149   3.997   0.704  10.625  0.6012  0.0862  2.2549
  177SLPC    HY20150   4.098   0.543  10.637 -0.6882 -1.2238 -2.0824
  177SLPC   O3120151   3.996   0.590  10.465  0.1461  0.2674 -0.0757
  177SLPC   C3120152   4.037   0.491  10.397 -0.0871 -0.5699  0.1336
  177SLPC   O3220153   4.142   0.437  10.419 -0.6910  0.2532  0.0658
  177SLPC   C3220154   3.960   0.465  10.272  0.3418  0.2581 -0.6732
  177SLPC   H2X20155   3.876   0.536  10.257  1.8113  2.4917  1.0145
  177SLPC   H2Y20156   3.904   0.370  10.286 -0.2394  0.5171 -1.2181
  177SLPC   C2320157   4.311   0.970  10.161 -0.4967  0.4505 -0.3807
  177SLPC   H3R20158   4.419   0.942  10.158 -0.1865  1.6487 -1.0961
  177SLPC   H3S20159   4.292   1.073  10.126  0.4414  1.4802  1.9353
  177SLPC   C2420160   4.248   0.864  10.059 -0.0742 -0.2611 -0.9618
  177SLPC   H4R20161   4.137   0.862  10.061 -0.0519 -0.8580  1.0648
  177SLPC   H4S20162   4.282   0.765  10.097  2.1082  1.4615  1.9912
  177SLPC   C2520163   4.292   0.904   9.924  0.6892  0.9844 -0.1641
  177SLPC   H5R20164   4.403   0.912   9.928  1.1001 -3.1663  1.8224
  177SLPC   H5S20165   4.250   1.006   9.909 -0.0177  0.5396 -1.2826
  177SLPC   C2620166   4.260   0.805   9.809  0.6980  0.3942  0.8337
  177SLPC   H6R20167   4.151   0.787   9.793  0.7962  1.1322 -0.8689
  177SLPC   H6S20168   4.301   0.705   9.834  0.4245  0.0899  0.0703
  177SLPC   C2720169   4.316   0.848   9.676  0.1333  0.0090 -0.1994
  177SLPC   H7R20170   4.412   0.903   9.685  1.0978 -1.6247 -0.0944
  177SLPC   H7S20171   4.243   0.914   9.625  0.5155 -0.3844 -1.2875
  177SLPC   C2820172   4.345   0.723   9.590 -0.0603  0.8442 -0.1788
  177SLPC   H8R20173   4.241   0.684   9.583 -0.0453  0.3794  1.7784
  177SLPC   H8S20174   4.404   0.638   9.629  0.1567  1.4244  0.8019
  177SLPC   C2920175   4.392   0.757   9.458  0.0529 -0.8019  0.2395
  177SLPC   H9R20176   4.492   0.719   9.435  1.0877  2.7299 -1.8066
  177SLPC  C21020177   4.325   0.821   9.355 -0.3028  0.0246 -0.2790
  177SLPC  H10R20178   4.385   0.839   9.265  0.3291 -2.6722 -0.4700
  177SLPC  C21120179   4.193   0.882   9.366  0.1130 -0.5999  0.3469
  177SLPC  H11R20180   4.124   0.830   9.435 -0.2840 -0.3753  0.1269
  177SLPC  H11S20181   4.208   0.982   9.412 -2.9382 -0.2381  0.7409
  177SLPC  C21220182   4.115   0.908   9.238 -0.4788 -0.2325 -0.2368
  177SLPC  H12R20183   4.039   0.986   9.248  0.0832  0.0407  3.7986
  177SLPC  C21320184   4.129   0.831   9.126 -0.2335 -0.4704 -0.0844
  177SLPC  H13R20185   4.075   0.864   9.036  0.5579 -2.6512 -1.4339
  177SLPC  C21420186   4.219   0.718   9.090 -0.5360  0.2855 -0.1191
  177SLPC  H14R20187   4.164   0.640   9.032  1.3606  0.1803 -1.8776
  177SLPC  H14S20188   4.240   0.668   9.187 -1.1291  1.1963  0.5039
  177SLPC  C21520189   4.349   0.748   8.998 -0.9343  0.2956  0.2618
  177SLPC  H15R20190   4.425   0.794   9.066  0.1815 -0.2745 -0.5728
  177SLPC  H15S20191   4.321   0.815   8.914  1.4098  2.1849  0.8632
  177SLPC  C21620192   4.422   0.617   8.945 -0.4531 -0.2806  0.0111
  177SLPC  H16R20193   4.350   0.567   8.877  0.9706 -0.1090 -1.7100
  177SLPC  H16S20194   4.447   0.554   9.033  1.6033  1.8469  1.0489
  177SLPC  C21720195   4.550   0.644   8.875 -0.0835  0.2158  0.1457
  177SLPC  H17R20196   4.599   0.548   8.847 -0.1407  0.0549  0.5774
  177SLPC  H17S20197   4.626   0.695   8.939 -1.5148  0.8992  1.3581
  177SLPC  C21820198   4.536   0.725   8.752 -0.2295 -0.4971  0.3955
  177SLPC  H18R20199   4.465   0.668   8.688  1.1875 -1.1890 -0.6164
  177SLPC  H18S20200   4.626   0.751   8.692 -0.2562 -0.9241  0.1668
  177SLPC  H18T20201   4.482   0.819   8.776 -1.2798 -0.7010 -1.0122
  177SLPC   C3320202   4.041   0.454  10.140 -0.5275  0.2042 -0.4160
  177SLPC   H3X20203   4.123   0.383  10.164  2.4228  2.6741 -2.5145
  177SLPC   H3Y20204   4.069   0.559  10.123 -1.6639  0.4190 -1.1180
  177SLPC   C3420205   3.969   0.397  10.024  0.1170  0.0019 -0.0820
  177SLPC   H4X20206   3.874   0.453  10.011 -0.7553 -1.3119  0.3870
  177SLPC   H4Y20207   3.933   0.294  10.046  1.7880 -0.1744  2.1103
  177SLPC   C3520208   4.050   0.411   9.895  0.6189  1.3164  0.1351
  177SLPC   H5X20209   4.130   0.336   9.911  1.5918  2.1420 -0.7959
  177SLPC   H5Y20210   4.109   0.504   9.884  1.7603  0.5311 -0.4959
  177SLPC   C3620211   3.957   0.404   9.772 -0.5184 -0.0781 -0.4804
  177SLPC   H6X20212   3.900   0.498   9.756  0.3055  0.6357  0.6029
  177SLPC   H6Y20213   3.875   0.332   9.795 -1.5834  1.7209  1.9145
  177SLPC   C3720214   4.026   0.363   9.647  0.3006 -0.4278  0.5454
  177SLPC   H7X20215   4.083   0.270   9.664 -0.5551 -0.4092  4.4393
  177SLPC   H7Y20216   4.095   0.444   9.613 -0.7289  0.3869  0.3575
  177SLPC   C3820217   3.920   0.338   9.528 -0.2394 -0.3105 -0.0999
  177SLPC   H8X20218   3.847   0.422   9.528 -0.1766 -0.1852 -2.4252
  177SLPC   H8Y20219   3.873   0.245   9.566 -0.6605 -0.3965 -0.8228
  177SLPC   C3920220   3.987   0.297   9.391  0.1443  0.2347  0.2745
  177SLPC   H9X20221   4.052   0.209   9.411 -1.4147 -1.5856 -2.0863
  177SLPC   H9Y20222   4.043   0.380   9.343 -0.9400  0.7469 -0.1398
  177SLPC  C31020223   3.891   0.234   9.289  0.0232 -0.4288  0.4797
  177SLPC  H10X20224   3.812   0.308   9.264 -1.2949 -1.3738  1.6609
  177SLPC  H10Y20225   3.838   0.151   9.341 -1.8533  0.3951 -0.0434
  177SLPC  C31120226   3.962   0.195   9.163 -0.2898  0.7065 -0.6263
  177SLPC  H11X20227   3.889   0.143   9.097 -1.9387  3.6057 -1.2640
  177SLPC  H11Y20228   4.043   0.126   9.196 -0.7084 -0.5422 -2.0836
  177SLPC  C31220229   4.012   0.314   9.078  1.0100 -0.0236 -0.5480
  177SLPC  H12X20230   4.099   0.363   9.126 -0.6741  0.6518  2.0111
  177SLPC  H12Y20231   3.924   0.381   9.070  2.3458  2.2407  2.0639
  177SLPC  C31320232   4.068   0.272   8.938  0.2782  0.3827  0.2733
  177SLPC  H13X20233   3.991   0.200   8.905  0.9478 -0.8152  1.2343
  177SLPC  H13Y20234   4.161   0.217   8.964  0.5516  0.9466  0.5060
  177SLPC  C31420235   4.075   0.383   8.841  0.3248  0.2350  0.0724
  177SLPC  H14X20236   4.084   0.474   8.904 -2.8987 -1.0280  2.6436
  177SLPC  H14Y20237   3.981   0.400   8.784  1.4646  0.6918 -1.7748
  177SLPC  C31520238   4.176   0.356   8.734  0.1397  0.2206 -0.7980
  177SLPC  H15X20239   4.159   0.257   8.685 -2.2983  0.6036 -0.8391
  177SLPC  H15Y20240   4.267   0.356   8.798 -1.4643  0.5009  1.6019
  177SLPC  C31620241   4.179   0.468   8.635  0.2034 -0.0081 -0.2117
  177SLPC  H16X20242   4.187   0.565   8.687  0.1556  0.5843 -1.2891
  177SLPC  H16Y20243   4.087   0.476   8.573  0.3274 -1.2711 -0.5911
  177SLPC  C31720244   4.295   0.458   8.533  0.2392  0.0678 -0.2719
  177SLPC  H17X20245   4.285   0.361   8.481 -0.8183  0.6206 -1.1310
  177SLPC  H17Y20246   4.391   0.451   8.588  0.4301 -0.0051 -0.6086
  177SLPC  C31820247   4.311   0.576   8.445 -0.1783 -0.3937 -0.3548
  177SLPC  H18X20248   4.297   0.667   8.508 -0.0598  0.6236 -1.7462
  177SLPC  H18Y20249   4.241   0.585   8.360  0.0222  1.0989 -0.3971
  177SLPC  H18Z20250   4.415   0.582   8.405  1.0619  0.7510  2.6811
  178SLPC     N20251   6.322   4.199  11.326  0.0568  0.5651  0.2977
  178SLPC   C1320252   6.439   4.246  11.404  0.8657 -0.6566  0.1259
  178SLPC  H13A20253   6.418   4.243  11.510 -0.1506  0.3805 -0.0356
  178SLPC  H13B20254   6.532   4.190  11.396 -0.2841 -2.6282 -0.2167
  178SLPC  H13C20255   6.466   4.346  11.374  0.1082 -0.0693  1.3286
  178SLPC   C1420256   6.199   4.218  11.410 -0.4316 -0.1190  0.3312
  178SLPC  H14A20257   6.110   4.176  11.366 -0.0320 -0.3845 -0.2273
  178SLPC  H14B20258   6.209   4.165  11.504 -0.1720 -0.9457 -0.1572
  178SLPC  H14C20259   6.181   4.321  11.437  0.0879 -0.0444  0.4093
  178SLPC   C1520260   6.342   4.056  11.286 -0.2782 -0.0931  0.8160
  178SLPC  H15A20261   6.434   4.035  11.235 -0.7963  0.8584 -0.5668
  178SLPC  H15B20262   6.340   3.992  11.373 -1.1164 -0.8591  0.2576
  178SLPC  H15C20263   6.250   4.031  11.234 -1.0011 -1.1061  2.4915
  178SLPC   C1220264   6.309   4.270  11.192 -0.1692  0.0508 -0.0996
  178SLPC  H12A20265   6.367   4.227  11.112  1.8516  1.2341  0.6314
  178SLPC  H12B20266   6.352   4.370  11.197  1.5125 -0.6081 -0.5996
  178SLPC   C1120267   6.162   4.303  11.138 -0.5050  0.3311  0.4688
  178SLPC  H11A20268   6.160   4.358  11.042 -0.5566  1.1250  0.9141
  178SLPC  H11B20269   6.124   4.366  11.221  1.5861 -1.0962  2.6566
  178SLPC     P20270   6.124   4.078  11.028 -0.3534  0.3424  0.2538
  178SLPC   O1320271   6.239   4.125  10.947 -0.2967 -0.1918 -0.5144
  178SLPC   O1420272   6.147   3.956  11.104 -0.2976  0.5150 -0.0726
  178SLPC   O1220273   6.077   4.186  11.127  0.6561 -0.0673 -0.3307
  178SLPC   O1120274   6.003   4.067  10.931  0.6933  0.0518  0.0139
  178SLPC    C120275   5.882   3.996  10.983  0.1452 -0.2838  0.2470
  178SLPC    HA20276   5.879   3.994  11.094 -1.6921 -0.0532  0.2326
  178SLPC    HB20277   5.785   4.029  10.940  0.6867  0.0458 -0.7425
  178SLPC    C220278   5.885   3.848  10.922 -0.2464  0.8704  0.1502
  178SLPC    HS20279   5.972   3.792  10.961 -1.1454 -2.0754 -1.7353
  178SLPC   O2120280   5.893   3.846  10.774 -0.0591 -0.3447 -0.4242
  178SLPC   C2120281   5.923   3.727  10.725  0.2000  0.8879  0.6061
  178SLPC   O2220282   5.931   3.623  10.789  0.1653 -0.1027 -1.2000
  178SLPC   C2220283   5.945   3.742  10.573 -0.2444  0.3416 -0.7679
  178SLPC   H2R20284   5.905   3.841  10.542 -0.1124  0.9831  1.0127
  178SLPC   H2S20285   6.055   3.730  10.563 -0.3453 -1.1466 -0.2488
  178SLPC    C320286   5.757   3.774  10.971  0.5749 -0.9320  0.4045
  178SLPC    HX20287   5.740   3.788  11.080 -1.9845  2.9576 -0.2677
  178SLPC    HY20288   5.765   3.663  10.961  2.0813 -0.6667 -2.4908
  178SLPC   O3120289   5.642   3.828  10.909 -0.3569 -0.0343 -0.2272
  178SLPC   C3120290   5.587   3.760  10.813  0.5623  0.5421 -0.1043
  178SLPC   O3220291   5.620   3.647  10.774  0.1139 -0.0126 -0.0128
  178SLPC   C3220292   5.471   3.834  10.750 -0.1689 -0.3201  1.2524
  178SLPC   H2X20293   5.410   3.877  10.832 -0.0537  2.2084  0.1149
  178SLPC   H2Y20294   5.405   3.760  10.699  0.3985 -0.0901  0.1542
  178SLPC   C2320295   5.879   3.622  10.486 -0.8750  0.2105 -0.1279
  178SLPC   H3R20296   5.777   3.599  10.523 -1.2639 -0.8198 -1.7759
  178SLPC   H3S20297   5.938   3.529  10.501 -0.3250  0.5659 -0.0481
  178SLPC   C2420298   5.877   3.647  10.335 -0.3209  0.1011  0.2261
  178SLPC   H4R20299   5.824   3.743  10.322 -0.3013 -0.1085 -1.7703
  178SLPC   H4S20300   5.824   3.567  10.278  1.6332 -0.0378 -1.5487
  178SLPC   C2520301   6.012   3.657  10.263 -0.2952  0.4731 -0.1947
  178SLPC   H5R20302   6.057   3.557  10.277  1.9567  1.2968 -1.1764
  178SLPC   H5S20303   6.076   3.737  10.306 -1.6802  0.8580  1.2492
  178SLPC   C2620304   5.997   3.692  10.113 -0.3103  0.4597  0.3688
  178SLPC   H6R20305   6.098   3.718  10.073 -1.0328  2.2886 -0.3710
  178SLPC   H6S20306   5.933   3.782  10.109 -2.1926 -0.8458 -0.1708
  178SLPC   C2720307   5.941   3.582  10.022 -0.3334 -0.0988 -0.0383
  178SLPC   H7R20308   5.855   3.535  10.074  1.2380 -1.2714  1.6477
  178SLPC   H7S20309   6.015   3.499  10.018  0.7744  0.9133 -2.0121
  178SLPC   C2820310   5.930   3.631   9.870  0.9806  0.5811  0.0605
  178SLPC   H8R20311   6.032   3.662   9.838  1.5878 -2.0387 -0.7577
  178SLPC   H8S20312   5.876   3.726   9.849  2.1068  0.8235 -2.0870
  178SLPC   C2920313   5.886   3.518   9.781  0.7448 -0.4124  0.2847
  178SLPC   H9R20314   5.793   3.472   9.816  0.1872  0.9313  0.6528
  178SLPC  C21020315   5.945   3.474   9.670 -0.5837  0.6784  0.2160
  178SLPC  H10R20316   5.898   3.388   9.620 -1.5615  1.0932  0.4112
  178SLPC  C21120317   6.084   3.519   9.618 -0.7405  0.6116 -0.9929
  178SLPC  H11R20318   6.141   3.429   9.588 -0.8500  1.1686 -2.9933
  178SLPC  H11S20319   6.143   3.563   9.701 -0.0824  2.9376 -2.5832
  178SLPC  C21220320   6.072   3.611   9.502 -0.2378  0.0929  0.2901
  178SLPC  H12R20321   6.022   3.708   9.512  0.3519  0.3637  0.7333
  178SLPC  C21320322   6.115   3.575   9.376  0.1212 -0.1172 -0.2075
  178SLPC  H13R20323   6.113   3.654   9.300  0.7658  0.0752 -0.0333
  178SLPC  C21420324   6.185   3.443   9.342 -0.0047  0.6096  0.0224
  178SLPC  H14R20325   6.139   3.354   9.390  0.6165  0.1430 -0.2362
  178SLPC  H14S20326   6.292   3.446   9.371 -0.2815  4.3223  1.2841
  178SLPC  C21520327   6.178   3.426   9.191  0.0698  0.0278 -0.1276
  178SLPC  H15R20328   6.218   3.328   9.156 -1.2282 -0.2591 -0.9041
  178SLPC  H15S20329   6.245   3.498   9.140  0.5405 -0.4226 -0.1510
  178SLPC  C21620330   6.038   3.418   9.132 -0.1085  0.8080  0.5862
  178SLPC  H16R20331   5.990   3.518   9.138 -2.0304 -0.1233  1.4212
  178SLPC  H16S20332   5.972   3.340   9.175  0.3642 -0.5501 -1.0349
  178SLPC  C21720333   6.041   3.403   8.976  0.0335  0.4846 -0.3968
  178SLPC  H17R20334   6.095   3.308   8.956 -0.9798  0.5906 -4.4914
  178SLPC  H17S20335   6.109   3.485   8.944  1.0777  0.1148  0.7834
  178SLPC  C21820336   5.909   3.386   8.908  0.0448  0.1199 -0.1767
  178SLPC  H18R20337   5.921   3.413   8.801  0.2088 -0.0237 -0.1955
  178SLPC  H18S20338   5.834   3.459   8.945 -0.2071 -0.2367  0.0146
  178SLPC  H18T20339   5.873   3.282   8.918 -0.0685  0.1699 -0.0619
  178SLPC   C3320340   5.540   3.944  10.668 -0.5778 -0.6837 -0.2534
  178SLPC   H3X20341   5.601   4.018  10.724 -1.7302 -0.7511  1.1476
  178SLPC   H3Y20342   5.461   4.008  10.623  1.9683  1.9667 -1.2663
  178SLPC   C3420343   5.616   3.902  10.545  0.4918  0.5549  0.0074
  178SLPC   H4X20344   5.553   3.835  10.483  1.3152 -0.4411  0.2203
  178SLPC   H4Y20345   5.691   3.837  10.595 -1.3856  0.0635  2.3605
  178SLPC   C3520346   5.683   3.998  10.450 -0.3876 -0.6516  0.1784
  178SLPC   H5X20347   5.750   3.940  10.383  2.2734  1.9702  0.3241
  178SLPC   H5Y20348   5.740   4.065  10.519 -2.0799 -0.3031  1.3128
  178SLPC   C3620349   5.573   4.072  10.376 -0.8161 -0.1484  0.9791
  178SLPC   H6X20350   5.528   4.145  10.447  0.2281  0.9516  0.5386
  178SLPC   H6Y20351   5.494   4.005  10.336 -2.3439  1.2644  1.5284
  178SLPC   C3720352   5.630   4.143  10.248  0.0709  0.2022  0.6133
  178SLPC   H7X20353   5.732   4.178  10.275  0.6833 -1.4927  0.5903
  178SLPC   H7Y20354   5.558   4.227  10.233 -0.1544 -0.1317 -0.2252
  178SLPC   C3820355   5.634   4.046  10.125 -0.2040 -0.0323  0.9028
  178SLPC   H8X20356   5.530   4.026  10.091 -0.3307  1.4630  0.3422
  178SLPC   H8Y20357   5.690   3.955  10.155 -1.6780 -0.9204  1.0550
  178SLPC   C3920358   5.703   4.108  10.006 -0.7521  0.3992  0.0821
  178SLPC   H9X20359   5.812   4.112  10.027 -0.8483 -1.7852  1.2158
  178SLPC   H9Y20360   5.659   4.209   9.987 -3.0770 -0.0279  2.5739
  178SLPC  C31020361   5.687   4.009   9.892  1.0124 -0.5980  0.5426
  178SLPC  H10X20362   5.579   3.999   9.867  0.5287  1.6633  1.4420
  178SLPC  H10Y20363   5.717   3.903   9.908  1.5161 -0.4419  0.6237
  178SLPC  C31120364   5.745   4.059   9.759 -0.1270  0.4886 -0.1536
  178SLPC  H11X20365   5.856   4.059   9.771 -0.1587 -0.9406  0.3150
  178SLPC  H11Y20366   5.714   4.164   9.739  1.0838  1.2612  1.7049
  178SLPC  C31220367   5.716   3.964   9.640 -0.2687 -0.0492 -0.2203
  178SLPC  H12X20368   5.605   3.960   9.638 -0.3223 -1.0287  2.0945
  178SLPC  H12Y20369   5.752   3.862   9.665  1.0175  0.6324  0.8571
  178SLPC  C31320370   5.785   4.011   9.517 -0.4381 -0.3329 -0.1214
  178SLPC  H13X20371   5.885   4.059   9.523 -1.4417  2.4373 -2.8205
  178SLPC  H13Y20372   5.722   4.096   9.482 -2.7130 -1.5357  0.8610
  178SLPC  C31420373   5.800   3.902   9.406  0.3304 -0.5434  0.4868
  178SLPC  H14X20374   5.697   3.865   9.392  0.6577 -0.9220 -1.1080
  178SLPC  H14Y20375   5.865   3.817   9.435 -1.3684 -1.8663  0.4925
  178SLPC  C31520376   5.840   3.962   9.274 -0.1725  0.0499  0.2540
  178SLPC  H15X20377   5.774   4.044   9.237 -1.5068 -1.6971 -1.4964
  178SLPC  H15Y20378   5.944   3.999   9.273 -0.2787  0.3447 -0.2477
  178SLPC  C31620379   5.821   3.855   9.161  0.4864  0.0604 -0.7955
  178SLPC  H16X20380   5.714   3.827   9.161  0.2325  0.8719  1.4691
  178SLPC  H16Y20381   5.880   3.764   9.187  1.3411  0.7885 -0.1369
  178SLPC  C31720382   5.858   3.918   9.030  0.0366  0.3889  0.2398
  178SLPC  H17X20383   5.963   3.949   9.048  0.9072 -2.1702 -0.0238
  178SLPC  H17Y20384   5.785   3.999   9.012  0.0254  0.2508 -0.3561
  178SLPC  C31820385   5.852   3.813   8.913 -0.3521  0.0122 -0.8346
  178SLPC  H18X20386   5.883   3.853   8.814  2.8851 -1.5206 -0.5824
  178SLPC  H18Y20387   5.747   3.783   8.891 -0.3994 -0.2371 -0.2761
  178SLPC  H18Z20388   5.934   3.740   8.932  1.7977  1.9813 -2.0474
  179SLPC     N20389   0.110   5.895  10.346  0.4873  0.3075 -0.4698
  179SLPC   C1320390   0.065   6.034  10.359 -0.4413 -0.5583 -0.5296
  179SLPC  H13A20391  -0.016   6.054  10.428 -1.0665 -2.3000 -0.7074
  179SLPC  H13B20392   0.151   6.098  10.375 -0.6637 -0.4066  0.0925
  179SLPC  H13C20393   0.018   6.067  10.268 -1.9358  0.3981  0.5452
  179SLPC   C1420394  -0.015   5.818  10.311  0.1478 -0.5221  0.4831
  179SLPC  H14A20395  -0.050   5.861  10.219 -1.0064  0.4675  1.3582
  179SLPC  H14B20396   0.018   5.717  10.292  2.2367  0.2483 -0.2832
  179SLPC  H14C20397  -0.086   5.819  10.392  2.0662 -2.6908  2.3670
  179SLPC   C1520398   0.175   5.844  10.478  0.1623 -0.2877 -0.3615
  179SLPC  H15A20399   0.130   5.900  10.559 -0.6825 -1.8488  0.2941
  179SLPC  H15B20400   0.156   5.741  10.502 -2.8781  0.5222  1.1432
  179SLPC  H15C20401   0.283   5.851  10.475  0.1039  1.5986  0.3470
  179SLPC   C1220402   0.211   5.864  10.234 -0.1917 -0.8942 -0.4138
  179SLPC  H12A20403   0.172   5.895  10.138  1.9301  1.3287 -0.6536
  179SLPC  H12B20404   0.234   5.758  10.237 -0.9418 -1.0951  3.5039
  179SLPC   C1120405   0.356   5.924  10.249  0.5505  0.2709 -0.3112
  179SLPC  H11A20406   0.346   6.031  10.276  0.3462  0.1654  0.0422
  179SLPC  H11B20407   0.401   5.922  10.148  2.1781 -1.1372  0.3903
  179SLPC     P20408   0.486   5.705  10.318 -0.1005 -0.2561 -0.0902
  179SLPC   O1320409   0.598   5.674  10.409  0.2620  0.2509 -0.5665
  179SLPC   O1420410   0.373   5.606  10.328 -0.2120  0.5345 -0.2121
  179SLPC   O1220411   0.440   5.853  10.343  1.0759  0.0344  0.1730
  179SLPC   O1120412   0.539   5.704  10.171 -0.4967  0.2203  0.4386
  179SLPC    C120413   0.671   5.657  10.141 -0.0364 -0.3235 -0.5817
  179SLPC    HA20414   0.693   5.571  10.208  0.8898  0.5883  0.3251
  179SLPC    HB20415   0.687   5.604  10.045 -1.0022 -1.0014 -0.3800
  179SLPC    C220416   0.777   5.770  10.157  0.2000 -0.9269 -0.1552
  179SLPC    HS20417   0.766   5.808  10.261 -3.6252 -0.5437 -0.5767
  179SLPC   O2120418   0.752   5.872  10.067  0.4809 -1.0705  0.2971
  179SLPC   C2120419   0.785   5.997  10.097 -0.0373 -0.2295  0.7204
  179SLPC   O2220420   0.849   6.027  10.200  0.2586 -0.2281 -0.3582
  179SLPC   C2220421   0.733   6.093   9.985  0.3534 -0.0199 -0.0668
  179SLPC   H2R20422   0.773   6.194  10.008 -0.4539  0.1254  0.7737
  179SLPC   H2S20423   0.758   6.048   9.887  0.5312 -0.2016  0.0612
  179SLPC    C320424   0.927   5.726  10.152 -0.7078  0.5508  0.3565
  179SLPC    HX20425   0.943   5.660  10.240 -4.1594  0.0198  0.7393
  179SLPC    HY20426   0.989   5.817  10.166 -1.0217  0.6482  1.1978
  179SLPC   O3120427   0.947   5.652  10.028 -0.2458  0.1988 -0.1855
  179SLPC   C3120428   1.075   5.639   9.995  0.0619 -0.4865 -0.3834
  179SLPC   O3220429   1.170   5.659  10.068  0.0548  0.3894 -0.5371
  179SLPC   C3220430   1.077   5.604   9.843  0.2761 -0.1395 -0.0501
  179SLPC   H2X20431   0.996   5.661   9.792 -0.3506 -0.9361  0.0295
  179SLPC   H2Y20432   1.051   5.496   9.848 -0.6138 -0.0899 -2.3111
  179SLPC   C2320433   0.580   6.114   9.974  0.5323  0.3300 -0.0248
  179SLPC   H3R20434   0.536   6.119  10.075  0.3440 -1.7410  0.0408
  179SLPC   H3S20435   0.527   6.029   9.926 -2.1838  1.3996  0.9107
  179SLPC   C2420436   0.552   6.258   9.912  0.6575  0.2396  0.0810
  179SLPC   H4R20437   0.606   6.332   9.975  0.3164 -0.2142  0.9250
  179SLPC   H4S20438   0.442   6.272   9.926  0.8694  0.9000  1.2397
  179SLPC   C2520439   0.600   6.261   9.771  0.2826 -0.2224 -0.5150
  179SLPC   H5R20440   0.546   6.177   9.722  1.2148 -2.3862  1.9575
  179SLPC   H5S20441   0.709   6.242   9.768  0.2694 -0.3353 -0.3018
  179SLPC   C2620442   0.566   6.398   9.719  0.0757 -0.2741  0.8404
  179SLPC   H6R20443   0.617   6.470   9.787  0.8380  0.4483 -0.4702
  179SLPC   H6S20444   0.457   6.417   9.727  0.0709  0.3434 -0.5116
  179SLPC   C2720445   0.610   6.429   9.571  0.4267 -0.2377 -0.4472
  179SLPC   H7R20446   0.560   6.355   9.506 -0.5999 -0.7541  0.8749
  179SLPC   H7S20447   0.721   6.422   9.563  0.3275 -1.4955 -0.9988
  179SLPC   C2820448   0.581   6.577   9.523 -0.0920 -0.2291  0.0908
  179SLPC   H8R20449   0.583   6.648   9.608 -0.5325  1.8133 -1.5077
  179SLPC   H8S20450   0.474   6.568   9.495  0.7747 -3.0137 -2.8680
  179SLPC   C2920451   0.656   6.638   9.408 -0.3604  0.0972 -0.3016
  179SLPC   H9R20452   0.739   6.572   9.380  0.7193  0.7408  1.2066
  179SLPC  C21020453   0.631   6.756   9.349 -0.1468 -0.2714  0.2214
  179SLPC  H10R20454   0.699   6.796   9.272 -1.1606  1.6446  0.2460
  179SLPC  C21120455   0.533   6.860   9.394  0.2542 -0.3675  0.2693
  179SLPC  H11R20456   0.558   6.960   9.352 -1.8421 -1.0272 -2.9523
  179SLPC  H11S20457   0.528   6.865   9.505  2.3909 -2.6881  0.5697
  179SLPC  C21220458   0.395   6.825   9.348 -0.2360  0.4664  0.7206
  179SLPC  H12R20459   0.319   6.792   9.420 -0.5928  1.0592  0.6212
  179SLPC  C21320460   0.357   6.836   9.219 -0.6126  0.8212  0.5771
  179SLPC  H13R20461   0.251   6.829   9.191 -0.7991 -3.0508  1.6625
  179SLPC  C21420462   0.444   6.885   9.107  0.0326 -0.3422  0.6065
  179SLPC  H14R20463   0.425   6.829   9.013 -0.7418  0.4760  0.2578
  179SLPC  H14S20464   0.553   6.866   9.112  0.3942  0.7828 -1.7327
  179SLPC  C21520465   0.417   7.032   9.074  0.0314  0.0939 -0.2923
  179SLPC  H15R20466   0.488   7.099   9.126  0.0204 -0.9916  1.1731
  179SLPC  H15S20467   0.314   7.051   9.109  0.3062  3.1470 -0.9151
  179SLPC  C21620468   0.420   7.054   8.918  0.1756  0.3452 -0.0521
  179SLPC  H16R20469   0.513   7.012   8.874  0.1577 -1.5284  1.5751
  179SLPC  H16S20470   0.436   7.162   8.900 -2.2706  0.4444 -2.1295
  179SLPC  C21720471   0.292   7.003   8.854 -0.6455 -0.1878 -0.2269
  179SLPC  H17R20472   0.210   7.018   8.927  0.9498 -2.9254  2.3961
  179SLPC  H17S20473   0.290   6.895   8.828  0.7031 -0.1159 -0.7355
  179SLPC  C21820474   0.254   7.071   8.718  0.4260  1.4261  0.4356
  179SLPC  H18R20475   0.146   7.053   8.699  0.2494  0.5881  2.1059
  179SLPC  H18S20476   0.301   7.025   8.628 -0.9515 -3.0549  1.7496
  179SLPC  H18T20477   0.277   7.180   8.726 -2.2286  2.0079  1.0458
  179SLPC   C3320478   1.209   5.622   9.767 -0.3370  0.0874  0.2048
  179SLPC   H3X20479   1.301   5.595   9.824  1.7379  1.6224 -2.1850
  179SLPC   H3Y20480   1.217   5.731   9.744  2.3690 -0.5366 -2.5706
  179SLPC   C3420481   1.210   5.536   9.630  0.0713  0.7271 -0.2708
  179SLPC   H4X20482   1.208   5.429   9.660  1.4983  0.9173  0.6127
  179SLPC   H4Y20483   1.298   5.556   9.565 -0.5315 -0.6888 -1.5643
  179SLPC   C3520484   1.099   5.567   9.535  0.3699  0.0310 -0.0009
  179SLPC   H5X20485   1.099   5.673   9.501 -1.4378 -0.5260 -1.9606
  179SLPC   H5Y20486   0.995   5.543   9.564  1.0943 -0.3166  2.4936
  179SLPC   C3620487   1.114   5.495   9.401  0.1670  0.2607  0.1132
  179SLPC   H6X20488   1.106   5.385   9.409  1.4521  0.2116  0.9934
  179SLPC   H6Y20489   1.221   5.499   9.373  0.1954 -1.9152 -0.2168
  179SLPC   C3720490   1.012   5.541   9.297  0.0241  0.1191  0.3185
  179SLPC   H7X20491   0.911   5.560   9.340 -0.1622 -0.3584  0.1015
  179SLPC   H7Y20492   1.000   5.464   9.218 -3.9984 -0.2239  1.0567
  179SLPC   C3820493   1.066   5.659   9.211 -0.1166  0.2934  0.1068
  179SLPC   H8X20494   1.161   5.635   9.159 -0.5655  1.1970 -1.1796
  179SLPC   H8Y20495   1.097   5.741   9.280 -3.2736  1.8799 -0.1756
  179SLPC   C3920496   0.969   5.691   9.099  0.2191 -0.5747 -0.2939
  179SLPC   H9X20497   0.971   5.608   9.025 -0.0521 -1.2647  0.4621
  179SLPC   H9Y20498   1.004   5.778   9.040 -2.1672  0.4666 -0.3245
  179SLPC  C31020499   0.833   5.733   9.165  0.4076 -0.5182 -0.7657
  179SLPC  H10X20500   0.866   5.803   9.245 -1.3582  1.5799 -1.7442
  179SLPC  H10Y20501   0.784   5.644   9.209  2.6454 -0.3967  2.2679
  179SLPC  C31120502   0.738   5.805   9.067  0.2121 -0.5611  0.1219
  179SLPC  H11X20503   0.679   5.735   9.005  1.3464  0.0083 -1.6731
  179SLPC  H11Y20504   0.795   5.875   9.002 -2.3249  0.4770 -1.1340
  179SLPC  C31220505   0.629   5.885   9.137 -1.3615 -0.1278  0.4122
  179SLPC  H12X20506   0.690   5.943   9.209 -1.2732  0.8055 -0.3965
  179SLPC  H12Y20507   0.580   5.811   9.204 -1.3598  1.2389  1.9584
  179SLPC  C31320508   0.533   5.959   9.050 -0.0342  0.3551 -0.3202
  179SLPC  H13X20509   0.489   5.887   8.977  0.9288 -0.8295  0.2158
  179SLPC  H13Y20510   0.590   6.032   8.988 -0.8554  1.4942  0.2438
  179SLPC  C31420511   0.414   6.036   9.114  0.0008  0.6420  0.5189
  179SLPC  H14X20512   0.376   6.106   9.037 -1.0126  1.1006  1.4125
  179SLPC  H14Y20513   0.436   6.100   9.202 -3.1482  0.6580  1.4427
  179SLPC  C31520514   0.310   5.937   9.154 -0.4343  0.5327 -0.2813
  179SLPC  H15X20515   0.230   5.989   9.212  0.5592 -0.0452  1.7008
  179SLPC  H15Y20516   0.354   5.866   9.228 -0.8767  2.1555  1.6254
  179SLPC  C31620517   0.246   5.849   9.039 -0.3527  0.5695  0.4359
  179SLPC  H16X20518   0.171   5.785   9.089 -1.1935  1.5670  0.4904
  179SLPC  H16Y20519   0.314   5.777   8.989 -0.9704  0.4490 -0.2359
  179SLPC  C31720520   0.188   5.932   8.929 -0.0964 -0.2500  0.0329
  179SLPC  H17X20521   0.263   5.993   8.875 -1.7650  1.4560 -0.4532
  179SLPC  H17Y20522   0.133   6.019   8.970  0.7800  2.6825 -4.3187
  179SLPC  C31820523   0.104   5.853   8.838 -0.3588 -0.2524  0.0623
  179SLPC  H18X20524   0.082   5.912   8.747  0.3887 -0.3561 -0.1934
  179SLPC  H18Y20525   0.012   5.802   8.874  1.6010 -2.4489  2.2777
  179SLPC  H18Z20526   0.150   5.767   8.786  2.5787 -0.2869  2.4419
  180SLPC     N20527   0.597   2.170  11.324 -0.8928  0.4023 -0.0459
  180SLPC   C1320528   0.737   2.210  11.269  0.6694  0.1499 -0.3430
  180SLPC  H13A20529   0.702   2.239  11.171  0.3769 -0.4254 -0.4100
  180SLPC  H13B20530   0.781   2.293  11.323  1.7142 -0.9552  0.5638
  180SLPC  H13C20531   0.814   2.136  11.280  0.5249  0.3561  4.1055
  180SLPC   C1420532   0.600   2.212  11.464  0.3640  0.1656 -0.1829
  180SLPC  H14A20533   0.518   2.169  11.520 -0.5356  3.2007  1.0389
  180SLPC  H14B20534   0.691   2.171  11.505  0.1970  0.2462  0.2802
  180SLPC  H14C20535   0.604   2.317  11.489  0.2207 -0.2925  1.9775
  180SLPC   C1520536   0.566   2.019  11.311  0.0555  0.2338 -0.3439
  180SLPC  H15A20537   0.479   1.984  11.364  0.9836 -2.3764 -0.3768
  180SLPC  H15B20538   0.555   2.002  11.205 -2.4030  0.7026 -0.2224
  180SLPC  H15C20539   0.652   1.965  11.348 -0.2542  0.3138  0.5198
  180SLPC   C1220540   0.484   2.240  11.248 -0.1703 -0.1892 -0.0595
  180SLPC  H12A20541   0.503   2.345  11.261 -2.8263  0.2225  1.2785
  180SLPC  H12B20542   0.390   2.228  11.301 -0.1369  1.0391  0.3048
  180SLPC   C1120543   0.464   2.215  11.103  0.5969 -0.6019 -0.3187
  180SLPC  H11A20544   0.369   2.264  11.070  0.2897  0.6540  2.2200
  180SLPC  H11B20545   0.458   2.108  11.072 -0.8539 -0.2129 -1.5289
  180SLPC     P20546   0.571   2.413  10.980 -0.0901  0.0933  0.2382
  180SLPC   O1320547   0.563   2.502  11.101 -0.4396 -0.0705  0.2871
  180SLPC   O1420548   0.687   2.440  10.889 -0.1153 -0.4820 -0.0279
  180SLPC   O1220549   0.576   2.257  11.034 -0.1685 -0.3756  0.0139
  180SLPC   O1120550   0.438   2.416  10.895  0.2813 -0.0377 -0.2246
  180SLPC    C120551   0.391   2.333  10.794  0.3593  0.1920  0.0134
  180SLPC    HA20552   0.397   2.234  10.843  2.3567  0.6087  0.7071
  180SLPC    HB20553   0.285   2.357  10.772  0.2179 -0.2931  0.1438
  180SLPC    C220554   0.478   2.344  10.659 -0.3675 -0.6405  0.1437
  180SLPC    HS20555   0.583   2.337  10.694 -1.1529  0.0301  2.8829
  180SLPC   O2120556   0.456   2.474  10.604 -0.6416  0.7186 -0.2160
  180SLPC   C2120557   0.546   2.516  10.518  0.0333  1.1541  0.3135
  180SLPC   O2220558   0.649   2.458  10.481  0.0027 -0.4256 -0.4151
  180SLPC   C2220559   0.512   2.659  10.481  0.4089 -0.4796  1.1907
  180SLPC   H2R20560   0.401   2.667  10.482  0.2348 -1.1952 -2.1753
  180SLPC   H2S20561   0.557   2.725  10.558  1.3827  1.1191 -0.6737
  180SLPC    C320562   0.429   2.237  10.565  0.4309  0.7283 -0.1688
  180SLPC    HX20563   0.333   2.274  10.524  1.0653  2.5818 -0.0812
  180SLPC    HY20564   0.426   2.145  10.627  0.1137  0.7221 -0.1933
  180SLPC   O3120565   0.524   2.221  10.458  0.0789 -0.5107 -0.0269
  180SLPC   C3120566   0.486   2.211  10.330 -0.2043  0.5498 -0.0237
  180SLPC   O3220567   0.372   2.190  10.291 -0.2449  0.0196 -0.3516
  180SLPC   C3220568   0.611   2.216  10.241  0.3005 -0.8654  0.5696
  180SLPC   H2X20569   0.663   2.118  10.250  1.0145 -0.9709 -3.1522
  180SLPC   H2Y20570   0.673   2.301  10.275 -1.2117  1.0787 -1.2320
  180SLPC   C2320571   0.583   2.705  10.353  0.3791  0.0656  0.3508
  180SLPC   H3R20572   0.690   2.678  10.357  0.2789 -0.7497 -1.7042
  180SLPC   H3S20573   0.580   2.815  10.341  0.5109 -0.1439 -1.9725
  180SLPC   C2420574   0.534   2.630  10.221  0.0756 -0.4165 -0.2504
  180SLPC   H4R20575   0.524   2.522  10.243  0.6307 -0.6982 -1.2730
  180SLPC   H4S20576   0.614   2.645  10.145 -1.1113 -0.5238 -1.5588
  180SLPC   C2520577   0.396   2.683  10.181  0.4318 -0.2154  0.5773
  180SLPC   H5R20578   0.407   2.791  10.159  1.8086 -0.4457 -0.0462
  180SLPC   H5S20579   0.338   2.667  10.274 -0.2008  0.4253  0.3015
  180SLPC   C2620580   0.338   2.596  10.064 -1.1991 -0.0324 -0.2812
  180SLPC   H6R20581   0.232   2.623  10.044 -1.2842 -0.3666 -0.2912
  180SLPC   H6S20582   0.350   2.491  10.099  0.9942 -0.4519 -2.0265
  180SLPC   C2720583   0.425   2.608   9.931 -0.2282  0.3746 -0.3088
  180SLPC   H7R20584   0.531   2.577   9.948  0.3764  0.5323 -3.3434
  180SLPC   H7S20585   0.430   2.713   9.895 -0.7731  1.2053  1.8960
  180SLPC   C2820586   0.360   2.514   9.825 -0.8610 -0.1660 -0.9550
  180SLPC   H8R20587   0.330   2.421   9.878 -2.1022  0.5722 -0.3378
  180SLPC   H8S20588   0.446   2.482   9.762  0.9801  4.3320 -1.1252
  180SLPC   C2920589   0.243   2.569   9.747 -0.2125  0.5603 -0.1765
  180SLPC   H9R20590   0.172   2.620   9.814 -0.1962  1.0273 -0.5098
  180SLPC  C21020591   0.225   2.580   9.616 -0.3582 -0.3151 -0.6026
  180SLPC  H10R20592   0.127   2.620   9.584  0.4658 -0.6148 -3.9385
  180SLPC  C21120593   0.321   2.524   9.513  0.4760  0.0157  0.0199
  180SLPC  H11R20594   0.420   2.545   9.559  0.3290  0.3092  0.2066
  180SLPC  H11S20595   0.295   2.582   9.421 -1.0734  2.9617  2.1516
  180SLPC  C21220596   0.310   2.369   9.492 -0.1500 -1.0864 -0.2471
  180SLPC  H12R20597   0.292   2.312   9.584  0.3161 -1.4168 -0.3625
  180SLPC  C21320598   0.338   2.298   9.384 -0.6745 -0.1756  0.2976
  180SLPC  H13R20599   0.338   2.188   9.383  0.7905 -0.2033 -1.6072
  180SLPC  C21420600   0.369   2.366   9.253 -0.5260  0.0540 -1.1401
  180SLPC  H14R20601   0.465   2.324   9.216 -0.0439  0.7959 -0.7613
  180SLPC  H14S20602   0.373   2.477   9.248  2.4153  0.0248 -1.2588
  180SLPC  C21520603   0.281   2.329   9.139 -0.4696 -0.4840 -0.9605
  180SLPC  H15R20604   0.180   2.367   9.163 -0.3680 -1.1152  0.6046
  180SLPC  H15S20605   0.289   2.219   9.127  1.1921 -0.3852 -1.0483
  180SLPC  C21620606   0.328   2.402   9.010 -0.6195  0.4240 -0.6010
  180SLPC  H16R20607   0.419   2.347   8.978 -0.4607 -0.2896  1.0120
  180SLPC  H16S20608   0.347   2.509   9.035 -0.3197  0.4902 -1.0939
  180SLPC  C21720609   0.220   2.392   8.910  0.5087 -0.1370 -0.5040
  180SLPC  H17R20610   0.133   2.452   8.945  0.5832  1.2998 -2.6004
  180SLPC  H17S20611   0.186   2.286   8.899 -1.1171  0.2463  0.4419
  180SLPC  C21820612   0.253   2.435   8.772 -0.0902  0.1624 -0.2986
  180SLPC  H18R20613   0.330   2.363   8.736 -1.9416 -2.3984  0.6375
  180SLPC  H18S20614   0.301   2.536   8.772  0.5009 -0.1141 -0.1714
  180SLPC  H18T20615   0.174   2.434   8.694  0.1065  1.4207 -0.5390
  180SLPC   C3320616   0.580   2.258  10.096  0.6257  0.5480  0.0520
  180SLPC   H3X20617   0.576   2.368  10.085 -0.8282  0.5433  0.3272
  180SLPC   H3Y20618   0.489   2.206  10.060  0.5713 -0.5666  1.6672
  180SLPC   C3420619   0.696   2.232  10.003 -0.5593 -0.6998 -0.2589
  180SLPC   H4X20620   0.718   2.125   9.984 -1.6271 -0.7323 -1.5437
  180SLPC   H4Y20621   0.779   2.285  10.055 -1.3818  1.4512 -1.0045
  180SLPC   C3520622   0.681   2.293   9.865 -0.1076 -0.7204 -0.1188
  180SLPC   H5X20623   0.674   2.404   9.862 -2.7596 -0.8425 -2.9448
  180SLPC   H5Y20624   0.589   2.250   9.819 -1.2573  2.1023 -0.6514
  180SLPC   C3620625   0.787   2.237   9.770 -0.0226  0.1393 -0.2591
  180SLPC   H6X20626   0.790   2.126   9.766  0.6578  0.1527 -0.3102
  180SLPC   H6Y20627   0.888   2.262   9.810  0.3531 -0.9582 -0.4658
  180SLPC   C3720628   0.781   2.299   9.625  0.4509  0.4078 -0.2610
  180SLPC   H7X20629   0.799   2.409   9.631  0.6444  0.4035 -0.7266
  180SLPC   H7Y20630   0.682   2.278   9.580  0.1829 -2.5442  1.4662
  180SLPC   C3820631   0.896   2.251   9.529  0.6784  0.3269 -0.1548
  180SLPC   H8X20632   0.872   2.146   9.504  1.8853 -0.2018  0.8258
  180SLPC   H8Y20633   0.985   2.270   9.593  0.3942 -0.3116  0.4496
  180SLPC   C3920634   0.890   2.321   9.395 -0.6431  0.4081  0.3594
  180SLPC   H9X20635   0.983   2.294   9.340 -1.8231 -1.4087 -0.8420
  180SLPC   H9Y20636   0.900   2.432   9.400  1.2480  0.6340 -3.9111
  180SLPC  C31020637   0.762   2.300   9.321  0.1792 -0.3738  0.3316
  180SLPC  H10X20638   0.685   2.363   9.370  1.4251  2.6943 -1.3726
  180SLPC  H10Y20639   0.748   2.189   9.323  0.7293 -0.4507  2.3094
  180SLPC  C31120640   0.777   2.347   9.175  0.1710 -0.1595 -0.2494
  180SLPC  H11X20641   0.685   2.310   9.125 -1.2671  0.8590  1.5169
  180SLPC  H11Y20642   0.869   2.303   9.131  0.7571 -0.9709  1.7022
  180SLPC  C31220643   0.776   2.499   9.157  0.4917 -0.0757  0.3605
  180SLPC  H12X20644   0.877   2.533   9.128  0.2273 -0.5703 -1.2337
  180SLPC  H12Y20645   0.739   2.542   9.253 -0.7186  1.9345 -0.9288
  180SLPC  C31320646   0.673   2.554   9.054 -0.3746  0.0072  0.5501
  180SLPC  H13X20647   0.684   2.662   9.080  4.6958  0.1012 -1.0042
  180SLPC  H13Y20648   0.576   2.520   9.098  0.2122  1.5832  3.3371
  180SLPC  C31420649   0.708   2.521   8.908  0.1547 -0.3935 -0.3282
  180SLPC  H14X20650   0.665   2.419   8.900 -0.6733 -0.2384  1.5758
  180SLPC  H14Y20651   0.817   2.520   8.887 -0.0500 -0.3925 -1.4427
  180SLPC  C31520652   0.640   2.610   8.800 -0.3442  0.3470 -0.4694
  180SLPC  H15X20653   0.691   2.709   8.809 -0.6545  0.3579  1.6431
  180SLPC  H15Y20654   0.536   2.626   8.836 -0.3050  0.5123 -0.4260
  180SLPC  C31620655   0.650   2.546   8.661  0.5620 -0.1619  0.4564
  180SLPC  H16X20656   0.609   2.443   8.671 -0.8885  0.3259 -0.1901
  180SLPC  H16Y20657   0.755   2.545   8.624  0.4171  0.8938 -0.0013
  180SLPC  C31720658   0.560   2.624   8.561 -0.0705 -0.1611 -0.3497
  180SLPC  H17X20659   0.463   2.640   8.611  1.6191  2.5871  2.4150
  180SLPC  H17Y20660   0.549   2.564   8.468 -0.3254  0.4637 -0.7340
  180SLPC  C31820661   0.617   2.763   8.519  0.0372 -0.0920  0.1859
  180SLPC  H18X20662   0.632   2.828   8.608 -0.5247  1.2949 -0.6893
  180SLPC  H18Y20663   0.548   2.827   8.460 -0.4049 -0.6644  0.0770
  180SLPC  H18Z20664   0.716   2.748   8.471  0.7996 -3.4264  2.4865
  181SLPC     N20665   2.544   2.321  11.065 -0.1110 -0.6484 -0.0353
  181SLPC   C1320666   2.641   2.264  11.168 -0.1166 -0.7470 -0.4838
  181SLPC  H13A20667   2.595   2.201  11.243 -0.2795 -2.0702 -1.6289
  181SLPC  H13B20668   2.708   2.193  11.120 -1.2581 -0.1596 -3.1633
  181SLPC  H13C20669   2.707   2.346  11.192  0.3712  0.3869 -4.7911
  181SLPC   C1420670   2.448   2.415  11.132 -0.1107  0.0473  0.4864
  181SLPC  H14A20671   2.419   2.360  11.221  1.9115 -1.7560  0.1233
  181SLPC  H14B20672   2.505   2.497  11.172  1.0539 -1.4233  2.0016
  181SLPC  H14C20673   2.367   2.452  11.071  0.6182  0.0206 -0.5185
  181SLPC   C1520674   2.472   2.213  10.992  0.1459 -0.1001  0.4787
  181SLPC  H15A20675   2.407   2.260  10.920  1.3444  0.8384 -0.0386
  181SLPC  H15B20676   2.535   2.143  10.938 -0.5001  1.2655 -2.2142
  181SLPC  H15C20677   2.406   2.167  11.064  1.2815  0.0517  1.6722
  181SLPC   C1220678   2.633   2.402  10.974 -0.0555 -0.1523  0.0050
  181SLPC  H12A20679   2.678   2.480  11.033  0.8682  0.5082 -1.4873
  181SLPC  H12B20680   2.558   2.453  10.914 -1.0156  0.1419  1.4183
  181SLPC   C1120681   2.738   2.344  10.877  0.5156  0.1615 -0.3356
  181SLPC  H11A20682   2.761   2.421  10.800  0.1839  0.1481 -0.4528
  181SLPC  H11B20683   2.692   2.260  10.820  3.6917 -1.4011 -0.7878
  181SLPC     P20684   3.001   2.359  10.949  0.4855  0.1910  0.2085
  181SLPC   O1320685   3.016   2.468  10.850  0.4492 -0.0909  0.2766
  181SLPC   O1420686   3.043   2.394  11.086 -0.1289 -0.3880  0.0627
  181SLPC   O1220687   2.854   2.294  10.948  0.2579 -0.4029  0.4136
  181SLPC   O1120688   3.078   2.229  10.912  0.0249 -0.3376 -0.1813
  181SLPC    C120689   3.214   2.206  10.951 -0.1491 -0.0278  0.0637
  181SLPC    HA20690   3.231   2.239  11.056 -1.9379  1.1280  0.0354
  181SLPC    HB20691   3.232   2.097  10.945 -0.9682 -0.0905 -2.1376
  181SLPC    C220692   3.313   2.276  10.856 -0.3550  0.0472  0.8995
  181SLPC    HS20693   3.313   2.384  10.881  2.3580  0.3631 -0.1733
  181SLPC   O2120694   3.268   2.244  10.717  0.3458 -0.0645 -0.0742
  181SLPC   C2120695   3.279   2.346  10.636 -0.3224  0.4038 -0.7634
  181SLPC   O2220696   3.322   2.457  10.659 -0.0183  0.2164  0.0756
  181SLPC   C2220697   3.220   2.309  10.501  0.6238  0.1129 -0.9939
  181SLPC   H2R20698   3.279   2.220  10.472  0.8611 -0.1103  0.1218
  181SLPC   H2S20699   3.118   2.274  10.526  1.2555 -2.2060 -1.3891
  181SLPC    C320700   3.457   2.228  10.877  0.2411  0.4685 -0.7077
  181SLPC    HX20701   3.469   2.239  10.987  0.0467 -0.2573 -0.6094
  181SLPC    HY20702   3.536   2.288  10.827 -0.9848  2.6076 -0.1914
  181SLPC   O3120703   3.467   2.086  10.847 -0.3354 -0.1439 -0.3780
  181SLPC   C3120704   3.527   2.055  10.732 -0.9618  0.1965  0.2540
  181SLPC   O3220705   3.593   2.136  10.671 -0.3486  0.4082 -0.5092
  181SLPC   C3220706   3.518   1.905  10.708  0.5775 -0.2631  0.6780
  181SLPC   H2X20707   3.435   1.852  10.759  0.0038 -0.4368 -0.3935
  181SLPC   H2Y20708   3.609   1.852  10.743  1.2050  0.6036  0.4018
  181SLPC   C2320709   3.221   2.417  10.395 -0.0545 -0.9045 -0.4052
  181SLPC   H3R20710   3.324   2.457  10.390 -0.3310 -0.2457 -1.1242
  181SLPC   H3S20711   3.153   2.500  10.425  0.6184  0.4412 -2.4124
  181SLPC   C2420712   3.179   2.374  10.253 -0.2032  0.5058 -0.3107
  181SLPC   H4R20713   3.078   2.328  10.255 -0.3388  0.6912 -1.6061
  181SLPC   H4S20714   3.258   2.304  10.218  0.4400  1.7053 -1.3676
  181SLPC   C2520715   3.177   2.501  10.164 -0.7524 -0.3339  1.0090
  181SLPC   H5R20716   3.269   2.564  10.175 -0.5826 -0.5866  1.0508
  181SLPC   H5S20717   3.089   2.560  10.197 -1.4048 -0.3864 -0.5559
  181SLPC   C2620718   3.165   2.463  10.015 -0.3495  0.2883  0.0400
  181SLPC   H6R20719   3.073   2.402  10.010  0.1871 -0.4781 -3.9143
  181SLPC   H6S20720   3.243   2.386   9.997 -0.1520  0.9415 -2.1056
  181SLPC   C2720721   3.154   2.581   9.915 -0.2774 -0.5879 -0.0804
  181SLPC   H7R20722   3.254   2.628   9.910 -0.2121 -0.4672  1.7016
  181SLPC   H7S20723   3.076   2.648   9.956 -1.8177 -0.9382 -2.2479
  181SLPC   C2820724   3.098   2.527   9.782 -0.2822  0.3216  0.5362
  181SLPC   H8R20725   3.033   2.439   9.803 -0.8379  0.3050 -1.1165
  181SLPC   H8S20726   3.193   2.490   9.739 -1.2613 -0.3514 -1.1234
  181SLPC   C2920727   3.028   2.619   9.678  0.0116  0.1147  0.2141
  181SLPC   H9R20728   3.011   2.719   9.721 -1.0332 -0.2435  0.6713
  181SLPC  C21020729   2.985   2.591   9.551 -0.1945 -0.4371  0.7419
  181SLPC  H10R20730   2.940   2.669   9.488 -0.8149  1.5786  3.4887
  181SLPC  C21120731   3.001   2.455   9.485 -0.3373  0.0934 -0.5002
  181SLPC  H11R20732   3.072   2.389   9.540  0.1671 -0.8992 -2.2748
  181SLPC  H11S20733   3.050   2.466   9.386  0.0172 -1.3829 -0.5047
  181SLPC  C21220734   2.867   2.391   9.467  0.0429  0.1535  0.1459
  181SLPC  H12R20735   2.798   2.387   9.553 -0.2587 -1.9039 -0.1512
  181SLPC  C21320736   2.819   2.322   9.359 -0.5986 -0.1182 -0.7813
  181SLPC  H13R20737   2.714   2.290   9.361 -0.0461 -2.0916 -1.1466
  181SLPC  C21420738   2.887   2.299   9.224  0.0472  0.4240  0.0379
  181SLPC  H14R20739   2.926   2.195   9.225  0.3087  0.5068  1.4001
  181SLPC  H14S20740   2.965   2.375   9.200  0.4058 -0.0628 -0.3442
  181SLPC  C21520741   2.783   2.299   9.112  0.4378 -0.1885 -0.5770
  181SLPC  H15R20742   2.711   2.383   9.120  1.2387  0.5023 -0.5687
  181SLPC  H15S20743   2.711   2.216   9.128 -1.4961  1.5247 -0.0252
  181SLPC  C21620744   2.831   2.283   8.969  0.1272  0.9029  0.3554
  181SLPC  H16R20745   2.895   2.197   8.942 -0.0502  1.3647 -1.6658
  181SLPC  H16S20746   2.889   2.375   8.946  0.8650  0.4486  0.3907
  181SLPC  C21720747   2.718   2.278   8.862  0.5466 -0.3515 -0.2749
  181SLPC  H17R20748   2.625   2.287   8.922  2.1258  0.0828  2.2433
  181SLPC  H17S20749   2.719   2.176   8.818 -0.4964 -0.3658 -0.3017
  181SLPC  C21820750   2.732   2.389   8.760  0.0441  0.0129 -0.2122
  181SLPC  H18R20751   2.666   2.385   8.671 -0.0269 -0.1363 -0.1528
  181SLPC  H18S20752   2.839   2.390   8.728  0.5892 -0.0704  1.4972
  181SLPC  H18T20753   2.719   2.487   8.812 -0.8267 -0.7142  0.9948
  181SLPC   C3320754   3.495   1.879  10.556  0.1558 -0.9454  0.1184
  181SLPC   H3X20755   3.574   1.926  10.494 -1.4602  2.3300  0.3235
  181SLPC   H3Y20756   3.405   1.933  10.522 -1.3762 -2.6954  1.2059
  181SLPC   C3420757   3.472   1.733  10.519 -0.3947  0.0222  0.6599
  181SLPC   H4X20758   3.381   1.690  10.565 -0.9515  0.6101  0.1301
  181SLPC   H4Y20759   3.563   1.681  10.554  0.0013  1.6635  2.2863
  181SLPC   C3520760   3.473   1.725  10.368  0.6676  0.6180  0.1419
  181SLPC   H5X20761   3.564   1.776  10.329  0.2385  1.3165  0.0280
  181SLPC   H5Y20762   3.388   1.791  10.341 -2.7552 -1.2067  5.0246
  181SLPC   C3620763   3.451   1.588  10.304 -0.5999 -0.1888  0.3682
  181SLPC   H6X20764   3.342   1.566  10.304 -1.0932  1.9231 -1.5876
  181SLPC   H6Y20765   3.502   1.513  10.368 -1.7277 -1.6904 -0.4034
  181SLPC   C3720766   3.518   1.572  10.169 -0.6787  0.5743 -0.2812
  181SLPC   H7X20767   3.527   1.462  10.150  0.0209  0.6147 -0.2234
  181SLPC   H7Y20768   3.614   1.628  10.170 -0.7147  0.7038  2.0108
  181SLPC   C3820769   3.417   1.620  10.062 -0.0472 -0.6055 -0.0652
  181SLPC   H8X20770   3.363   1.709  10.100 -0.1236 -0.4131 -0.6131
  181SLPC   H8Y20771   3.344   1.536  10.056  1.2629 -1.7504 -0.3650
  181SLPC   C3920772   3.478   1.640   9.925  0.2156  0.2232 -0.1531
  181SLPC   H9X20773   3.581   1.598   9.921 -0.2792 -0.9842 -0.5465
  181SLPC   H9Y20774   3.482   1.750   9.909 -1.0494  0.1626 -1.0136
  181SLPC  C31020775   3.403   1.568   9.807 -0.4844  0.5566 -1.1561
  181SLPC  H10X20776   3.293   1.580   9.806 -0.3819  1.8016 -2.8122
  181SLPC  H10Y20777   3.424   1.461   9.829 -0.5282  0.8481  0.4626
  181SLPC  C31120778   3.462   1.619   9.680 -0.4287 -0.6687  0.1791
  181SLPC  H11X20779   3.572   1.608   9.692 -0.3136  0.3763  0.1669
  181SLPC  H11Y20780   3.457   1.728   9.659 -0.7122 -0.2805  2.0836
  181SLPC  C31220781   3.418   1.547   9.553 -0.3661  0.3494  0.2589
  181SLPC  H12X20782   3.307   1.551   9.552 -0.5010 -1.8877 -1.2127
  181SLPC  H12Y20783   3.432   1.437   9.564 -0.7583  0.2049 -0.6102
  181SLPC  C31320784   3.490   1.600   9.429  0.2429  0.5139 -0.3856
  181SLPC  H13X20785   3.599   1.578   9.431  0.4279  1.4775  0.7307
  181SLPC  H13Y20786   3.486   1.710   9.418 -2.9137  0.5992  0.4878
  181SLPC  C31420787   3.431   1.539   9.299 -0.4756 -0.4694 -0.3565
  181SLPC  H14X20788   3.321   1.549   9.290 -0.3746  2.4588  0.6984
  181SLPC  H14Y20789   3.459   1.432   9.291 -1.0835 -0.7519  1.0204
  181SLPC  C31520790   3.489   1.615   9.177 -0.4764  0.2789  0.1457
  181SLPC  H15X20791   3.594   1.591   9.151 -0.1428  3.1376 -1.5172
  181SLPC  H15Y20792   3.477   1.723   9.200  0.2370  0.0254  1.9262
  181SLPC  C31620793   3.410   1.572   9.049  0.0442  0.6135 -0.6171
  181SLPC  H16X20794   3.305   1.600   9.074 -0.5361  1.2322 -3.4641
  181SLPC  H16Y20795   3.425   1.462   9.038 -1.5930  0.3244 -0.3132
  181SLPC  C31720796   3.448   1.650   8.925 -0.1759 -0.8777 -0.9714
  181SLPC  H17X20797   3.385   1.616   8.840 -0.1444 -2.0738 -0.5276
  181SLPC  H17Y20798   3.548   1.617   8.889  0.2227 -0.5171 -0.2101
  181SLPC  C31820799   3.441   1.802   8.943 -0.4491  0.7792 -0.9546
  181SLPC  H18X20800   3.458   1.854   8.846  0.3816  1.8208 -0.2771
  181SLPC  H18Y20801   3.507   1.846   9.020  0.0856  1.2331 -1.6571
  181SLPC  H18Z20802   3.342   1.848   8.965 -0.2187  1.4922 -1.3909
  182SLPC     N20803   0.776   5.126  10.804 -0.7370  0.0805 -0.5079
  182SLPC   C1320804   0.676   5.026  10.840 -0.6462 -0.1812 -0.0835
  182SLPC  H13A20805   0.620   5.003  10.750  1.4622 -1.1389 -1.2363
  182SLPC  H13B20806   0.717   4.929  10.863  0.3702 -0.2693 -2.0781
  182SLPC  H13C20807   0.603   5.049  10.916 -0.1409 -1.6136  0.8839
  182SLPC   C1420808   0.868   5.166  10.916  0.1300  0.6428  0.1077
  182SLPC  H14A20809   0.922   5.080  10.953 -0.5955  0.2664  0.3014
  182SLPC  H14B20810   0.937   5.236  10.871 -0.2126 -0.1941 -1.8647
  182SLPC  H14C20811   0.815   5.208  11.000  0.0793 -0.4036  0.6133
  182SLPC   C1520812   0.715   5.250  10.757 -0.3632 -0.6297 -0.6417
  182SLPC  H15A20813   0.638   5.286  10.824 -0.5144 -1.6876 -0.2402
  182SLPC  H15B20814   0.784   5.325  10.723 -0.2701 -0.1370  0.5975
  182SLPC  H15C20815   0.655   5.221  10.671 -0.2416 -0.5519 -0.7537
  182SLPC   C1220816   0.863   5.076  10.686  0.7225  0.2884 -1.5051
  182SLPC  H12A20817   0.926   5.157  10.653  0.3901  0.8503 -0.7744
  182SLPC  H12B20818   0.799   5.054  10.602  0.1554 -1.8833 -0.5760
  182SLPC   C1120819   0.958   4.952  10.726 -0.5015  0.0008  0.0307
  182SLPC  H11A20820   1.009   4.971  10.823  1.2971 -1.5643 -0.5598
  182SLPC  H11B20821   1.025   4.943  10.638 -0.5192 -1.6603  0.1666
  182SLPC     P20822   0.931   4.701  10.695  0.5516 -0.2721  0.1050
  182SLPC   O1320823   1.069   4.675  10.738 -0.4531  0.3956  0.2397
  182SLPC   O1420824   0.832   4.601  10.727 -0.0128  0.1033  0.1820
  182SLPC   O1220825   0.882   4.836  10.754 -0.0267 -0.3777  0.4110
  182SLPC   O1120826   0.928   4.732  10.539 -0.0896  0.0533  0.1252
  182SLPC    C120827   0.811   4.756  10.457 -0.0178  0.6322 -0.4772
  182SLPC    HA20828   0.717   4.736  10.513  0.5424  0.5235  0.4529
  182SLPC    HB20829   0.804   4.865  10.435 -0.6201  0.8040  0.4970
  182SLPC    C220830   0.819   4.668  10.333  0.2148 -0.3593 -0.1331
  182SLPC    HS20831   0.918   4.686  10.287 -0.1377  2.6847  0.0797
  182SLPC   O2120832   0.714   4.709  10.250 -0.1442 -0.4335  0.1831
  182SLPC   C2120833   0.745   4.810  10.172 -0.9348 -0.4666 -0.0845
  182SLPC   O2220834   0.852   4.868  10.166 -0.2113 -0.2950  0.4322
  182SLPC   C2220835   0.628   4.839  10.081  0.3358 -0.8161  0.0571
  182SLPC   H2R20836   0.596   4.739  10.046  0.5532 -0.6660 -0.5772
  182SLPC   H2S20837   0.543   4.889  10.132 -0.2296  0.1654 -1.7601
  182SLPC    C320838   0.808   4.514  10.369 -0.4619 -0.8409 -0.0690
  182SLPC    HX20839   0.715   4.503  10.428 -0.2706 -0.7800  0.2464
  182SLPC    HY20840   0.886   4.492  10.445 -2.1511  0.3581  2.1548
  182SLPC   O3120841   0.827   4.429  10.251  0.0224  0.3217 -0.2362
  182SLPC   C3120842   0.726   4.419  10.172  0.2758 -0.0205  0.5956
  182SLPC   O3220843   0.609   4.432  10.204  0.2077 -0.4252 -0.4621
  182SLPC   C3220844   0.772   4.388  10.029  0.4086 -0.4084 -0.6077
  182SLPC   H2X20845   0.837   4.297  10.027  0.4721 -0.3573 -1.0860
  182SLPC   H2Y20846   0.826   4.476   9.988  0.7126 -0.0351  0.5493
  182SLPC   C2320847   0.671   4.913   9.951  0.1404  0.0329  0.3711
  182SLPC   H3R20848   0.741   4.994   9.980  1.4488 -1.4671  1.6059
  182SLPC   H3S20849   0.584   4.962   9.901  0.8088  0.2264 -0.6445
  182SLPC   C2420850   0.756   4.839   9.848  0.6906 -0.4300 -0.0195
  182SLPC   H4R20851   0.713   4.738   9.831  0.3967 -0.1420 -1.0669
  182SLPC   H4S20852   0.859   4.828   9.888  0.2948  0.9242  1.4663
  182SLPC   C2520853   0.764   4.898   9.703  0.2768 -0.0957  0.4144
  182SLPC   H5R20854   0.809   4.999   9.698 -0.4974  0.2002 -1.0410
  182SLPC   H5S20855   0.658   4.906   9.670  0.8436  2.0770 -1.1094
  182SLPC   C2620856   0.834   4.806   9.600  0.4723  0.7435  0.7044
  182SLPC   H6R20857   0.771   4.716   9.588  1.4757  0.1092  0.0973
  182SLPC   H6S20858   0.935   4.778   9.637 -0.1042 -2.2657  0.2579
  182SLPC   C2720859   0.846   4.858   9.457  0.0203 -0.0336  0.2420
  182SLPC   H7R20860   0.889   4.960   9.467  0.2693  0.1512 -2.1610
  182SLPC   H7S20861   0.748   4.862   9.406 -0.0558 -1.0538  0.2826
  182SLPC   C2820862   0.946   4.781   9.370 -0.4074  0.1130 -0.1666
  182SLPC   H8R20863   1.046   4.780   9.420 -0.2151  0.2565 -0.5475
  182SLPC   H8S20864   0.949   4.836   9.274  1.9315  0.4009 -0.0051
  182SLPC   C2920865   0.904   4.639   9.345  0.6860  0.4042  0.5021
  182SLPC   H9R20866   0.912   4.574   9.433 -1.3208  2.1050  2.0610
  182SLPC  C21020867   0.845   4.586   9.236 -0.6677 -0.4220  0.1622
  182SLPC  H10R20868   0.823   4.478   9.236  3.4300 -1.4380 -1.0895
  182SLPC  C21120869   0.810   4.655   9.108  0.1310  0.3759 -0.0927
  182SLPC  H11R20870   0.858   4.754   9.093  1.5670 -0.4373 -1.1544
  182SLPC  H11S20871   0.700   4.663   9.108 -0.0502 -1.5474  0.9282
  182SLPC  C21220872   0.856   4.563   8.997 -0.5505 -0.3025  0.2735
  182SLPC  H12R20873   0.891   4.464   9.029 -1.3487 -0.5675  0.3393
  182SLPC  C21320874   0.834   4.590   8.864 -0.2234 -1.0660  0.1844
  182SLPC  H13R20875   0.882   4.528   8.788  0.8654  1.5072 -1.3584
  182SLPC  C21420876   0.762   4.711   8.801 -0.1591  0.4070 -0.2625
  182SLPC  H14R20877   0.713   4.763   8.886 -0.4658 -1.5161  0.7807
  182SLPC  H14S20878   0.687   4.680   8.725  0.5698  0.1160 -0.8764
  182SLPC  C21520879   0.859   4.808   8.731 -0.4491 -0.3085  0.0990
  182SLPC  H15R20880   0.945   4.831   8.799  0.2912 -1.1900 -0.5025
  182SLPC  H15S20881   0.804   4.902   8.709  1.0978  0.1116 -2.5029
  182SLPC  C21620882   0.923   4.750   8.602 -0.2587  0.1531  0.0465
  182SLPC  H16R20883   0.985   4.661   8.626  0.3763  0.3487 -0.8318
  182SLPC  H16S20884   0.990   4.830   8.564  0.7205 -1.5980 -2.1360
  182SLPC  C21720885   0.821   4.715   8.496  0.6237 -0.7635  0.0726
  182SLPC  H17R20886   0.755   4.801   8.472  1.7587  0.3604  0.8405
  182SLPC  H17S20887   0.758   4.636   8.543  0.0798 -0.4592 -0.1383
  182SLPC  C21820888   0.875   4.643   8.373 -0.2781 -0.7852  0.1595
  182SLPC  H18R20889   0.803   4.645   8.288  0.1226  2.6153 -0.2103
  182SLPC  H18S20890   0.930   4.550   8.398  0.7966  0.0307  0.9082
  182SLPC  H18T20891   0.960   4.697   8.327 -0.0750 -0.6930  0.6482
  182SLPC   C3320892   0.652   4.368   9.933 -0.5778 -0.0984 -0.0966
  182SLPC   H3X20893   0.587   4.458   9.932  0.1974  0.4641 -1.0835
  182SLPC   H3Y20894   0.595   4.276   9.961  2.3001 -1.8362  0.4700
  182SLPC   C3420895   0.717   4.361   9.796 -0.4556 -0.1827 -0.0067
  182SLPC   H4X20896   0.780   4.273   9.773  1.4371  0.4989  2.1160
  182SLPC   H4Y20897   0.779   4.454   9.796 -0.3768 -0.0801  3.4118
  182SLPC   C3520898   0.621   4.386   9.679 -0.2951 -0.4480 -0.2678
  182SLPC   H5X20899   0.601   4.496   9.675  2.2750  0.1701  1.0876
  182SLPC   H5Y20900   0.522   4.338   9.692 -2.1244  2.6085 -1.8309
  182SLPC   C3620901   0.685   4.329   9.553 -0.2526 -0.2376 -0.1252
  182SLPC   H6X20902   0.703   4.220   9.566  0.1866 -0.2159 -0.5073
  182SLPC   H6Y20903   0.790   4.368   9.550 -0.8625  1.6078  0.9165
  182SLPC   C3720904   0.607   4.347   9.428  0.3319  0.0751  0.2740
  182SLPC   H7X20905   0.599   4.455   9.403 -0.3556  0.0983  0.5601
  182SLPC   H7Y20906   0.502   4.318   9.451  0.2261  1.0424  1.1223
  182SLPC   C3820907   0.658   4.268   9.307 -0.2640  0.2334  0.5958
  182SLPC   H8X20908   0.627   4.161   9.313 -0.4708  0.2847  0.4685
  182SLPC   H8Y20909   0.768   4.276   9.300 -0.2591 -0.1408  0.1750
  182SLPC   C3920910   0.600   4.320   9.173  0.8826  0.2216 -0.0133
  182SLPC   H9X20911   0.609   4.431   9.172 -0.4527  0.3379 -0.0546
  182SLPC   H9Y20912   0.492   4.295   9.176  1.0548 -0.5213  0.0599
  182SLPC  C31020913   0.662   4.268   9.043  0.0051  0.7802  0.0332
  182SLPC  H10X20914   0.635   4.160   9.041  0.2792  0.7247 -0.7768
  182SLPC  H10Y20915   0.773   4.264   9.041  0.0324  0.1291  1.3025
  182SLPC  C31120916   0.610   4.333   8.918 -0.6647  1.4336  0.3685
  182SLPC  H11X20917   0.605   4.444   8.926  1.6428  1.6243 -0.1486
  182SLPC  H11Y20918   0.501   4.310   8.908  0.2263 -2.6452 -3.4759
  182SLPC  C31220919   0.656   4.265   8.786  0.3988 -0.9135 -0.1877
  182SLPC  H12X20920   0.614   4.163   8.773  0.6482 -0.8383 -1.8983
  182SLPC  H12Y20921   0.767   4.259   8.795  0.3824  0.6061  1.4359
  182SLPC  C31320922   0.626   4.346   8.655  0.1522  0.6996 -0.6854
  182SLPC  H13X20923   0.649   4.451   8.682  0.4364  0.3162  0.6448
  182SLPC  H13Y20924   0.515   4.348   8.641 -0.0079  0.1402  0.3776
  182SLPC  C31420925   0.687   4.291   8.528  0.2870 -0.6467  0.2658
  182SLPC  H14X20926   0.659   4.184   8.517 -0.1272 -0.4461 -0.7484
  182SLPC  H14Y20927   0.796   4.302   8.547 -0.1376  0.5966  2.3544
  182SLPC  C31520928   0.646   4.363   8.399  0.0162 -0.2380  0.5555
  182SLPC  H15X20929   0.675   4.470   8.399  2.1623 -0.7207  2.3399
  182SLPC  H15Y20930   0.536   4.358   8.397 -0.1156  1.7720  1.1105
  182SLPC  C31620931   0.704   4.295   8.272 -0.1651 -0.5455  0.1853
  182SLPC  H16X20932   0.690   4.185   8.274  1.9153 -0.8494  0.0544
  182SLPC  H16Y20933   0.813   4.313   8.272 -0.4110  1.1426 -1.1390
  182SLPC  C31720934   0.639   4.346   8.148  0.2434 -0.5462  0.2981
  182SLPC  H17X20935   0.650   4.456   8.134 -1.4637 -0.4242 -0.3316
  182SLPC  H17Y20936   0.532   4.319   8.160 -0.0515  0.2070 -0.5208
  182SLPC  C31820937   0.689   4.283   8.021 -0.2321 -0.4084  0.1687
  182SLPC  H18X20938   0.670   4.173   8.022 -0.6490 -0.3474 -0.4028
  182SLPC  H18Y20939   0.798   4.302   8.012 -0.5464  1.7465  0.4330
  182SLPC  H18Z20940   0.646   4.324   7.927  1.3258  0.5382 -0.1616
  183SLPC     N20941   3.631   3.932  11.092  1.0675 -0.5834 -0.0089
  183SLPC   C1320942   3.518   3.856  11.154  0.8623  0.0073 -0.7943
  183SLPC  H13A20943   3.539   3.752  11.135  0.4508 -0.7415  2.2560
  183SLPC  H13B20944   3.523   3.875  11.261  1.5412  0.3678 -0.8868
  183SLPC  H13C20945   3.416   3.873  11.120 -0.5573 -1.9307  2.0312
  183SLPC   C1420946   3.755   3.875  11.150  0.0518  0.5068  0.3027
  183SLPC  H14A20947   3.766   3.767  11.152 -0.7392  0.3974  2.9697
  183SLPC  H14B20948   3.836   3.929  11.104 -1.5254  3.1469  0.3950
  183SLPC  H14C20949   3.757   3.895  11.256  0.6145 -0.0762  0.4097
  183SLPC   C1520950   3.629   4.082  11.129  0.0167  0.4004 -0.3225
  183SLPC  H15A20951   3.714   4.120  11.074 -1.2940  1.5507 -1.6264
  183SLPC  H15B20952   3.543   4.137  11.097  0.0113  2.5681  2.8925
  183SLPC  H15C20953   3.646   4.100  11.234 -0.2705 -2.3384  0.2837
  183SLPC   C1220954   3.636   3.917  10.937  0.4435  0.0648  0.2191
  183SLPC  H12A20955   3.545   3.961  10.901  1.3323  3.4228  1.7224
  183SLPC  H12B20956   3.643   3.814  10.905 -0.1009 -0.4965  1.7937
  183SLPC   C1120957   3.749   3.994  10.865 -0.5429  0.5124  0.3836
  183SLPC  H11A20958   3.751   4.098  10.902 -2.1499  0.8601 -0.4410
  183SLPC  H11B20959   3.743   4.013  10.756  0.0555 -0.5704  0.1368
  183SLPC     P20960   3.922   3.789  10.838  0.2031  0.0056 -0.1929
  183SLPC   O1320961   4.057   3.755  10.892 -0.3657  0.4524  0.0973
  183SLPC   O1420962   3.811   3.696  10.878 -0.6723  0.3404  0.2305
  183SLPC   O1220963   3.882   3.934  10.889 -0.0408 -0.5764 -0.8990
  183SLPC   O1120964   3.939   3.806  10.684 -0.0158  0.0689  0.5705
  183SLPC    C120965   4.012   3.913  10.628 -0.6990 -0.2062 -0.0058
  183SLPC    HA20966   3.952   4.006  10.632  1.0455  1.1351 -2.4637
  183SLPC    HB20967   4.106   3.930  10.684  0.1149 -3.9305  0.0443
  183SLPC    C220968   4.047   3.898  10.482 -0.8455  0.3106  0.2947
  183SLPC    HS20969   4.080   3.995  10.438  3.1780 -1.3039 -0.7797
  183SLPC   O2120970   3.952   3.829  10.402 -0.1648 -0.0030 -0.0565
  183SLPC   C2120971   3.852   3.908  10.368 -0.0783 -0.3435  0.9978
  183SLPC   O2220972   3.841   4.023  10.404 -0.0522  0.0427 -0.2479
  183SLPC   C2220973   3.739   3.828  10.289 -1.0501 -0.2780 -0.6803
  183SLPC   H2R20974   3.790   3.736  10.255  1.0549  0.3024  0.6837
  183SLPC   H2S20975   3.666   3.806  10.369 -0.5895 -0.2436 -0.2451
  183SLPC    C320976   4.185   3.808  10.473  0.3335 -0.3933  0.2495
  183SLPC    HX20977   4.165   3.733  10.552 -0.6189  0.5181  0.8981
  183SLPC    HY20978   4.268   3.870  10.513 -1.8905  2.1558  1.2379
  183SLPC   O3120979   4.206   3.763  10.335  0.1696 -0.0366 -0.6038
  183SLPC   C3120980   4.215   3.631  10.323  0.4302  0.3609 -0.3752
  183SLPC   O3220981   4.203   3.550  10.409  0.3090 -0.1281  0.2872
  183SLPC   C3220982   4.234   3.605  10.174  0.3078  0.2318 -0.9823
  183SLPC   H2X20983   4.138   3.627  10.123  0.4101  2.0791 -0.4568
  183SLPC   H2Y20984   4.239   3.495  10.158 -1.1664 -0.1153  0.6431
  183SLPC   C2320985   3.673   3.903  10.174  0.3714  0.6092  0.0026
  183SLPC   H3R20986   3.659   4.012  10.193 -1.5846  0.3169  0.4939
  183SLPC   H3S20987   3.571   3.862  10.157  1.2137 -0.9269 -1.6622
  183SLPC   C2420988   3.747   3.888  10.038 -0.4430 -0.0739  0.1891
  183SLPC   H4R20989   3.756   3.780  10.016  1.2143  0.1081 -0.2093
  183SLPC   H4S20990   3.854   3.920  10.045 -0.6381  0.2124  3.5718
  183SLPC   C2520991   3.674   3.951   9.920  0.0417  0.1395  0.2356
  183SLPC   H5R20992   3.704   4.058   9.917 -0.9088  0.4193  0.3094
  183SLPC   H5S20993   3.564   3.932   9.922 -0.0611  0.7910  0.8340
  183SLPC   C2620994   3.706   3.888   9.787  0.3796 -0.0010  0.4203
  183SLPC   H6R20995   3.817   3.880   9.783  0.2672 -2.4578  0.3099
  183SLPC   H6S20996   3.680   3.954   9.702  0.1794 -1.8154 -1.0040
  183SLPC   C2720997   3.645   3.754   9.766  0.3275  0.1600  0.0565
  183SLPC   H7R20998   3.534   3.757   9.766  0.2489 -1.4963 -0.7015
  183SLPC   H7S20999   3.673   3.688   9.851  0.6928  0.2521  0.0111
  183SLPC   C2821000   3.692   3.682   9.642 -0.1519 -0.2470  0.1062
  183SLPC   H8R21001   3.617   3.601   9.638 -1.1059  0.6534 -1.0072
  183SLPC   H8S21002   3.794   3.640   9.655 -0.1787  0.0847  1.5658
  183SLPC   C2921003   3.663   3.759   9.517 -0.7699  0.6661  0.0507
  183SLPC   H9R21004   3.596   3.846   9.521 -2.9945 -0.9734  0.3650
  183SLPC  C21021005   3.720   3.729   9.401 -0.4021  0.0661  0.2907
  183SLPC  H10R21006   3.696   3.790   9.313  1.2908  1.6745  0.8976
  183SLPC  C21121007   3.833   3.630   9.371  0.5083 -0.3418 -0.7419
  183SLPC  H11R21008   3.807   3.562   9.287 -1.5088  0.5655 -0.9078
  183SLPC  H11S21009   3.853   3.574   9.465 -2.0122 -0.2854 -0.1005
  183SLPC  C21221010   3.961   3.703   9.340 -0.4297  0.2707 -0.3444
  183SLPC  H12R21011   4.016   3.743   9.426 -0.1116 -3.2351  1.2421
  183SLPC  C21321012   4.026   3.714   9.219 -0.7781 -0.0573  0.1348
  183SLPC  H13R21013   4.118   3.773   9.205  0.2691 -1.8270 -0.8385
  183SLPC  C21421014   3.993   3.649   9.084 -0.7365 -0.9322  0.6548
  183SLPC  H14R21015   3.945   3.720   9.013  1.6035 -1.1356 -1.2712
  183SLPC  H14S21016   3.920   3.565   9.089  0.4103 -2.1200 -1.1147
  183SLPC  C21521017   4.120   3.591   9.014  0.3830 -0.3249  0.6983
  183SLPC  H15R21018   4.180   3.526   9.081  1.7342  0.6413  0.4719
  183SLPC  H15S21019   4.203   3.659   8.985  3.6299 -3.8185  0.9817
  183SLPC  C21621020   4.093   3.518   8.879 -0.6077  0.2632 -0.6273
  183SLPC  H16R21021   4.005   3.451   8.882 -0.8624  0.5937 -0.6735
  183SLPC  H16S21022   4.193   3.478   8.850 -0.2747  0.5146  0.1457
  183SLPC  C21721023   4.066   3.616   8.762 -0.9235 -0.0547  0.2192
  183SLPC  H17R21024   4.147   3.690   8.745 -0.0627 -1.5554 -3.0377
  183SLPC  H17S21025   3.968   3.668   8.773 -1.4400  0.1553 -3.7422
  183SLPC  C21821026   4.055   3.557   8.620 -0.1973  0.0376 -0.1490
  183SLPC  H18R21027   4.137   3.487   8.594 -2.1447 -2.3243 -0.3479
  183SLPC  H18S21028   4.033   3.643   8.553  0.3560  0.5639  0.3314
  183SLPC  H18T21029   3.965   3.492   8.620  0.8883 -1.5153 -0.9710
  183SLPC   C3321030   4.352   3.677  10.104  0.6445  0.0243 -0.7393
  183SLPC   H3X21031   4.442   3.669  10.169  0.6146 -0.6074 -0.7658
  183SLPC   H3Y21032   4.321   3.778  10.070 -3.9028 -1.5603 -2.0456
  183SLPC   C3421033   4.377   3.615   9.972  0.2681  0.3936  0.6727
  183SLPC   H4X21034   4.431   3.519   9.987 -0.0218  0.2040  0.5232
  183SLPC   H4Y21035   4.440   3.691   9.921  0.2548 -0.5772 -0.8596
  183SLPC   C3521036   4.255   3.590   9.883 -0.1522 -0.9573  0.6100
  183SLPC   H5X21037   4.183   3.672   9.898  2.4206  1.7538 -0.7406
  183SLPC   H5Y21038   4.198   3.496   9.899 -0.6693 -0.6737  0.4227
  183SLPC   C3621039   4.286   3.592   9.731  0.7584 -0.1202 -0.2983
  183SLPC   H6X21040   4.353   3.680   9.720 -0.2449  0.9045  1.4595
  183SLPC   H6Y21041   4.196   3.620   9.672  1.6717  1.9010 -0.8226
  183SLPC   C3721042   4.360   3.471   9.674 -0.1758 -0.6168  0.4807
  183SLPC   H7X21043   4.301   3.380   9.696 -1.2988  0.1322  0.6395
  183SLPC   H7Y21044   4.461   3.459   9.719 -0.1044  2.4392  1.3626
  183SLPC   C3821045   4.384   3.483   9.522  0.5058  0.1887  1.1937
  183SLPC   H8X21046   4.290   3.492   9.462  0.3831 -1.6570  1.0685
  183SLPC   H8Y21047   4.437   3.395   9.481  1.7322  2.4210 -2.5087
  183SLPC   C3921048   4.472   3.597   9.477  0.6295 -0.8981  0.5499
  183SLPC   H9X21049   4.567   3.601   9.535  0.4728  0.3854  0.7455
  183SLPC   H9Y21050   4.429   3.693   9.512  0.1482 -0.2115 -1.7651
  183SLPC  C31021051   4.500   3.583   9.325  0.0236  0.2542  0.6257
  183SLPC  H10X21052   4.411   3.549   9.267  0.6045  1.3387 -0.9804
  183SLPC  H10Y21053   4.564   3.494   9.304 -2.9012 -1.8617  0.0722
  183SLPC  C31121054   4.563   3.707   9.256  0.8978  0.7206  0.0652
  183SLPC  H11X21055   4.651   3.730   9.319  1.5284 -0.1908 -0.4588
  183SLPC  H11Y21056   4.486   3.787   9.256 -1.8400 -1.7140  1.5179
  183SLPC  C31221057   4.613   3.678   9.110  0.4682 -0.3213 -0.1010
  183SLPC  H12X21058   4.666   3.581   9.114  0.3557 -0.4608 -1.5730
  183SLPC  H12Y21059   4.679   3.759   9.072 -1.1668 -0.2858 -3.1616
  183SLPC  C31321060   4.498   3.664   9.012  0.0490 -0.1312  0.7514
  183SLPC  H13X21061   4.428   3.748   9.030 -0.0664 -0.9452  5.1664
  183SLPC  H13Y21062   4.443   3.571   9.039  0.3196 -0.0505  1.6286
  183SLPC  C31421063   4.554   3.641   8.876 -0.6381 -0.0933 -0.1107
  183SLPC  H14X21064   4.622   3.554   8.868 -0.8772 -0.2320 -0.7031
  183SLPC  H14Y21065   4.617   3.729   8.851 -0.2455 -0.5600 -0.7994
  183SLPC  C31521066   4.448   3.637   8.763 -0.3906 -0.5310 -0.1894
  183SLPC  H15X21067   4.363   3.707   8.777  0.8735  0.7266  1.6746
  183SLPC  H15Y21068   4.391   3.542   8.770  0.4383 -1.3012 -2.6883
  183SLPC  C31621069   4.516   3.653   8.629 -0.4539 -0.2418  0.0235
  183SLPC  H16X21070   4.599   3.579   8.620  0.6672  1.0685 -1.1477
  183SLPC  H16Y21071   4.568   3.751   8.617 -1.2461  0.1187 -0.5976
  183SLPC  C31721072   4.419   3.625   8.515 -0.4710 -0.7996  1.8540
  183SLPC  H17X21073   4.347   3.710   8.515  0.5079  0.0698  0.5710
  183SLPC  H17Y21074   4.361   3.530   8.521 -0.8361 -0.8407 -0.8721
  183SLPC  C31821075   4.492   3.627   8.379 -0.7478  0.1865  0.6022
  183SLPC  H18X21076   4.570   3.547   8.384 -2.4453 -1.5721  0.2856
  183SLPC  H18Y21077   4.536   3.727   8.363 -1.9134  0.8863  1.6321
  183SLPC  H18Z21078   4.434   3.616   8.285  0.4511 -0.2144 -0.1151
  184SLPC     N21079   1.173   0.127  10.530  0.2840  1.0486  0.4254
  184SLPC   C1321080   1.171   0.212  10.642 -0.4386 -0.2615  0.4844
  184SLPC  H13A21081   1.090   0.194  10.712  0.2069  1.6042  1.7721
  184SLPC  H13B21082   1.262   0.204  10.698 -0.1456 -1.5562 -0.1410
  184SLPC  H13C21083   1.157   0.312  10.604 -2.7817 -0.2626  1.1359
  184SLPC   C1421084   1.273   0.172  10.425 -0.2332 -0.3040  0.0161
  184SLPC  H14A21085   1.302   0.098  10.352 -1.0367  0.6887 -1.3710
  184SLPC  H14B21086   1.232   0.253  10.366  3.1273  1.3352 -0.3165
  184SLPC  H14C21087   1.366   0.193  10.475  0.0606  0.3708 -0.7862
  184SLPC   C1521088   1.042   0.107  10.466 -0.0785 -0.2028 -0.4316
  184SLPC  H15A21089   1.000   0.201  10.435 -0.7424 -0.3084  0.1310
  184SLPC  H15B21090   1.035   0.037  10.383  0.9862  0.4131 -1.0596
  184SLPC  H15C21091   0.990   0.062  10.549  0.3352  0.8110  0.4049
  184SLPC   C1221092   1.219  -0.012  10.574 -0.0758  0.2702 -0.5484
  184SLPC  H12A21093   1.323   0.007  10.597 -0.2731  0.4949  0.1864
  184SLPC  H12B21094   1.220  -0.076  10.488  0.4118  1.0804 -1.1610
  184SLPC   C1121095   1.149  -0.088  10.685  1.2412 -0.1812  0.4824
  184SLPC  H11A21096   1.117  -0.011  10.759 -1.9155  1.0712 -1.9515
  184SLPC  H11B21097   1.216  -0.165  10.729  1.5151 -0.3521 -0.2251
  184SLPC     P21098   1.053  -0.287  10.559 -0.0237  0.2387  0.2871
  184SLPC   O1321099   1.158  -0.263  10.460  0.0310  0.0220  0.0057
  184SLPC   O1421100   1.072  -0.391  10.664 -0.5981  0.3265  0.1239
  184SLPC   O1221101   1.022  -0.142  10.633 -0.1280  0.2376  0.2357
  184SLPC   O1121102   0.919  -0.309  10.483  0.3545 -0.1301 -0.3117
  184SLPC    C121103   0.855  -0.198  10.417 -0.5627 -0.0412  0.0613
  184SLPC    HA21104   0.748  -0.205  10.447 -0.6917  1.1707 -0.0525
  184SLPC    HB21105   0.890  -0.096  10.442  2.2006 -0.7737 -0.4143
  184SLPC    C221106   0.870  -0.221  10.267 -0.0022  0.4761  0.3453
  184SLPC    HS21107   0.966  -0.186  10.225  1.5101 -2.8352  0.7558
  184SLPC   O2121108   0.755  -0.168  10.195 -0.7292  0.8295 -0.0569
  184SLPC   C2121109   0.750  -0.035  10.184 -0.8678  0.7135  0.4997
  184SLPC   O2221110   0.838   0.039  10.218  0.6007 -0.7612 -0.6741
  184SLPC   C2221111   0.611   0.005  10.127  0.3202  0.4287 -0.3535
  184SLPC   H2R21112   0.537  -0.046  10.192 -1.4963 -0.7605 -3.1459
  184SLPC   H2S21113   0.590   0.114  10.126 -3.1935 -0.1301 -0.2846
  184SLPC    C321114   0.868  -0.369  10.226 -0.7032 -0.7964 -0.0346
  184SLPC    HX21115   0.786  -0.419  10.280 -0.7914  0.5483  1.1297
  184SLPC    HY21116   0.961  -0.403  10.278  0.7443  3.5387  0.6342
  184SLPC   O3121117   0.867  -0.385  10.083 -0.6416 -0.6247  0.0768
  184SLPC   C3121118   0.965  -0.338  10.008 -0.3310  0.8226 -0.4790
  184SLPC   O3221119   1.069  -0.288  10.044  0.5883  0.2791 -0.6073
  184SLPC   C3221120   0.914  -0.343   9.865  0.2075  0.5480  0.5045
  184SLPC   H2X21121   0.808  -0.311   9.867 -0.1891 -0.7353  1.6464
  184SLPC   H2Y21122   0.917  -0.444   9.821  1.1317  1.1656 -0.9069
  184SLPC   C2321123   0.580  -0.053   9.986  0.2576  0.7108 -0.1515
  184SLPC   H3R21124   0.470  -0.052   9.972  0.2411  3.1719 -0.2828
  184SLPC   H3S21125   0.607  -0.161   9.988  1.0876  0.8815 -1.1597
  184SLPC   C2421126   0.631   0.034   9.872  0.1308 -0.9793  0.4052
  184SLPC   H4R21127   0.611   0.140   9.896 -0.0082 -1.0844  0.7525
  184SLPC   H4S21128   0.581   0.001   9.778  1.6669  0.5377 -1.0323
  184SLPC   C2521129   0.783   0.014   9.851 -0.0867 -0.4184  0.1006
  184SLPC   H5R21130   0.793  -0.078   9.789  0.0695 -1.1090  1.1224
  184SLPC   H5S21131   0.832   0.011   9.951  2.5557  0.6568 -1.0675
  184SLPC   C2621132   0.859   0.133   9.781 -0.1479 -0.2321  0.2745
  184SLPC   H6R21133   0.950   0.096   9.730 -0.7873  0.2061 -1.2456
  184SLPC   H6S21134   0.888   0.219   9.845  0.7689 -0.4383  0.1540
  184SLPC   C2721135   0.769   0.184   9.664 -0.0660 -0.1483  0.2844
  184SLPC   H7R21136   0.673   0.220   9.705 -1.8779 -0.9117 -2.9436
  184SLPC   H7S21137   0.736   0.105   9.593 -1.1519 -0.4377  1.0832
  184SLPC   C2821138   0.852   0.290   9.585 -0.3713  0.2353  0.6109
  184SLPC   H8R21139   0.932   0.241   9.526  0.7947  4.0315 -1.2807
  184SLPC   H8S21140   0.905   0.338   9.670 -0.6333 -1.6411  1.9073
  184SLPC   C2921141   0.781   0.387   9.496  0.2944  0.5414 -1.1150
  184SLPC   H9R21142   0.734   0.474   9.543  0.5744  0.0376  0.1242
  184SLPC  C21021143   0.773   0.372   9.368  0.4806 -0.0896  0.4504
  184SLPC  H10R21144   0.730   0.456   9.312  0.5176  0.8551  1.7954
  184SLPC  C21121145   0.826   0.265   9.281 -0.3067  0.7261 -0.5628
  184SLPC  H11R21146   0.746   0.227   9.214  0.7705  1.5428 -2.3770
  184SLPC  H11S21147   0.849   0.170   9.335 -0.4722  0.5837 -0.7424
  184SLPC  C21221148   0.948   0.302   9.196  0.2647 -0.0383  0.2260
  184SLPC  H12R21149   1.046   0.282   9.242  0.3899  3.1401  1.6163
  184SLPC  C21321150   0.945   0.376   9.082  0.4578  0.8248 -0.2418
  184SLPC  H13R21151   1.040   0.411   9.038  1.3934  0.7509  1.5860
  184SLPC  C21421152   0.815   0.440   9.029 -0.2954  0.1344 -0.2661
  184SLPC  H14R21153   0.832   0.547   9.055  0.5721 -0.7437  3.1797
  184SLPC  H14S21154   0.736   0.395   9.092  1.5629 -1.0117  1.3274
  184SLPC  C21521155   0.788   0.409   8.889  0.0992 -0.0874 -0.0227
  184SLPC  H15R21156   0.756   0.304   8.872  0.0960  0.3241 -3.0404
  184SLPC  H15S21157   0.884   0.426   8.835  0.1252 -2.4852 -0.8275
  184SLPC  C21621158   0.700   0.512   8.830  0.7069 -0.1129  0.4755
  184SLPC  H16R21159   0.752   0.607   8.855 -2.4103  1.6913  0.5128
  184SLPC  H16S21160   0.604   0.509   8.885  0.8401  1.8133  0.8827
  184SLPC  C21721161   0.666   0.511   8.677 -0.2873 -0.8692 -0.0072
  184SLPC  H17R21162   0.755   0.526   8.612 -0.1423 -1.2289  0.1102
  184SLPC  H17S21163   0.606   0.603   8.658  0.3784 -0.5952 -0.8128
  184SLPC  C21821164   0.599   0.380   8.641 -0.4047  0.1055  0.2064
  184SLPC  H18R21165   0.652   0.286   8.668  0.9229  0.9060  0.4287
  184SLPC  H18S21166   0.580   0.369   8.532 -1.4698 -1.2864  0.4928
  184SLPC  H18T21167   0.496   0.379   8.682 -0.2680 -1.3200  0.5994
  184SLPC   C3321168   1.007  -0.250   9.774  0.5339  0.0042 -0.2799
  184SLPC   H3X21169   1.107  -0.298   9.764  0.5792 -0.6629  2.6496
  184SLPC   H3Y21170   1.012  -0.149   9.818 -1.5563  0.2658 -0.5385
  184SLPC   C3421171   0.962  -0.224   9.629  0.5822  0.2444  0.8670
  184SLPC   H4X21172   0.873  -0.158   9.624 -0.2476 -0.9240 -0.9628
  184SLPC   H4Y21173   0.936  -0.323   9.586 -0.3171  0.4017  1.0155
  184SLPC   C3521174   1.069  -0.152   9.555 -0.2870  0.2808  0.5796
  184SLPC   H5X21175   1.160  -0.216   9.554 -0.0777  0.5271  2.0435
  184SLPC   H5Y21176   1.095  -0.054   9.598 -0.9564 -0.1375  1.9881
  184SLPC   C3621177   1.027  -0.122   9.405  0.4489  0.7128 -0.0062
  184SLPC   H6X21178   0.942  -0.050   9.407  1.9903  2.6903 -1.3759
  184SLPC   H6Y21179   1.006  -0.215   9.349 -0.6803  0.9451  0.0085
  184SLPC   C3721180   1.144  -0.055   9.327  0.4507  0.3660  0.1833
  184SLPC   H7X21181   1.240  -0.057   9.381 -0.1930 -0.0654  1.3481
  184SLPC   H7Y21182   1.118   0.052   9.310  0.0051  0.1920 -0.2853
  184SLPC   C3821183   1.159  -0.111   9.183  0.5725  0.7533 -0.5107
  184SLPC   H8X21184   1.174  -0.221   9.181 -1.3280  0.4506 -3.2215
  184SLPC   H8Y21185   1.250  -0.069   9.136  0.3746  0.2686 -1.3433
  184SLPC   C3921186   1.027  -0.097   9.101 -0.8155  0.3413  0.7018
  184SLPC   H9X21187   0.998   0.008   9.123  1.6000  1.3545 -0.5467
  184SLPC   H9Y21188   0.953  -0.171   9.138 -0.0073  0.0796  1.8828
  184SLPC  C31021189   1.055  -0.103   8.959  0.2289 -0.5657  0.8738
  184SLPC  H10X21190   0.964  -0.102   8.895  0.8429 -0.0640 -0.0101
  184SLPC  H10Y21191   1.112  -0.195   8.933  0.5431 -1.0525  3.1183
  184SLPC  C31121192   1.151   0.011   8.901  0.5176 -0.1791 -0.0744
  184SLPC  H11X21193   1.257  -0.018   8.917  0.9543  0.9325 -0.7881
  184SLPC  H11Y21194   1.141   0.096   8.973 -0.9629 -0.8622  0.5572
  184SLPC  C31221195   1.116   0.067   8.763 -0.2403 -0.2471 -0.0528
  184SLPC  H12X21196   1.187   0.148   8.740 -2.2057  1.0095 -2.0062
  184SLPC  H12Y21197   1.013   0.105   8.780 -0.9793 -1.1701 -2.1870
  184SLPC  C31321198   1.107  -0.028   8.647  0.2193  0.1955  0.5361
  184SLPC  H13X21199   1.030  -0.104   8.672  1.0570 -0.2785  1.7731
  184SLPC  H13Y21200   1.203  -0.078   8.624  0.4304  1.6945 -2.3512
  184SLPC  C31421201   1.038   0.028   8.515  0.4570  0.2952 -0.3016
  184SLPC  H14X21202   0.963   0.103   8.547  1.0963  1.2307 -0.9383
  184SLPC  H14Y21203   0.987  -0.046   8.451 -4.4390  0.6953  2.6382
  184SLPC  C31521204   1.139   0.106   8.436 -0.6964 -0.4411  0.6289
  184SLPC  H15X21205   1.184   0.178   8.508 -1.1424  0.1404  0.3362
  184SLPC  H15Y21206   1.089   0.166   8.356 -1.3101 -1.1838  0.4452
  184SLPC  C31621207   1.261   0.030   8.380  0.1098  0.1462  0.5954
  184SLPC  H16X21208   1.290  -0.045   8.457 -2.7442 -1.4916  0.1893
  184SLPC  H16Y21209   1.346   0.099   8.358  0.1613 -0.2737 -0.5630
  184SLPC  C31721210   1.239  -0.065   8.260 -0.2747 -0.0923 -0.1807
  184SLPC  H17X21211   1.221   0.002   8.174  1.7002  0.0185 -0.5673
  184SLPC  H17Y21212   1.166  -0.147   8.271  1.0349 -1.3719 -0.7215
  184SLPC  C31821213   1.371  -0.127   8.229  0.5161 -0.4508  0.0350
  184SLPC  H18X21214   1.390  -0.214   8.295 -0.1646 -0.1064  0.6953
  184SLPC  H18Y21215   1.455  -0.053   8.228  0.9189 -0.9112 -0.7907
  184SLPC  H18Z21216   1.373  -0.159   8.123  2.3903 -1.6436  0.3690
  185SLPC     N21217   4.137   6.376   6.467  0.4626 -0.2418 -0.1199
  185SLPC   C1321218   4.280   6.410   6.443 -0.2722 -0.2291  0.4905
  185SLPC  H13A21219   4.312   6.357   6.355 -1.3925  1.0660 -0.7553
  185SLPC  H13B21220   4.293   6.517   6.431 -0.0707 -0.3815 -0.8768
  185SLPC  H13C21221   4.337   6.372   6.526  1.4543  2.0203  0.4231
  185SLPC   C1421222   4.128   6.230   6.485  0.5035 -0.0941 -0.1421
  185SLPC  H14A21223   4.176   6.190   6.397 -0.5457 -0.5007 -0.5489
  185SLPC  H14B21224   4.182   6.192   6.571 -2.1171 -0.1236  1.6282
  185SLPC  H14C21225   4.030   6.185   6.493  1.0127 -1.0327  1.1399
  185SLPC   C1521226   4.060   6.409   6.338 -0.6007  0.5356 -0.2326
  185SLPC  H15A21227   4.103   6.361   6.251 -0.1593  0.8538 -0.1937
  185SLPC  H15B21228   3.958   6.380   6.359  0.2692 -2.4550  0.2924
  185SLPC  H15C21229   4.081   6.513   6.319  1.4094 -0.1440 -2.0926
  185SLPC   C1221230   4.089   6.447   6.590  0.9765 -0.3373 -0.2512
  185SLPC  H12A21231   4.089   6.555   6.579  1.9068 -0.3818 -0.7737
  185SLPC  H12B21232   4.158   6.431   6.671 -0.1783 -0.4677  0.7232
  185SLPC   C1121233   3.948   6.415   6.638  0.5654 -0.5116 -0.3414
  185SLPC  H11A21234   3.927   6.480   6.725 -1.4118 -0.1599 -1.0192
  185SLPC  H11B21235   3.950   6.307   6.664  1.7111 -0.7506 -1.3141
  185SLPC     P21236   3.797   6.597   6.508  0.0822  0.0832 -0.2404
  185SLPC   O1321237   3.913   6.683   6.476 -0.7381  0.9597 -0.3050
  185SLPC   O1421238   3.691   6.594   6.407  0.0702  0.4796  0.2875
  185SLPC   O1221239   3.843   6.448   6.534 -0.4665 -0.0866  0.2699
  185SLPC   O1121240   3.735   6.644   6.639  0.3832  0.0335  0.0096
  185SLPC    C121241   3.605   6.693   6.649  0.2770 -0.4500  0.7093
  185SLPC    HA21242   3.535   6.643   6.578 -1.1911  1.0881  1.0002
  185SLPC    HB21243   3.575   6.668   6.753 -0.4025 -1.7116  0.2402
  185SLPC    C221244   3.594   6.842   6.617 -0.4096  0.7478  0.2736
  185SLPC    HS21245   3.641   6.859   6.517 -0.8304 -0.5161 -0.1672
  185SLPC   O2121246   3.662   6.906   6.723  0.1189  0.1077  0.3467
  185SLPC   C2121247   3.719   7.015   6.686 -0.3005 -0.8423  0.6024
  185SLPC   O2221248   3.726   7.058   6.566  0.7186  0.2224 -0.5975
  185SLPC   C2221249   3.794   7.084   6.792  0.6868 -0.2988 -0.5519
  185SLPC   H2R21250   3.893   7.034   6.802 -0.0412 -2.1443 -1.8143
  185SLPC   H2S21251   3.831   7.186   6.773  0.2510  0.2763  1.4733
  185SLPC    C321252   3.443   6.888   6.601 -0.9042 -0.1797 -0.3649
  185SLPC    HX21253   3.421   6.824   6.514  1.9050  0.8719 -1.9920
  185SLPC    HY21254   3.426   6.994   6.573 -0.3255 -0.2959 -1.1712
  185SLPC   O3121255   3.371   6.859   6.723 -0.1572 -0.2224 -0.8180
  185SLPC   C3121256   3.345   6.959   6.810  0.2772 -0.1023  0.5782
  185SLPC   O3221257   3.366   7.078   6.789  0.2242 -0.3187  0.6036
  185SLPC   C3221258   3.252   6.899   6.919  0.1427 -0.5063  0.5630
  185SLPC   H2X21259   3.285   6.795   6.938  1.5150  0.0852  1.5342
  185SLPC   H2Y21260   3.147   6.892   6.882  0.5052 -0.4793 -0.5219
  185SLPC   C2321261   3.722   7.090   6.931 -0.2377 -0.3640 -0.2098
  185SLPC   H3R21262   3.614   7.084   6.903  0.0869 -0.2826 -1.5019
  185SLPC   H3S21263   3.729   7.191   6.977 -1.3773 -0.5308  0.3875
  185SLPC   C2421264   3.775   6.983   7.031 -0.4345 -0.0514  0.3910
  185SLPC   H4R21265   3.885   6.994   7.036 -0.4333 -0.2280  0.7505
  185SLPC   H4S21266   3.753   6.889   6.976 -0.6657  0.2557 -0.0588
  185SLPC   C2521267   3.705   6.989   7.159  0.3745  0.0899 -0.5406
  185SLPC   H5R21268   3.594   6.982   7.152  0.4579 -1.9422 -0.3823
  185SLPC   H5S21269   3.729   7.090   7.200 -0.9188 -0.5003  1.8621
  185SLPC   C2621270   3.763   6.890   7.264  0.4336 -0.1755 -0.6751
  185SLPC   H6R21271   3.872   6.896   7.286  0.2675 -0.2800  0.2182
  185SLPC   H6S21272   3.748   6.785   7.228  0.1503 -1.2854  2.3780
  185SLPC   C2721273   3.682   6.909   7.394  0.0650  0.8384  0.1168
  185SLPC   H7R21274   3.685   6.809   7.444 -0.2240  0.5659 -0.4052
  185SLPC   H7S21275   3.577   6.933   7.370  0.5649 -0.0762 -3.5804
  185SLPC   C2821276   3.752   7.010   7.487  0.6250  0.3204 -0.4936
  185SLPC   H8R21277   3.768   7.101   7.425  1.5237  0.6345  0.1860
  185SLPC   H8S21278   3.856   6.977   7.508  0.3643 -0.5508 -0.5626
  185SLPC   C2921279   3.667   7.044   7.614  0.2979  0.3617 -0.2502
  185SLPC   H9R21280   3.616   7.141   7.618  2.1302  1.3764 -0.5999
  185SLPC  C21021281   3.668   6.962   7.721  1.6587  0.5398 -0.5755
  185SLPC  H10R21282   3.606   6.981   7.810 -0.4205  0.9861 -2.0390
  185SLPC  C21121283   3.738   6.828   7.746 -0.0411 -0.3783  0.7489
  185SLPC  H11R21284   3.804   6.802   7.661 -1.2114 -3.1719  0.5901
  185SLPC  H11S21285   3.662   6.748   7.750  0.7996 -1.2703 -0.4089
  185SLPC  C21221286   3.820   6.803   7.874  0.1489  0.0412  0.2201
  185SLPC  H12R21287   3.930   6.806   7.864  0.0894  0.2971 -0.3896
  185SLPC  C21321288   3.774   6.771   8.002 -0.4764 -0.6856  0.1365
  185SLPC  H13R21289   3.841   6.739   8.084  0.8071 -0.1125 -0.6527
  185SLPC  C21421290   3.630   6.756   8.041  0.2582 -0.7026 -1.2185
  185SLPC  H14R21291   3.611   6.651   8.072 -0.6187  0.1342  1.2613
  185SLPC  H14S21292   3.569   6.773   7.949 -1.1025 -0.0034 -0.2133
  185SLPC  C21521293   3.571   6.860   8.140  0.0760  0.1169  0.7342
  185SLPC  H15R21294   3.589   6.847   8.249 -3.6396  0.8749  1.5880
  185SLPC  H15S21295   3.462   6.860   8.121 -0.2610 -0.1728  2.4990
  185SLPC  C21621296   3.626   6.998   8.123  0.0357  0.4160 -0.2999
  185SLPC  H16R21297   3.623   7.036   8.019  1.0985  1.4809  0.0323
  185SLPC  H16S21298   3.731   6.987   8.157 -0.6869 -0.4011  1.8137
  185SLPC  C21721299   3.557   7.097   8.220 -0.1036 -0.5139  0.1835
  185SLPC  H17R21300   3.450   7.107   8.191  0.2718  0.2270 -1.0463
  185SLPC  H17S21301   3.597   7.196   8.192 -3.1331  0.7699 -0.0088
  185SLPC  C21821302   3.574   7.080   8.369  0.3450  0.7511  0.3263
  185SLPC  H18R21303   3.509   6.995   8.399 -0.5278  0.9537 -0.9079
  185SLPC  H18S21304   3.548   7.175   8.419 -0.8542  0.2920  0.6075
  185SLPC  H18T21305   3.674   7.042   8.399 -0.1304 -0.2313  0.7003
  185SLPC   C3321306   3.261   6.976   7.048  1.1283 -0.0713 -0.4456
  185SLPC   H3X21307   3.213   7.075   7.037  2.5010  0.5295 -1.1772
  185SLPC   H3Y21308   3.367   7.003   7.067  0.6780  1.5001 -0.0251
  185SLPC   C3421309   3.197   6.913   7.173  0.1440 -0.7863 -0.4873
  185SLPC   H4X21310   3.100   6.871   7.137  0.5266 -2.9270  0.7649
  185SLPC   H4Y21311   3.178   6.998   7.242  2.5257  0.0024 -0.7239
  185SLPC   C3521312   3.287   6.815   7.241 -0.3956  0.4207  0.1003
  185SLPC   H5X21313   3.391   6.838   7.209  0.0611 -1.2438  0.3153
  185SLPC   H5Y21314   3.269   6.719   7.189  0.6730 -0.4047  1.2010
  185SLPC   C3621315   3.293   6.806   7.393  0.4421  0.1445 -0.1648
  185SLPC   H6X21316   3.192   6.780   7.433  1.0171 -1.1557  0.5026
  185SLPC   H6Y21317   3.309   6.910   7.428 -0.6997  0.5186 -0.7095
  185SLPC   C3721318   3.392   6.696   7.446  0.0945 -0.1691 -0.4191
  185SLPC   H7X21319   3.479   6.692   7.376  1.1049 -1.0464  0.8498
  185SLPC   H7Y21320   3.332   6.603   7.445 -0.9897  0.4505  1.5936
  185SLPC   C3821321   3.449   6.720   7.583  0.5679 -0.2223  0.5367
  185SLPC   H8X21322   3.461   6.830   7.588  1.4092 -0.3668  2.7955
  185SLPC   H8Y21323   3.553   6.682   7.585  0.0038 -2.0232 -0.9556
  185SLPC   C3921324   3.353   6.681   7.697 -0.0630 -0.3636 -0.4584
  185SLPC   H9X21325   3.412   6.669   7.791  0.9619 -1.0890 -1.1759
  185SLPC   H9Y21326   3.300   6.587   7.674  2.2916 -1.5902 -1.1787
  185SLPC  C31021327   3.242   6.795   7.736 -0.2592  1.1380  0.5130
  185SLPC  H10X21328   3.164   6.792   7.656  0.6326 -0.6131 -0.3352
  185SLPC  H10Y21329   3.299   6.890   7.752  1.6280 -0.1747  1.9610
  185SLPC  C31121330   3.164   6.751   7.869 -0.3975  0.1480  0.9341
  185SLPC  H11X21331   3.240   6.723   7.945  0.8146 -1.0770 -0.6657
  185SLPC  H11Y21332   3.105   6.661   7.843  1.0816 -0.2157 -1.4390
  185SLPC  C31221333   3.074   6.864   7.915 -0.0310  0.2922 -0.6139
  185SLPC  H12X21334   2.975   6.828   7.951 -0.7467  1.9196 -0.8619
  185SLPC  H12Y21335   3.050   6.930   7.829  1.5669 -1.8978 -2.8839
  185SLPC  C31321336   3.121   6.940   8.034 -0.1806  0.7046  0.4343
  185SLPC  H13X21337   3.056   7.028   8.054  0.7894  1.3725  0.7450
  185SLPC  H13Y21338   3.225   6.972   8.010  0.5072  0.8443  3.2674
  185SLPC  C31421339   3.120   6.863   8.167  0.5020  0.4229 -0.3370
  185SLPC  H14X21340   3.150   6.759   8.142  1.0227 -0.0207  1.8830
  185SLPC  H14Y21341   3.013   6.861   8.199  0.0643  1.8130 -1.5667
  185SLPC  C31521342   3.200   6.908   8.284 -0.3427 -0.2419 -0.4134
  185SLPC  H15X21343   3.168   7.003   8.332  0.6043  0.8247 -1.8191
  185SLPC  H15Y21344   3.307   6.920   8.255  0.0537 -2.6458 -0.2030
  185SLPC  C31621345   3.186   6.812   8.407  0.0513  1.0060 -0.2240
  185SLPC  H16X21346   3.203   6.707   8.372 -2.1061  0.7947 -0.7717
  185SLPC  H16Y21347   3.079   6.810   8.437  0.5550 -0.0137  1.6419
  185SLPC  C31721348   3.281   6.853   8.524 -0.9532  0.1851 -0.0440
  185SLPC  H17X21349   3.266   6.962   8.544 -0.8229  0.1391  0.3032
  185SLPC  H17Y21350   3.388   6.849   8.495 -1.5076  0.8781 -2.4412
  185SLPC  C31821351   3.267   6.781   8.651  0.0573  0.7794  0.4242
  185SLPC  H18X21352   3.332   6.824   8.730  1.9550  0.4370 -0.8782
  185SLPC  H18Y21353   3.298   6.677   8.630  1.6846  1.4209 -0.6029
  185SLPC  H18Z21354   3.161   6.781   8.685 -1.3056 -1.9403 -3.2017
  186SLPC     N21355   1.798   2.707   6.087  0.4016  0.0458 -0.7599
  186SLPC   C1321356   1.888   2.728   5.970  0.3235 -0.3066 -0.9322
  186SLPC  H13A21357   1.863   2.819   5.917 -0.3813  0.7732  1.1352
  186SLPC  H13B21358   1.989   2.751   6.001  0.8311 -2.6943 -0.6348
  186SLPC  H13C21359   1.899   2.636   5.915 -0.5375 -0.7566 -0.3792
  186SLPC   C1421360   1.662   2.667   6.026 -0.2428  0.8291 -0.1475
  186SLPC  H14A21361   1.672   2.573   5.973 -0.1488 -0.2749  1.7105
  186SLPC  H14B21362   1.589   2.640   6.101  0.0533  0.7579  0.1182
  186SLPC  H14C21363   1.613   2.735   5.958  0.6289  3.2952  1.5619
  186SLPC   C1521364   1.779   2.842   6.151 -0.0999 -0.3084 -0.3313
  186SLPC  H15A21365   1.873   2.875   6.192 -0.4219  3.9446 -2.4170
  186SLPC  H15B21366   1.748   2.922   6.086 -1.8135 -1.0812 -0.5179
  186SLPC  H15C21367   1.702   2.838   6.227  0.2958 -0.2388  0.0749
  186SLPC   C1221368   1.843   2.597   6.194  0.8901 -0.1782  0.1612
  186SLPC  H12A21369   1.804   2.502   6.160  0.2332 -0.0479  0.5342
  186SLPC  H12B21370   1.778   2.624   6.277 -0.0147 -1.0650 -0.2374
  186SLPC   C1121371   1.989   2.583   6.242  0.2575  0.0910  1.0339
  186SLPC  H11A21372   2.047   2.570   6.148 -0.0344  3.9820  0.1416
  186SLPC  H11B21373   1.997   2.497   6.312 -2.0774  1.4783  3.1839
  186SLPC     P21374   2.145   2.805   6.283 -0.0633 -0.1198  0.3613
  186SLPC   O1321375   2.246   2.747   6.197 -0.2192 -0.1461 -0.7462
  186SLPC   O1421376   2.075   2.926   6.239  0.1434  0.0098 -0.0805
  186SLPC   O1221377   2.034   2.696   6.324  0.2097  0.4310 -0.3216
  186SLPC   O1121378   2.208   2.824   6.424 -0.8670 -0.1992  0.4540
  186SLPC    C121379   2.253   2.708   6.503 -0.2973  0.1633  0.8722
  186SLPC    HA21380   2.172   2.634   6.518 -0.0897 -0.6498 -1.6061
  186SLPC    HB21381   2.331   2.656   6.444 -1.3199 -0.1767 -0.2119
  186SLPC    C221382   2.318   2.745   6.637 -0.6789  0.0434 -0.0627
  186SLPC    HS21383   2.377   2.656   6.666 -0.3348  0.3076  0.0624
  186SLPC   O2121384   2.214   2.784   6.729 -0.5713  0.6679  0.4575
  186SLPC   C2121385   2.189   2.694   6.823 -0.2455 -0.3842 -0.2905
  186SLPC   O2221386   2.219   2.577   6.831 -0.1672 -0.4190  0.4760
  186SLPC   C2221387   2.105   2.763   6.928 -0.0150  0.5658  0.5534
  186SLPC   H2R21388   2.174   2.843   6.961 -0.3186  0.4811  1.4165
  186SLPC   H2S21389   2.018   2.805   6.872  0.6864  0.4432 -0.6595
  186SLPC    C321390   2.421   2.852   6.617  0.5084  0.3421 -0.0321
  186SLPC    HX21391   2.373   2.951   6.631  0.6680  0.2125  1.5876
  186SLPC    HY21392   2.466   2.843   6.515  0.3655 -0.7655 -0.0133
  186SLPC   O3121393   2.516   2.844   6.724  0.9011  0.0290  0.4500
  186SLPC   C3121394   2.615   2.935   6.706 -0.4561  0.3828  0.6860
  186SLPC   O3221395   2.616   3.026   6.624 -0.7376  0.1078 -0.2061
  186SLPC   C3221396   2.725   2.903   6.813  0.5527 -0.2545  0.0697
  186SLPC   H2X21397   2.789   2.821   6.774 -0.1764  0.5949 -3.2300
  186SLPC   H2Y21398   2.674   2.867   6.904 -0.1732  0.9805  0.1833
  186SLPC   C2321399   2.062   2.671   7.037  0.1827 -0.5025  0.7336
  186SLPC   H3R21400   2.035   2.726   7.130  1.3032 -1.4441  1.6570
  186SLPC   H3S21401   2.151   2.614   7.072  0.7912  1.1172  1.9579
  186SLPC   C2421402   1.933   2.597   6.988  0.1320 -0.3116  0.5906
  186SLPC   H4R21403   1.952   2.532   6.900  1.7849  0.4432  0.3397
  186SLPC   H4S21404   1.845   2.664   6.974 -1.5235 -2.6514 -0.9336
  186SLPC   C2521405   1.888   2.496   7.095  0.0698  0.2548  0.1473
  186SLPC   H5R21406   1.976   2.433   7.121 -0.1885 -1.4824 -2.7603
  186SLPC   H5S21407   1.816   2.424   7.050  0.0544  1.8417 -2.5545
  186SLPC   C2621408   1.822   2.556   7.222 -0.1954  0.0757 -0.2280
  186SLPC   H6R21409   1.732   2.618   7.204 -0.3106  0.7619  2.4265
  186SLPC   H6S21410   1.898   2.618   7.275  0.3003 -0.7336  0.0286
  186SLPC   C2721411   1.788   2.439   7.319  0.9085  0.1547  0.0421
  186SLPC   H7R21412   1.881   2.383   7.337 -0.5597 -2.2722  0.4629
  186SLPC   H7S21413   1.723   2.363   7.271 -0.0524  0.8415  0.2035
  186SLPC   C2821414   1.731   2.501   7.447  0.1421 -0.0383 -0.1818
  186SLPC   H8R21415   1.638   2.557   7.423  2.2384  3.3311 -1.1255
  186SLPC   H8S21416   1.794   2.577   7.499  1.4478 -2.4561  2.0271
  186SLPC   C2921417   1.703   2.394   7.553 -0.4368  0.3955  0.1714
  186SLPC   H9R21418   1.763   2.304   7.532 -0.5778  0.8432 -2.6246
  186SLPC  C21021419   1.603   2.395   7.649 -0.0795  0.3723 -0.2838
  186SLPC  H10R21420   1.585   2.300   7.701 -2.4733  0.5428 -0.6799
  186SLPC  C21121421   1.498   2.502   7.665  0.5620  0.7685 -0.1338
  186SLPC  H11R21422   1.451   2.508   7.564 -1.5731 -3.7652  0.3506
  186SLPC  H11S21423   1.550   2.598   7.683  0.8424  0.6000 -0.0502
  186SLPC  C21221424   1.394   2.484   7.764 -0.2663 -0.6376 -0.4877
  186SLPC  H12R21425   1.302   2.445   7.718 -1.1731  0.9192 -0.0362
  186SLPC  C21321426   1.397   2.509   7.889 -0.3485  0.4446  0.6447
  186SLPC  H13R21427   1.305   2.497   7.947 -1.0318 -0.8879 -0.6703
  186SLPC  C21421428   1.510   2.558   7.973 -0.1381 -0.0558 -0.2706
  186SLPC  H14R21429   1.606   2.527   7.926  0.1236 -0.6181  0.6124
  186SLPC  H14S21430   1.505   2.513   8.074  2.5415  1.9342  0.8774
  186SLPC  C21521431   1.509   2.714   7.992  0.1635 -0.2866  0.2966
  186SLPC  H15R21432   1.404   2.735   8.020  0.1673 -0.5058  0.4820
  186SLPC  H15S21433   1.531   2.773   7.900  0.9257 -1.2172 -0.1403
  186SLPC  C21621434   1.594   2.751   8.109  0.0934  0.0831  0.3953
  186SLPC  H16R21435   1.700   2.735   8.082  0.1046 -0.0201  0.4959
  186SLPC  H16S21436   1.566   2.684   8.194  1.9006 -0.6001  0.5052
  186SLPC  C21721437   1.574   2.899   8.155  0.1066  0.8899  0.3357
  186SLPC  H17R21438   1.471   2.910   8.195  0.2912 -0.0336  1.0905
  186SLPC  H17S21439   1.598   2.969   8.072 -1.1570  1.5426  0.4945
  186SLPC  C21821440   1.661   2.933   8.272  0.8629  0.4993 -0.7088
  186SLPC  H18R21441   1.656   2.857   8.353  1.1470 -0.2114 -1.3530
  186SLPC  H18S21442   1.629   3.036   8.300 -0.2924  0.6245 -2.3607
  186SLPC  H18T21443   1.770   2.935   8.254  1.0012 -2.1801 -0.6073
  186SLPC   C3321444   2.808   3.033   6.852 -0.2748  0.0007 -1.0731
  186SLPC   H3X21445   2.846   3.079   6.758  3.0361  2.0045  1.0454
  186SLPC   H3Y21446   2.891   2.998   6.917 -1.7569  2.2389  2.2720
  186SLPC   C3421447   2.732   3.151   6.927 -1.1128  0.4524  0.0958
  186SLPC   H4X21448   2.711   3.119   7.032 -0.1203  1.0775  0.5034
  186SLPC   H4Y21449   2.638   3.169   6.871 -0.8971 -0.5723 -0.6157
  186SLPC   C3521450   2.807   3.284   6.927  0.2143  0.1700 -0.1057
  186SLPC   H5X21451   2.811   3.308   6.819 -5.1490 -2.2974 -1.2173
  186SLPC   H5Y21452   2.907   3.289   6.976 -1.2518  0.6990  3.0958
  186SLPC   C3621453   2.722   3.402   6.984  0.1338 -0.0760 -0.4814
  186SLPC   H6X21454   2.696   3.374   7.089  2.1445 -0.9243 -0.1757
  186SLPC   H6Y21455   2.619   3.396   6.942 -0.4133 -1.0646  0.9253
  186SLPC   C3721456   2.792   3.541   6.979  0.2499  0.3949  0.0154
  186SLPC   H7X21457   2.722   3.612   7.027  1.0711  1.3660 -0.2133
  186SLPC   H7Y21458   2.807   3.576   6.875 -0.5729 -0.2639 -0.3416
  186SLPC   C3821459   2.923   3.548   7.057 -0.1167 -0.1696 -0.5752
  186SLPC   H8X21460   2.950   3.656   7.060 -0.0888 -0.1629  3.0070
  186SLPC   H8Y21461   3.004   3.489   7.009 -1.0662 -0.4568 -1.8913
  186SLPC   C3921462   2.905   3.506   7.210 -0.5524 -0.2122  0.4387
  186SLPC   H9X21463   2.875   3.400   7.216 -0.5820 -0.2414 -0.1503
  186SLPC   H9Y21464   2.819   3.566   7.245 -0.3852 -0.2118  0.8488
  186SLPC  C31021465   3.032   3.543   7.291 -0.4322 -0.5233 -0.2777
  186SLPC  H10X21466   3.060   3.644   7.256  1.3626 -1.0566 -0.4784
  186SLPC  H10Y21467   3.114   3.475   7.260  4.2085  2.9120  2.9941
  186SLPC  C31121468   3.015   3.541   7.444  0.3936 -0.0044  0.1127
  186SLPC  H11X21469   2.986   3.443   7.488 -2.9149  1.2082  0.9441
  186SLPC  H11Y21470   2.940   3.616   7.476 -1.1162 -0.5263 -2.0063
  186SLPC  C31221471   3.142   3.575   7.509 -0.1008 -0.3058 -0.0640
  186SLPC  H12X21472   3.175   3.672   7.466 -2.0526 -1.1290 -3.8438
  186SLPC  H12Y21473   3.210   3.489   7.493 -0.6824 -0.7543 -0.1380
  186SLPC  C31321474   3.117   3.582   7.661 -0.4610  0.2134 -0.3450
  186SLPC  H13X21475   3.044   3.504   7.691 -1.3345  1.1187 -0.0382
  186SLPC  H13Y21476   3.075   3.682   7.685  0.0133 -0.0042  1.5372
  186SLPC  C31421477   3.253   3.557   7.742  0.5092 -0.1292  0.7575
  186SLPC  H14X21478   3.329   3.621   7.692  0.5047  0.2512  1.2338
  186SLPC  H14Y21479   3.285   3.451   7.727 -0.2995  0.0201 -3.0900
  186SLPC  C31521480   3.239   3.580   7.898  0.4060 -0.2550 -0.4862
  186SLPC  H15X21481   3.161   3.511   7.939 -1.9699  2.7105  0.3531
  186SLPC  H15Y21482   3.199   3.683   7.910  0.4286 -0.2638 -0.3451
  186SLPC  C31621483   3.369   3.557   7.979 -0.0214  1.1717 -0.5393
  186SLPC  H16X21484   3.457   3.613   7.942  0.8940  0.8431  1.0626
  186SLPC  H16Y21485   3.399   3.455   7.946 -2.4313  0.5647 -1.0874
  186SLPC  C31721486   3.351   3.567   8.130  0.1612  0.3653  0.1762
  186SLPC  H17X21487   3.258   3.512   8.156 -1.0075  2.3873  0.4996
  186SLPC  H17Y21488   3.335   3.674   8.156 -0.6303  0.7032 -1.5622
  186SLPC  C31821489   3.459   3.502   8.216  0.1047 -0.1496  0.3159
  186SLPC  H18X21490   3.556   3.554   8.195  0.4909 -0.9826  0.0131
  186SLPC  H18Y21491   3.468   3.393   8.201 -5.1307 -0.7375 -0.2934
  186SLPC  H18Z21492   3.444   3.520   8.325 -0.3058 -1.3320  0.4683
  187SLPC     N21493   3.759   1.864   6.330 -0.4743  0.0564  0.6620
  187SLPC   C1321494   3.883   1.890   6.248  0.5034  0.1257 -0.5055
  187SLPC  H13A21495   3.949   1.806   6.236 -1.0320 -0.9979 -1.5065
  187SLPC  H13B21496   3.863   1.933   6.151  1.7369 -1.4661 -1.5132
  187SLPC  H13C21497   3.944   1.965   6.296  0.7838  1.1395 -2.3505
  187SLPC   C1421498   3.666   1.767   6.264 -0.7981  0.8185 -0.4201
  187SLPC  H14A21499   3.616   1.802   6.175 -2.6491  1.2734  0.7375
  187SLPC  H14B21500   3.728   1.683   6.239 -0.4749  0.5161  1.2829
  187SLPC  H14C21501   3.597   1.728   6.337 -0.0236 -0.3140 -0.2764
  187SLPC   C1521502   3.691   1.998   6.343  0.0104 -0.1219  0.0925
  187SLPC  H15A21503   3.666   2.033   6.244 -0.6381 -0.5150  0.1132
  187SLPC  H15B21504   3.599   1.997   6.399  0.3405 -0.0610  0.6379
  187SLPC  H15C21505   3.757   2.073   6.384  1.3036 -0.7962 -0.6684
  187SLPC   C1221506   3.806   1.814   6.459 -0.2904 -0.7044  1.0580
  187SLPC  H12A21507   3.863   1.890   6.511 -0.8649  0.1427  0.4700
  187SLPC  H12B21508   3.878   1.736   6.439 -0.3482 -0.5766  0.3254
  187SLPC   C1121509   3.721   1.756   6.569  0.1966  0.0885 -0.1129
  187SLPC  H11A21510   3.635   1.823   6.589  0.3668  0.9969 -2.1176
  187SLPC  H11B21511   3.785   1.749   6.659 -0.7295  2.3614  0.7926
  187SLPC     P21512   3.754   1.494   6.542  0.1669  0.0724 -0.0417
  187SLPC   O1321513   3.730   1.414   6.421 -0.1487  0.0435  0.4217
  187SLPC   O1421514   3.891   1.524   6.580 -0.3355  0.3423 -0.5750
  187SLPC   O1221515   3.672   1.627   6.532 -0.1789 -0.1679  0.2798
  187SLPC   O1121516   3.689   1.427   6.666 -0.5563  0.0684  0.2012
  187SLPC    C121517   3.597   1.480   6.755  0.1061  0.3678  0.0257
  187SLPC    HA21518   3.638   1.562   6.819  1.2317  0.5154 -0.8669
  187SLPC    HB21519   3.510   1.520   6.698  0.7643  1.1372 -0.4520
  187SLPC    C221520   3.542   1.359   6.836  0.1092 -0.1184 -0.6536
  187SLPC    HS21521   3.459   1.391   6.902 -0.8000  0.6916 -2.1361
  187SLPC   O2121522   3.644   1.290   6.913 -0.1058  0.1408  0.7883
  187SLPC   C2121523   3.706   1.365   7.004  0.5900 -0.0008 -0.2307
  187SLPC   O2221524   3.683   1.482   7.035 -0.1255  0.5177  0.0275
  187SLPC   C2221525   3.810   1.283   7.073  0.7077  0.9155 -0.0044
  187SLPC   H2R21526   3.837   1.199   7.005 -0.2773  1.4228 -1.0696
  187SLPC   H2S21527   3.898   1.349   7.089  0.2629  1.5204 -0.0129
  187SLPC    C321528   3.473   1.260   6.740 -0.9940 -0.4452  0.9325
  187SLPC    HX21529   3.553   1.197   6.696  1.3638  1.1458  2.6682
  187SLPC    HY21530   3.420   1.318   6.662  1.3323  0.1724 -0.2990
  187SLPC   O3121531   3.393   1.173   6.816 -0.4540 -0.2999 -0.5120
  187SLPC   C3121532   3.334   1.077   6.757  0.0601  0.3220 -0.4480
  187SLPC   O3221533   3.331   1.059   6.635 -0.7971  0.2723  0.0068
  187SLPC   C3221534   3.247   0.995   6.858  0.1569  0.3426  0.1120
  187SLPC   H2X21535   3.303   0.901   6.878  3.8354  2.4897  0.6593
  187SLPC   H2Y21536   3.159   0.967   6.796  0.2785 -0.0843  0.1318
  187SLPC   C2321537   3.755   1.238   7.211  0.1858  0.0561  0.8201
  187SLPC   H3R21538   3.825   1.166   7.259 -0.2300 -0.6801  0.3389
  187SLPC   H3S21539   3.653   1.195   7.202  0.3821 -0.7803  2.2257
  187SLPC   C2421540   3.754   1.359   7.311  0.4794 -0.1434  0.4455
  187SLPC   H4R21541   3.658   1.412   7.292  0.0178 -1.7050 -2.0710
  187SLPC   H4S21542   3.841   1.422   7.284  1.1012 -2.0829 -2.6010
  187SLPC   C2521543   3.752   1.331   7.461 -0.6787 -0.4555  0.4578
  187SLPC   H5R21544   3.843   1.272   7.486 -1.8229 -1.7649  1.7981
  187SLPC   H5S21545   3.661   1.273   7.489 -0.8992 -0.1627  0.3592
  187SLPC   C2621546   3.735   1.465   7.545 -0.8792  0.1419 -0.3580
  187SLPC   H6R21547   3.637   1.507   7.513 -1.4387  1.2776  2.5273
  187SLPC   H6S21548   3.827   1.524   7.525  0.0593 -0.6758  1.3255
  187SLPC   C2721549   3.719   1.438   7.696  0.4482 -0.5425 -0.3583
  187SLPC   H7R21550   3.803   1.390   7.751 -1.1053 -1.2267  1.5106
  187SLPC   H7S21551   3.625   1.380   7.707 -0.7047  1.5776  1.9861
  187SLPC   C2821552   3.701   1.565   7.786 -0.4986  0.5030 -0.0836
  187SLPC   H8R21553   3.678   1.527   7.888  0.6320  1.8443  0.7188
  187SLPC   H8S21554   3.601   1.606   7.758 -0.2287  0.7840 -0.6543
  187SLPC   C2921555   3.798   1.674   7.782  0.0677 -0.1215  0.0361
  187SLPC   H9R21556   3.852   1.671   7.687 -1.2486 -1.3818 -0.7239
  187SLPC  C21021557   3.838   1.750   7.881  0.0434 -0.4850  0.2059
  187SLPC  H10R21558   3.921   1.820   7.867 -0.0636 -0.5645 -0.8850
  187SLPC  C21121559   3.780   1.751   8.020 -0.1155  0.0031 -0.1042
  187SLPC  H11R21560   3.856   1.714   8.092  0.1388  1.6352  0.4862
  187SLPC  H11S21561   3.691   1.684   8.031  0.9346 -2.0053 -2.5815
  187SLPC  C21221562   3.762   1.892   8.073 -0.3350 -0.8388 -0.7154
  187SLPC  H12R21563   3.863   1.936   8.078 -0.5923 -0.3718  0.6895
  187SLPC  C21321564   3.649   1.962   8.080 -0.1800  0.5817  0.4575
  187SLPC  H13R21565   3.659   2.070   8.102  0.7820  0.8665 -1.1969
  187SLPC  C21421566   3.511   1.915   8.046 -0.5318  0.4393 -0.4473
  187SLPC  H14R21567   3.436   1.959   8.115  0.5244  2.9113 -0.7838
  187SLPC  H14S21568   3.497   1.805   8.057 -1.5047  0.7768  2.4855
  187SLPC  C21521569   3.466   1.932   7.899 -0.7584 -0.1577 -1.0066
  187SLPC  H15R21570   3.382   1.861   7.878 -1.1339 -0.2970  0.8267
  187SLPC  H15S21571   3.541   1.890   7.829 -2.5291  1.1132 -3.8657
  187SLPC  C21621572   3.439   2.072   7.850  0.7384  0.1815  0.1830
  187SLPC  H16R21573   3.420   2.065   7.741 -0.4773 -0.8167  0.4381
  187SLPC  H16S21574   3.529   2.132   7.877 -0.2375  1.6226  0.3402
  187SLPC  C21721575   3.328   2.152   7.925  0.9690 -0.4211 -0.0532
  187SLPC  H17R21576   3.351   2.159   8.033 -0.8067 -0.7531  0.3732
  187SLPC  H17S21577   3.233   2.094   7.919  0.9372 -0.5405  1.3063
  187SLPC  C21821578   3.306   2.288   7.860  0.2593  0.6734  0.3798
  187SLPC  H18R21579   3.394   2.353   7.876  0.4465  0.0884  2.0129
  187SLPC  H18S21580   3.214   2.332   7.906 -1.0151 -2.6312  1.3079
  187SLPC  H18T21581   3.291   2.266   7.752 -1.2214 -0.1726  0.7250
  187SLPC   C3321582   3.200   1.059   6.989 -0.6656 -0.0589 -0.1105
  187SLPC   H3X21583   3.110   1.014   7.035 -1.1955  0.8858 -0.2047
  187SLPC   H3Y21584   3.156   1.159   6.966  1.5377  1.1916  0.7034
  187SLPC   C3421585   3.309   1.081   7.092  0.3065  0.2530 -0.1175
  187SLPC   H4X21586   3.394   1.141   7.056  0.6971 -0.6199 -0.6880
  187SLPC   H4Y21587   3.349   0.980   7.114 -0.1079  0.7033  3.2117
  187SLPC   C3521588   3.257   1.141   7.219 -0.3329  0.0151 -1.2339
  187SLPC   H5X21589   3.191   1.072   7.276 -0.2351 -1.5099 -2.8798
  187SLPC   H5Y21590   3.189   1.223   7.189 -0.3191  0.3560 -0.3799
  187SLPC   C3621591   3.383   1.197   7.294 -0.2061  0.1739  0.0527
  187SLPC   H6X21592   3.435   1.275   7.235  0.0086  0.6828  0.8830
  187SLPC   H6Y21593   3.463   1.121   7.304 -0.0261 -0.0847 -2.6301
  187SLPC   C3721594   3.354   1.255   7.430  0.5041 -0.1237 -0.5071
  187SLPC   H7X21595   3.438   1.315   7.471 -0.1221  0.2406  0.2661
  187SLPC   H7Y21596   3.265   1.322   7.425 -0.8395 -1.8822 -1.2754
  187SLPC   C3821597   3.324   1.138   7.519  0.2722 -0.1516 -0.6800
  187SLPC   H8X21598   3.377   1.043   7.497  1.0690  0.4632 -1.4918
  187SLPC   H8Y21599   3.218   1.128   7.487  0.1188  2.7425 -1.3486
  187SLPC   C3921600   3.324   1.166   7.674  0.3481  0.5237 -0.2406
  187SLPC   H9X21601   3.232   1.118   7.715 -0.5022  1.2595 -1.2479
  187SLPC   H9Y21602   3.297   1.271   7.698 -1.6420  0.0260 -0.1332
  187SLPC  C31021603   3.450   1.126   7.743 -0.1108 -0.7444  0.1193
  187SLPC  H10X21604   3.535   1.175   7.690 -0.0315 -0.1485  0.7724
  187SLPC  H10Y21605   3.479   1.022   7.719  0.1126 -0.2668 -1.8454
  187SLPC  C31121606   3.451   1.172   7.891 -0.6467  0.0905  0.3312
  187SLPC  H11X21607   3.434   1.282   7.896  1.9766  0.5123  1.6284
  187SLPC  H11Y21608   3.560   1.159   7.906 -0.2111 -3.4606 -3.9944
  187SLPC  C31221609   3.368   1.085   7.980  0.8545 -0.0241  0.5694
  187SLPC  H12X21610   3.377   0.980   7.945 -1.1570 -0.4886  1.2957
  187SLPC  H12Y21611   3.263   1.116   7.962  1.2353  0.7115 -0.4726
  187SLPC  C31321612   3.389   1.080   8.131 -0.4968 -0.0871 -0.2033
  187SLPC  H13X21613   3.379   1.189   8.153 -0.3285  0.2851 -1.8332
  187SLPC  H13Y21614   3.495   1.056   8.149 -0.8683 -0.4654  1.6142
  187SLPC  C31421615   3.288   0.985   8.196 -0.1030  0.2823  0.0692
  187SLPC  H14X21616   3.320   0.975   8.302  1.0446  1.8239 -0.1027
  187SLPC  H14Y21617   3.324   0.881   8.177  1.0414  0.6475  0.1435
  187SLPC  C31521618   3.135   0.986   8.164 -0.4421  0.2343 -0.6374
  187SLPC  H15X21619   3.079   0.891   8.177 -2.1074  1.1523 -0.8381
  187SLPC  H15Y21620   3.124   1.023   8.060 -1.3844 -1.5688 -1.2268
  187SLPC  C31621621   3.065   1.086   8.262 -0.5288 -0.0613  0.2298
  187SLPC  H16X21622   3.134   1.173   8.267  1.9774 -1.9847  1.7278
  187SLPC  H16Y21623   3.065   1.037   8.362  1.6958  0.9736  0.8040
  187SLPC  C31721624   2.926   1.126   8.216 -0.7846  0.1303 -0.0703
  187SLPC  H17X21625   2.872   1.029   8.218  0.2446 -0.4984  2.5830
  187SLPC  H17Y21626   2.934   1.169   8.114  2.3133 -0.3881 -0.1652
  187SLPC  C31821627   2.855   1.218   8.309 -0.1141  0.0444 -0.7010
  187SLPC  H18X21628   2.748   1.220   8.276 -0.0179 -1.0839 -1.1068
  187SLPC  H18Y21629   2.890   1.323   8.300  1.2960 -0.5205 -2.3067
  187SLPC  H18Z21630   2.862   1.189   8.416  2.0581  1.8611 -0.2858
  188SLPC     N21631   5.525   6.383   6.088 -0.3402  0.1052 -0.2330
  188SLPC   C1321632   5.533   6.232   6.089  0.2187 -0.1056  0.6952
  188SLPC  H13A21633   5.629   6.192   6.117  1.2069 -0.9641 -3.3104
  188SLPC  H13B21634   5.469   6.178   6.158 -0.0870  0.6756  1.0414
  188SLPC  H13C21635   5.511   6.194   5.991 -2.0437  2.3544  0.1150
  188SLPC   C1421636   5.397   6.435   6.044 -0.0690  0.0655 -0.3457
  188SLPC  H14A21637   5.396   6.542   6.063  3.9700 -0.1699  2.5041
  188SLPC  H14B21638   5.379   6.408   5.941 -3.0204 -2.7837  0.7381
  188SLPC  H14C21639   5.321   6.390   6.107 -0.1792  1.3989  0.5217
  188SLPC   C1521640   5.627   6.435   5.998 -0.2064  0.1980 -0.1732
  188SLPC  H15A21641   5.727   6.399   6.017 -0.5848  0.4328  2.5799
  188SLPC  H15B21642   5.596   6.414   5.896  0.4825 -0.2282 -0.3041
  188SLPC  H15C21643   5.639   6.542   6.010 -1.5427  0.3334  0.1288
  188SLPC   C1221644   5.547   6.423   6.236  0.3382  0.0941 -0.5174
  188SLPC  H12A21645   5.635   6.375   6.275 -0.2284 -0.0848  0.5866
  188SLPC  H12B21646   5.473   6.390   6.308  1.1675  1.0381  0.8242
  188SLPC   C1121647   5.564   6.576   6.267 -0.5424 -0.6293 -0.3103
  188SLPC  H11A21648   5.663   6.597   6.221  1.6180 -2.3021  3.1364
  188SLPC  H11B21649   5.577   6.604   6.374 -0.6587  1.5726 -0.8393
  188SLPC     P21650   5.496   6.800   6.152 -0.0417 -0.1206  0.0799
  188SLPC   O1321651   5.545   6.758   6.019  0.1079  0.1327 -0.4529
  188SLPC   O1421652   5.384   6.888   6.158 -0.2374 -0.3877 -0.3241
  188SLPC   O1221653   5.458   6.662   6.231 -0.3125  0.1194  0.6011
  188SLPC   O1121654   5.618   6.851   6.244 -0.0166  0.2966 -0.2346
  188SLPC    C121655   5.603   6.875   6.381  0.5882  0.3067 -0.0365
  188SLPC    HA21656   5.516   6.944   6.384 -0.8130 -1.3974  0.0987
  188SLPC    HB21657   5.585   6.785   6.444  0.6515 -0.0222 -0.4913
  188SLPC    C221658   5.721   6.949   6.455 -0.1657 -0.3503 -0.0070
  188SLPC    HS21659   5.757   7.032   6.391  0.0130  0.6407  1.3421
  188SLPC   O2121660   5.826   6.850   6.474  0.2717  0.6232  0.3479
  188SLPC   C2121661   5.936   6.857   6.404  0.5401  0.2066  0.7504
  188SLPC   O2221662   5.956   6.936   6.312 -0.2893  0.4076 -0.0109
  188SLPC   C2221663   6.037   6.753   6.451 -0.1045 -0.6491  0.3889
  188SLPC   H2R21664   6.012   6.712   6.551 -1.8680  0.4048  0.4362
  188SLPC   H2S21665   6.032   6.666   6.381  0.6448 -0.8367  0.5622
  188SLPC    C321666   5.675   7.005   6.587  0.1289  0.0885 -0.2536
  188SLPC    HX21667   5.638   6.911   6.634 -0.4861  1.4588  2.1749
  188SLPC    HY21668   5.583   7.068   6.587  1.2627  1.8298 -0.4375
  188SLPC   O3121669   5.776   7.070   6.671  0.5044 -0.1092  0.0057
  188SLPC   C3121670   5.817   7.188   6.621 -0.5362  0.5937 -0.2545
  188SLPC   O3221671   5.762   7.257   6.539 -0.5575  0.2528  0.0467
  188SLPC   C3221672   5.934   7.223   6.701  0.1404  0.0467  0.3456
  188SLPC   H2X21673   6.022   7.178   6.651 -1.3492 -2.8718  0.1329
  188SLPC   H2Y21674   5.927   7.170   6.799 -0.1767  1.7605  1.2915
  188SLPC   C2321675   6.185   6.794   6.451  0.2646  0.0236 -0.3837
  188SLPC   H3R21676   6.196   6.889   6.395 -2.6462  2.1493  2.3238
  188SLPC   H3S21677   6.240   6.710   6.403  0.5177 -1.3305  2.0805
  188SLPC   C2421678   6.252   6.804   6.591 -0.0985  0.2479  0.3839
  188SLPC   H4R21679   6.360   6.782   6.580 -0.5080 -1.5598 -0.3897
  188SLPC   H4S21680   6.208   6.730   6.660 -0.6289  1.1542  1.0502
  188SLPC   C2521681   6.216   6.944   6.646  0.5405 -0.5754 -0.4743
  188SLPC   H5R21682   6.115   6.977   6.614 -0.3982 -2.8785 -0.0603
  188SLPC   H5S21683   6.297   7.018   6.625  1.1110 -0.1518  2.6843
  188SLPC   C2621684   6.217   6.935   6.800 -0.0087  0.0625  0.0207
  188SLPC   H6R21685   6.309   6.878   6.825 -0.1523  0.2879  1.0943
  188SLPC   H6S21686   6.130   6.882   6.844 -0.9301  1.0232 -0.5968
  188SLPC   C2721687   6.218   7.068   6.879 -0.6846  0.9622  0.6361
  188SLPC   H7R21688   6.127   7.130   6.864 -2.1020 -0.9344  1.0601
  188SLPC   H7S21689   6.310   7.124   6.853  2.0696 -2.7900  1.4098
  188SLPC   C2821690   6.229   7.049   7.029 -0.7062 -0.6500  0.4182
  188SLPC   H8R21691   6.322   6.995   7.058 -0.5636 -0.7289 -0.1753
  188SLPC   H8S21692   6.143   6.992   7.069  0.2840 -0.5685  2.8349
  188SLPC   C2921693   6.246   7.187   7.098  0.6505  0.0135  0.3517
  188SLPC   H9R21694   6.268   7.263   7.022 -0.8304 -2.4155 -2.8017
  188SLPC  C21021695   6.231   7.222   7.224 -0.3982 -0.2140  0.1917
  188SLPC  H10R21696   6.252   7.325   7.256  0.0429 -0.2383 -0.0024
  188SLPC  C21121697   6.206   7.128   7.339  0.6596  0.3452 -0.1626
  188SLPC  H11R21698   6.159   7.034   7.303  1.9108 -0.7913  1.0682
  188SLPC  H11S21699   6.127   7.176   7.400  0.4778  0.1559 -0.2506
  188SLPC  C21221700   6.328   7.095   7.417  0.2882 -0.4794 -0.6042
  188SLPC  H12R21701   6.418   7.128   7.363  0.5076  0.4110  0.2845
  188SLPC  C21321702   6.344   7.043   7.545  0.7486 -0.4529  0.6528
  188SLPC  H13R21703   6.442   7.019   7.586  1.2504  2.3453  1.3241
  188SLPC  C21421704   6.222   7.008   7.629  0.0307 -0.2151  0.4468
  188SLPC  H14R21705   6.228   6.897   7.639 -1.6254 -0.3050  0.6141
  188SLPC  H14S21706   6.124   7.037   7.587  0.9728  2.2889 -0.2006
  188SLPC  C21521707   6.240   7.074   7.773  0.2400  0.6295 -0.0428
  188SLPC  H15R21708   6.333   7.023   7.805 -0.9830 -1.8764 -0.1720
  188SLPC  H15S21709   6.159   7.043   7.844 -0.8821 -0.3754 -1.6854
  188SLPC  C21621710   6.258   7.224   7.783  0.3775 -0.4473 -0.4062
  188SLPC  H16R21711   6.166   7.274   7.745 -0.9032 -0.4738  2.3541
  188SLPC  H16S21712   6.340   7.250   7.713  0.0132  3.4935  0.4129
  188SLPC  C21721713   6.298   7.281   7.923 -0.4228 -0.3842 -0.0638
  188SLPC  H17R21714   6.287   7.390   7.909  1.6661 -0.3217 -1.6851
  188SLPC  H17S21715   6.399   7.244   7.953  1.0643  1.7346 -2.1168
  188SLPC  C21821716   6.197   7.233   8.042 -0.7029 -0.2948  0.5199
  188SLPC  H18R21717   6.209   7.123   8.055 -0.2369 -0.1682  1.2023
  188SLPC  H18S21718   6.097   7.255   7.999 -0.7735  0.6615  1.1610
  188SLPC  H18T21719   6.209   7.272   8.145 -0.2573 -0.3656  0.4978
  188SLPC   C3321720   5.935   7.374   6.733 -0.1917  0.5465  1.0057
  188SLPC   H3X21721   5.838   7.419   6.765 -0.3382  1.4550 -0.5847
  188SLPC   H3Y21722   5.966   7.431   6.643 -0.2528 -1.8759 -0.6258
  188SLPC   C3421723   6.045   7.414   6.828  0.0211 -0.3710 -0.4635
  188SLPC   H4X21724   6.142   7.382   6.783  1.4305  2.8847 -0.0251
  188SLPC   H4Y21725   6.025   7.359   6.923 -0.6514  1.1097  0.2767
  188SLPC   C3521726   6.056   7.562   6.849  0.6606 -0.4848  0.4071
  188SLPC   H5X21727   5.954   7.604   6.867  1.2382  0.4726  1.6309
  188SLPC   H5Y21728   6.079   7.622   6.759 -1.3001  2.7830  1.8794
  188SLPC   C3621729   6.141   7.605   6.968 -0.1539 -0.4259 -0.0989
  188SLPC   H6X21730   6.240   7.559   6.947 -0.1425 -1.1576  1.3640
  188SLPC   H6Y21731   6.099   7.553   7.057  1.4285 -1.7449 -0.0853
  188SLPC   C3721732   6.143   7.759   7.001 -0.7417 -0.0862 -0.2075
  188SLPC   H7X21733   6.061   7.791   7.068  0.4083  1.7737  0.3947
  188SLPC   H7Y21734   6.130   7.814   6.906 -0.0192 -0.9577 -0.8254
  188SLPC   C3821735   6.281   7.800   7.064 -0.2199 -0.0188 -0.6086
  188SLPC   H8X21736   6.284   7.910   7.050 -0.4109  0.1796  0.7664
  188SLPC   H8Y21737   6.376   7.758   7.024  0.4902 -0.0995  1.0958
  188SLPC   C3921738   6.290   7.789   7.221 -0.7936 -0.4863 -0.4351
  188SLPC   H9X21739   6.184   7.796   7.253 -0.2571 -0.6582  1.5660
  188SLPC   H9Y21740   6.358   7.864   7.269 -0.9731 -1.2956  1.1656
  188SLPC  C31021741   6.333   7.649   7.272 -0.6315  0.8672  0.8469
  188SLPC  H10X21742   6.432   7.624   7.228 -0.2667  0.3563  1.9244
  188SLPC  H10Y21743   6.264   7.570   7.238 -0.6568  0.0526  2.6590
  188SLPC  C31121744   6.344   7.637   7.428  0.4629 -1.1872 -0.8362
  188SLPC  H11X21745   6.409   7.723   7.457 -2.0009  0.4097  0.2732
  188SLPC  H11Y21746   6.396   7.544   7.460 -4.6600 -3.9140  0.5895
  188SLPC  C31221747   6.201   7.634   7.485  0.0024  0.2494 -1.2614
  188SLPC  H12X21748   6.142   7.548   7.447 -2.8256  1.0144  1.0339
  188SLPC  H12Y21749   6.133   7.717   7.457 -2.1059 -0.6428  0.8367
  188SLPC  C31321750   6.200   7.627   7.637  0.2668  0.3468 -0.7460
  188SLPC  H13X21751   6.253   7.535   7.669 -0.5484 -0.0382 -0.4932
  188SLPC  H13Y21752   6.093   7.615   7.662  0.8455 -0.5915  1.4604
  188SLPC  C31421753   6.260   7.755   7.709  0.0154  0.1425  0.5927
  188SLPC  H14X21754   6.177   7.829   7.713 -2.6266 -2.5972  0.2078
  188SLPC  H14Y21755   6.349   7.795   7.657 -0.0724 -1.4772 -0.8780
  188SLPC  C31521756   6.303   7.732   7.854  0.0821 -0.5594  0.5249
  188SLPC  H15X21757   6.402   7.682   7.846 -0.6262 -2.1662  1.3805
  188SLPC  H15Y21758   6.235   7.666   7.912 -0.3212 -2.2164 -1.7066
  188SLPC  C31621759   6.315   7.876   7.924  0.1073  0.0218 -0.4016
  188SLPC  H16X21760   6.212   7.900   7.958  0.4867 -0.2939  1.0170
  188SLPC  H16Y21761   6.348   7.961   7.860  0.6825  0.5784  0.6016
  188SLPC  C31721762   6.413   7.871   8.045  0.3672  0.9101  0.0851
  188SLPC  H17X21763   6.519   7.868   8.012  0.5403 -1.6928  0.6541
  188SLPC  H17Y21764   6.398   7.771   8.090 -0.1865  0.0336 -1.9506
  188SLPC  C31821765   6.395   7.974   8.159 -0.7327  0.4651  0.3742
  188SLPC  H18X21766   6.484   7.959   8.224 -0.1378 -0.1075 -0.5637
  188SLPC  H18Y21767   6.302   7.948   8.215 -0.5426 -2.0996 -0.3700
  188SLPC  H18Z21768   6.402   8.078   8.122  0.3324  0.4680  0.5532
  189SLPC     N21769   5.152   1.895   5.986  0.3478 -0.4930  0.6012
  189SLPC   C1321770   5.105   2.036   5.990  0.7041  0.2689 -0.2053
  189SLPC  H13A21771   4.997   2.035   5.991  0.6049 -3.4209  0.6443
  189SLPC  H13B21772   5.135   2.089   6.080  1.2255  0.0534 -0.2545
  189SLPC  H13C21773   5.137   2.089   5.902  2.0225 -2.2069 -1.2960
  189SLPC   C1421774   5.295   1.890   6.034  0.5077 -0.1604  0.1617
  189SLPC  H14A21775   5.293   1.916   6.138 -1.0205  1.2508 -0.1695
  189SLPC  H14B21776   5.335   1.791   6.021  1.4383 -0.0400  1.8797
  189SLPC  H14C21777   5.357   1.961   5.982  1.5227 -1.4191 -0.4008
  189SLPC   C1521778   5.134   1.845   5.843 -0.0167  0.1528  0.7592
  189SLPC  H15A21779   5.171   1.913   5.768 -0.7797  1.7289  1.7549
  189SLPC  H15B21780   5.186   1.751   5.829 -0.5717 -0.0885  0.2916
  189SLPC  H15C21781   5.029   1.836   5.820  0.1097  2.1138 -0.8224
  189SLPC   C1221782   5.064   1.808   6.079 -1.0944  0.1942  0.6503
  189SLPC  H12A21783   5.114   1.712   6.089  0.6032  0.9498 -0.1082
  189SLPC  H12B21784   4.970   1.790   6.030 -0.5855  0.7841 -0.5670
  189SLPC   C1121785   5.034   1.848   6.225 -0.2613  0.2897 -0.0989
  189SLPC  H11A21786   5.137   1.856   6.266  0.5942  0.2838 -2.1161
  189SLPC  H11B21787   4.976   1.764   6.268  0.3565 -1.2978 -2.1741
  189SLPC     P21788   4.804   1.943   6.214 -0.4308  0.1946 -0.4637
  189SLPC   O1321789   4.738   2.073   6.201 -0.3900  0.2990 -0.2174
  189SLPC   O1421790   4.771   1.850   6.100  0.3569 -0.2105 -0.0890
  189SLPC   O1221791   4.960   1.966   6.220 -0.8325 -0.0235  0.2969
  189SLPC   O1121792   4.758   1.864   6.342 -0.1469 -0.5204  0.1779
  189SLPC    C121793   4.770   1.932   6.468  0.4128  0.0560 -0.4820
  189SLPC    HA21794   4.805   1.859   6.544  1.1567  0.0643 -0.8059
  189SLPC    HB21795   4.845   2.014   6.462 -0.5020  0.8185 -1.9212
  189SLPC    C221796   4.632   1.997   6.512 -0.4181 -0.7481 -0.2501
  189SLPC    HS21797   4.631   2.088   6.448  1.5909 -0.1647  0.4754
  189SLPC   O2121798   4.640   2.025   6.653 -0.5468  0.1937  0.0534
  189SLPC   C2121799   4.555   2.104   6.706  0.8186 -0.6751 -0.7766
  189SLPC   O2221800   4.480   2.180   6.643 -0.1116 -0.6081 -0.7146
  189SLPC   C2221801   4.567   2.094   6.855 -0.1309  0.0294 -0.6194
  189SLPC   H2R21802   4.561   1.987   6.885  1.3572  0.2126  0.4587
  189SLPC   H2S21803   4.671   2.126   6.879 -0.1346 -1.8405  2.3889
  189SLPC    C321804   4.509   1.901   6.492 -0.7243 -0.4172  0.4282
  189SLPC    HX21805   4.506   1.887   6.382  1.1098  3.1885 -0.2605
  189SLPC    HY21806   4.416   1.949   6.529  0.5593  1.3039  1.6213
  189SLPC   O3121807   4.535   1.778   6.556  0.5546 -0.0579  0.0385
  189SLPC   C3121808   4.479   1.755   6.675  0.4162 -0.3212  0.7091
  189SLPC   O3221809   4.419   1.840   6.737 -0.1719 -0.4646 -0.8667
  189SLPC   C3221810   4.506   1.612   6.721 -0.2023 -0.5410  0.0049
  189SLPC   H2X21811   4.607   1.574   6.694  0.1573  1.4357 -1.6601
  189SLPC   H2Y21812   4.424   1.555   6.673 -0.2461  0.4124 -1.1011
  189SLPC   C2321813   4.460   2.175   6.935  0.6523 -0.0051  0.3284
  189SLPC   H3R21814   4.356   2.146   6.906  0.6583  0.9250 -0.6657
  189SLPC   H3S21815   4.467   2.282   6.908  1.6164 -0.1428 -0.0036
  189SLPC   C2421816   4.455   2.154   7.086  0.0692 -0.1183  0.8412
  189SLPC   H4R21817   4.407   2.055   7.102 -2.1680  1.0561  1.8054
  189SLPC   H4S21818   4.391   2.236   7.126  0.5274  0.0803  1.1841
  189SLPC   C2521819   4.588   2.166   7.158  1.0771  0.1220  0.1295
  189SLPC   H5R21820   4.631   2.266   7.136  0.4052 -0.0318 -2.0382
  189SLPC   H5S21821   4.656   2.089   7.115  1.2746  1.7949 -2.8195
  189SLPC   C2621822   4.569   2.155   7.309  0.5500  1.1185  0.0440
  189SLPC   H6R21823   4.482   2.216   7.342  0.2762  2.2970 -2.5661
  189SLPC   H6S21824   4.659   2.201   7.355  1.0690  2.2191 -1.9275
  189SLPC   C2721825   4.550   2.009   7.366  0.4002  0.3129  0.7708
  189SLPC   H7R21826   4.632   1.942   7.330 -0.1002 -0.8922  1.8020
  189SLPC   H7S21827   4.457   1.967   7.323  1.2803  0.4718 -1.4493
  189SLPC   C2821828   4.544   2.011   7.519  0.0523 -0.7426 -0.4333
  189SLPC   H8R21829   4.479   2.093   7.557  3.0234  1.5525  0.1200
  189SLPC   H8S21830   4.641   2.049   7.556 -0.7640  1.9009 -0.7842
  189SLPC   C2921831   4.500   1.885   7.594  0.0734 -0.7763 -0.5923
  189SLPC   H9R21832   4.476   1.801   7.528 -0.4689  1.3847 -3.3466
  189SLPC  C21021833   4.489   1.887   7.726 -0.4742 -0.2870  0.2375
  189SLPC  H10R21834   4.454   1.798   7.781  0.6357  0.0540  1.5561
  189SLPC  C21121835   4.539   1.993   7.820  0.9417  0.2680  0.4912
  189SLPC  H11R21836   4.444   2.018   7.872 -0.2753  1.5336 -2.1705
  189SLPC  H11S21837   4.566   2.091   7.775  0.2918  0.7978  1.2261
  189SLPC  C21221838   4.649   1.941   7.916  0.3271 -0.2172  0.2537
  189SLPC  H12R21839   4.748   1.953   7.870  1.3896 -0.2801  2.4002
  189SLPC  C21321840   4.624   1.896   8.039 -0.2850 -0.3435 -0.3704
  189SLPC  H13R21841   4.709   1.863   8.100  0.1178  0.2721 -0.5898
  189SLPC  C21421842   4.481   1.889   8.097 -0.0633  0.5242  0.6609
  189SLPC  H14R21843   4.476   1.815   8.180 -1.3106 -1.1919 -0.8743
  189SLPC  H14S21844   4.410   1.845   8.023  1.3053 -1.6404  0.5589
  189SLPC  C21521845   4.413   2.018   8.147 -0.2993 -0.3206  0.3803
  189SLPC  H15R21846   4.430   2.089   8.064  0.7145  0.4894  1.2548
  189SLPC  H15S21847   4.464   2.051   8.240 -0.1977  1.3168 -0.2357
  189SLPC  C21621848   4.263   2.010   8.193  0.3938 -0.0021 -0.5063
  189SLPC  H16R21849   4.262   1.959   8.291  0.8698 -1.3115 -1.1607
  189SLPC  H16S21850   4.206   1.952   8.117  0.2497  0.6281 -0.8902
  189SLPC  C21721851   4.199   2.151   8.202  0.1075 -0.1887 -0.3794
  189SLPC  H17R21852   4.225   2.201   8.106  1.6344  1.2153  0.7044
  189SLPC  H17S21853   4.245   2.210   8.285 -1.2831 -0.4377  0.6092
  189SLPC  C21821854   4.043   2.162   8.228  0.0931  0.2404  0.2389
  189SLPC  H18R21855   3.981   2.104   8.155 -1.6721  0.9791  1.0849
  189SLPC  H18S21856   4.019   2.270   8.224  0.1320  0.2281 -0.8913
  189SLPC  H18T21857   4.026   2.136   8.334  1.3690 -2.4116 -0.1090
  189SLPC   C3321858   4.506   1.610   6.878 -0.3763 -0.0651 -0.5860
  189SLPC   H3X21859   4.512   1.504   6.911 -0.0983 -0.0544 -0.5967
  189SLPC   H3Y21860   4.415   1.659   6.918  0.6734  2.7834 -1.4616
  189SLPC   C3421861   4.639   1.671   6.929  0.0535  0.7378 -0.0664
  189SLPC   H4X21862   4.640   1.781   6.918  0.4917  0.6244 -1.4129
  189SLPC   H4Y21863   4.720   1.633   6.863 -1.2584 -1.6676 -0.4293
  189SLPC   C3521864   4.670   1.619   7.072  0.2295  0.0565 -0.7959
  189SLPC   H5X21865   4.778   1.613   7.094 -0.0930  0.3453  1.0153
  189SLPC   H5Y21866   4.644   1.511   7.072  0.7811 -0.0887  0.4617
  189SLPC   C3621867   4.607   1.686   7.191 -0.5482 -0.2636 -0.3644
  189SLPC   H6X21868   4.497   1.680   7.203 -0.5251 -0.9751 -0.4214
  189SLPC   H6Y21869   4.634   1.792   7.176 -1.6026  0.0989  0.2028
  189SLPC   C3721870   4.673   1.641   7.320 -1.1773  0.3901  0.5532
  189SLPC   H7X21871   4.671   1.716   7.402  2.4695 -0.8500  1.9728
  189SLPC   H7Y21872   4.781   1.629   7.300 -0.9131  0.8573  1.5963
  189SLPC   C3821873   4.616   1.509   7.370  0.2575  0.5858  1.0750
  189SLPC   H8X21874   4.598   1.433   7.290  0.2528  2.7260 -1.0940
  189SLPC   H8Y21875   4.513   1.532   7.405 -1.3888  0.0637 -2.8490
  189SLPC   C3921876   4.686   1.456   7.496 -0.2736  0.8401  0.0098
  189SLPC   H9X21877   4.712   1.544   7.559  1.8676 -0.2590  0.7871
  189SLPC   H9Y21878   4.782   1.412   7.462 -0.9100 -0.5077 -0.1332
  189SLPC  C31021879   4.601   1.360   7.590 -0.0958  0.8926 -0.2860
  189SLPC  H10X21880   4.589   1.261   7.542  0.8539  1.3956 -1.6303
  189SLPC  H10Y21881   4.503   1.409   7.611  0.5660  1.4326  1.8725
  189SLPC  C31121882   4.665   1.347   7.727 -0.3665 -0.0786 -0.0526
  189SLPC  H11X21883   4.693   1.452   7.750 -0.0117  0.0428 -0.9961
  189SLPC  H11Y21884   4.764   1.297   7.719 -0.5727 -0.3554 -1.1456
  189SLPC  C31221885   4.586   1.280   7.836 -0.2474 -0.2013 -0.0419
  189SLPC  H12X21886   4.591   1.171   7.818 -0.3025  0.1148 -2.3647
  189SLPC  H12Y21887   4.478   1.307   7.835  0.1598  1.7014  1.5410
  189SLPC  C31321888   4.643   1.311   7.976 -0.6809 -0.5652  0.1162
  189SLPC  H13X21889   4.598   1.235   8.043  0.4325  0.2497  1.8279
  189SLPC  H13Y21890   4.616   1.409   8.020 -0.0854 -0.4616  0.2525
  189SLPC  C31421891   4.791   1.297   7.979  0.4157 -0.0566  0.7143
  189SLPC  H14X21892   4.834   1.389   7.933  1.5635  0.3510  2.4980
  189SLPC  H14Y21893   4.831   1.214   7.917 -1.1224 -1.2016  1.2165
  189SLPC  C31521894   4.857   1.283   8.123 -0.3715  0.3606 -0.3052
  189SLPC  H15X21895   4.817   1.370   8.180  1.6482  1.0113  0.1692
  189SLPC  H15Y21896   4.967   1.290   8.122 -0.2021 -1.6194  0.4067
  189SLPC  C31621897   4.813   1.163   8.201  0.2636 -0.2572  0.0813
  189SLPC  H16X21898   4.710   1.178   8.241  0.7033 -1.0936  1.6196
  189SLPC  H16Y21899   4.875   1.153   8.293  0.1361 -1.8263  0.0152
  189SLPC  C31721900   4.812   1.029   8.125 -0.2668  0.4828  0.6353
  189SLPC  H17X21901   4.906   1.018   8.066 -1.3909 -0.6559 -1.0099
  189SLPC  H17Y21902   4.720   1.024   8.064 -0.3613  1.1153  0.7107
  189SLPC  C31821903   4.808   0.911   8.220  0.1772  0.1434 -0.3048
  189SLPC  H18X21904   4.814   0.809   8.176 -0.7606 -0.0260 -0.0572
  189SLPC  H18Y21905   4.714   0.901   8.279  1.6020  0.2329  2.1008
  189SLPC  H18Z21906   4.895   0.932   8.284 -0.9520  1.2710  0.9118
  190SLPC     N21907   0.230   3.370   5.971  0.1568  0.0308  0.5064
  190SLPC   C1321908   0.255   3.454   5.845  0.5238  0.4781  0.0828
  190SLPC  H13A21909   0.205   3.420   5.755 -2.2605  1.7213  1.0362
  190SLPC  H13B21910   0.226   3.558   5.855  1.7909  0.9461 -0.8619
  190SLPC  H13C21911   0.360   3.459   5.820  0.4866  1.8875  0.1499
  190SLPC   C1421912   0.298   3.234   5.956  0.0130  0.7757  0.0052
  190SLPC  H14A21913   0.272   3.181   6.047 -0.5436  1.9607  0.5679
  190SLPC  H14B21914   0.267   3.189   5.863 -2.1867  1.3445  0.3962
  190SLPC  H14C21915   0.404   3.243   5.937 -0.1091  0.0982 -1.0513
  190SLPC   C1521916   0.080   3.356   6.002  0.2426 -0.4305  0.3334
  190SLPC  H15A21917   0.057   3.300   6.091  1.8087 -0.4106  0.7858
  190SLPC  H15B21918   0.038   3.455   6.010 -2.1391 -1.2591 -1.0750
  190SLPC  H15C21919   0.040   3.299   5.919  2.3660 -1.4742 -0.0676
  190SLPC   C1221920   0.302   3.432   6.087  1.0392  0.1261 -0.4197
  190SLPC  H12A21921   0.401   3.462   6.057  2.4598 -1.8033  1.9241
  190SLPC  H12B21922   0.310   3.359   6.167  0.3912  1.3267  0.7846
  190SLPC   C1121923   0.233   3.560   6.152 -0.4452 -0.0764 -0.6011
  190SLPC  H11A21924   0.315   3.600   6.215 -0.0594 -2.0966  0.2582
  190SLPC  H11B21925   0.145   3.531   6.213 -0.2664 -1.9367 -1.1533
  190SLPC     P21926   0.190   3.809   6.076 -0.1587  0.5204  0.0094
  190SLPC   O1321927   0.320   3.865   6.035 -0.6739  0.2929 -0.5514
  190SLPC   O1421928   0.079   3.876   6.006  0.2170  0.3114 -0.2776
  190SLPC   O1221929   0.186   3.656   6.060 -0.0542 -0.5429 -0.0615
  190SLPC   O1121930   0.176   3.836   6.236 -0.4530  0.9233 -0.5633
  190SLPC    C121931   0.063   3.880   6.306  0.3835 -0.0667  0.5598
  190SLPC    HA21932  -0.005   3.939   6.241  1.5492 -0.9503 -1.5919
  190SLPC    HB21933   0.004   3.790   6.336  1.9905 -2.3400 -2.4672
  190SLPC    C221934   0.088   3.948   6.444  0.2591  0.4270 -0.1702
  190SLPC    HS21935   0.145   4.041   6.426 -0.3227  0.5157 -1.6446
  190SLPC   O2121936   0.163   3.864   6.527 -0.0533  0.1197  0.1290
  190SLPC   C2121937   0.292   3.874   6.526 -0.0535 -0.3771  0.3531
  190SLPC   O2221938   0.361   3.944   6.455 -0.6653  0.2274 -0.5245
  190SLPC   C2221939   0.355   3.787   6.631 -0.6686 -0.0599 -0.6128
  190SLPC   H2R21940   0.354   3.859   6.716 -0.3338 -0.7513 -0.0154
  190SLPC   H2S21941   0.288   3.703   6.658 -1.3320  0.8358  0.6188
  190SLPC    C321942  -0.047   3.987   6.507  0.1061  0.0648 -0.5200
  190SLPC    HX21943  -0.117   3.901   6.510  2.6377 -2.1453  0.5731
  190SLPC    HY21944  -0.080   4.059   6.429  3.0836  1.2630 -0.8441
  190SLPC   O3121945  -0.025   4.044   6.643 -0.0211 -0.2168 -0.8490
  190SLPC   C3121946  -0.104   4.019   6.741  0.0492 -0.3703 -0.4194
  190SLPC   O3221947  -0.206   3.952   6.741  0.2128  0.8087 -0.3183
  190SLPC   C3221948  -0.033   4.069   6.868 -0.0658  0.0514 -0.4688
  190SLPC   H2X21949  -0.052   4.178   6.877  1.3217  0.2747 -0.0470
  190SLPC   H2Y21950   0.074   4.040   6.860  0.2997  1.8094 -3.8561
  190SLPC   C2321951   0.500   3.737   6.596 -0.5952 -0.2461  0.4990
  190SLPC   H3R21952   0.559   3.830   6.585 -0.7486 -0.2658 -0.5346
  190SLPC   H3S21953   0.511   3.678   6.503  1.0231 -0.7719  0.9808
  190SLPC   C2421954   0.573   3.654   6.710  0.2674 -0.3078 -0.5439
  190SLPC   H4R21955   0.674   3.620   6.679  0.6070  0.5903 -0.4521
  190SLPC   H4S21956   0.517   3.558   6.714 -0.6670  0.0555 -3.0455
  190SLPC   C2521957   0.606   3.736   6.840  0.7502  0.0436 -0.5805
  190SLPC   H5R21958   0.503   3.763   6.870  1.0170 -1.7440  2.2952
  190SLPC   H5S21959   0.662   3.830   6.822 -0.3408  0.7824 -0.2255
  190SLPC   C2621960   0.656   3.644   6.948  0.3107  0.0335  0.0401
  190SLPC   H6R21961   0.574   3.569   6.954  0.9110 -0.8127 -1.6090
  190SLPC   H6S21962   0.659   3.685   7.051  2.7716  0.4137 -0.1232
  190SLPC   C2721963   0.785   3.574   6.915  0.3434  0.6171  0.3421
  190SLPC   H7R21964   0.858   3.655   6.897  3.1194 -1.9727 -0.9597
  190SLPC   H7S21965   0.773   3.507   6.827  1.5087  1.7811 -0.7267
  190SLPC   C2821966   0.853   3.499   7.031 -0.4809 -0.6390 -0.9877
  190SLPC   H8R21967   0.837   3.565   7.119 -1.0850 -1.6239 -0.3493
  190SLPC   H8S21968   0.962   3.486   7.011 -0.5872  0.0718 -2.1390
  190SLPC   C2921969   0.790   3.365   7.062 -0.2624 -0.6590  0.2913
  190SLPC   H9R21970   0.788   3.298   6.975  0.2693 -0.3831  0.0583
  190SLPC  C21021971   0.736   3.326   7.177 -0.1166 -0.1690 -0.2589
  190SLPC  H10R21972   0.700   3.223   7.189  0.4672 -0.7467 -2.8199
  190SLPC  C21121973   0.730   3.405   7.308  0.3517  0.2076 -0.3891
  190SLPC  H11R21974   0.810   3.481   7.314  0.4777  0.1160 -0.8853
  190SLPC  H11S21975   0.766   3.342   7.392 -1.9885  1.3673  1.6496
  190SLPC  C21221976   0.600   3.469   7.345  0.2380  0.4142 -0.2034
  190SLPC  H12R21977   0.518   3.449   7.274 -0.4472 -1.2352  0.9966
  190SLPC  C21321978   0.572   3.532   7.459  0.0609  0.6661  0.0767
  190SLPC  H13R21979   0.469   3.568   7.462  0.1064  0.7761  0.4651
  190SLPC  C21421980   0.668   3.564   7.568 -1.1735  0.2526 -0.1434
  190SLPC  H14R21981   0.623   3.658   7.607 -1.1964 -0.6131  2.0455
  190SLPC  H14S21982   0.767   3.600   7.535 -1.2870  1.6268  0.9172
  190SLPC  C21521983   0.680   3.456   7.688 -0.5233  0.5593  0.6765
  190SLPC  H15R21984   0.733   3.367   7.648 -1.1405 -0.3344  1.7853
  190SLPC  H15S21985   0.582   3.422   7.727 -1.8186  0.0220 -2.6949
  190SLPC  C21621986   0.770   3.517   7.797 -1.0115  0.3799 -0.1634
  190SLPC  H16R21987   0.722   3.613   7.829  0.3522  0.8858  0.4449
  190SLPC  H16S21988   0.870   3.538   7.753 -0.8294  0.5103  0.3048
  190SLPC  C21721989   0.797   3.433   7.918  0.4209 -0.1129 -0.1058
  190SLPC  H17R21990   0.811   3.330   7.878  0.7506  0.5065 -1.6554
  190SLPC  H17S21991   0.705   3.427   7.981  0.9807 -3.6070  0.6178
  190SLPC  C21821992   0.914   3.482   8.005  0.3724  0.7681 -0.1761
  190SLPC  H18R21993   1.011   3.480   7.950  0.2945 -3.3420 -0.4753
  190SLPC  H18S21994   0.929   3.421   8.097 -1.6514  0.2056 -0.1832
  190SLPC  H18T21995   0.904   3.589   8.030  0.6534  1.2345 -1.9431
  190SLPC   C3321996  -0.101   4.008   6.995 -1.1228 -0.2520 -0.6156
  190SLPC   H3X21997  -0.092   3.898   6.993 -0.0698 -0.1980  0.0635
  190SLPC   H3Y21998  -0.210   4.028   6.997 -0.7887  1.7095  0.0638
  190SLPC   C3421999  -0.052   4.066   7.130 -0.1017 -0.2305 -0.2494
  190SLPC   H4X22000  -0.068   4.176   7.132 -1.8065 -0.4314 -0.8468
  190SLPC   H4Y22001   0.057   4.052   7.143  0.0261  0.1998 -0.8469
  190SLPC   C3522002  -0.124   3.991   7.240 -0.3696 -0.1644  0.9251
  190SLPC   H5X22003  -0.104   3.882   7.246  1.9594  0.1362 -0.3297
  190SLPC   H5Y22004  -0.234   4.001   7.229 -0.3264 -0.9959 -0.4502
  190SLPC   C3622005  -0.100   4.063   7.384  0.5221  0.2287  0.4126
  190SLPC   H6X22006  -0.124   4.171   7.372 -1.2833 -0.1695  0.0981
  190SLPC   H6Y22007   0.005   4.053   7.417  1.6624  1.1987 -2.5685
  190SLPC   C3722008  -0.183   4.005   7.493  0.2626 -0.7479  0.5424
  190SLPC   H7X22009  -0.180   3.894   7.486 -1.0702 -1.0066  2.7673
  190SLPC   H7Y22010  -0.289   4.033   7.475  0.0634 -2.3176 -0.9982
  190SLPC   C3822011  -0.149   4.058   7.632  0.2150 -0.5551 -0.2033
  190SLPC   H8X22012  -0.160   4.168   7.643 -0.7470 -0.6296 -0.3396
  190SLPC   H8Y22013  -0.044   4.027   7.653 -0.5204 -3.4284 -0.3594
  190SLPC   C3922014  -0.233   3.986   7.734  0.0473  0.3711  0.0606
  190SLPC   H9X22015  -0.229   3.879   7.704 -2.2194  0.8095 -2.1481
  190SLPC   H9Y22016  -0.338   4.020   7.724 -0.1990 -0.0433  1.1030
  190SLPC  C31022017  -0.181   4.001   7.878  0.0191 -0.5491  0.4196
  190SLPC  H10X22018  -0.150   4.107   7.893  0.4366 -0.3951 -1.3185
  190SLPC  H10Y22019  -0.086   3.944   7.887  0.7966  0.4210 -1.2327
  190SLPC  C31122020  -0.285   3.960   7.991  1.0395  0.0010  0.1353
  190SLPC  H11X22021  -0.312   3.854   7.970  0.3713  0.3959 -1.0522
  190SLPC  H11Y22022  -0.371   4.029   7.992 -1.6726 -3.0737 -1.0374
  190SLPC  C31222023  -0.223   3.953   8.137  0.5882  0.2697  0.3897
  190SLPC  H12X22024  -0.179   4.054   8.154 -3.5108  2.2691  0.5171
  190SLPC  H12Y22025  -0.154   3.869   8.156  1.3242  1.1653  1.9213
  190SLPC  C31322026  -0.334   3.935   8.249 -0.1142 -0.0525  0.7157
  190SLPC  H13X22027  -0.386   3.837   8.245  1.0995 -0.7608  1.5156
  190SLPC  H13Y22028  -0.416   4.008   8.232 -1.1821 -1.1454  1.0206
  190SLPC  C31422029  -0.271   3.971   8.388 -0.3792 -0.9975 -0.1638
  190SLPC  H14X22030  -0.212   4.064   8.373 -0.1953 -1.1960 -0.7138
  190SLPC  H14Y22031  -0.196   3.894   8.413 -0.3687 -1.3336 -1.1695
  190SLPC  C31522032  -0.367   3.992   8.504  0.1394  0.6302 -0.1944
  190SLPC  H15X22033  -0.444   4.067   8.474 -2.7853 -1.4623  1.5869
  190SLPC  H15Y22034  -0.326   4.020   8.603 -1.8890 -0.3463  0.9840
  190SLPC  C31622035  -0.442   3.863   8.542  0.4041  0.1262 -0.2956
  190SLPC  H16X22036  -0.365   3.783   8.553 -0.5171 -0.5037  2.0544
  190SLPC  H16Y22037  -0.512   3.828   8.463 -0.1631 -0.1982  0.3355
  190SLPC  C31722038  -0.510   3.880   8.681 -0.0950 -0.2511  0.3438
  190SLPC  H17X22039  -0.566   3.976   8.679  1.2497  0.6144  2.0002
  190SLPC  H17Y22040  -0.432   3.875   8.760  0.7911 -0.2463 -0.5094
  190SLPC  C31822041  -0.614   3.769   8.701  0.5542 -0.1993  0.2696
  190SLPC  H18X22042  -0.570   3.672   8.669 -0.2831  0.1878 -2.2874
  190SLPC  H18Y22043  -0.706   3.777   8.638  0.5272 -2.0315  0.0201
  190SLPC  H18Z22044  -0.669   3.764   8.797 -2.6272  0.1752 -1.3833
  191SLPC     N22045   4.014   3.978   5.684 -0.3452 -0.1679 -0.1433
  191SLPC   C1322046   4.139   3.928   5.613  0.1324  0.0499 -0.1725
  191SLPC  H13A22047   4.227   3.988   5.628 -0.6235  1.6373 -1.7165
  191SLPC  H13B22048   4.160   3.827   5.644 -0.6684  0.2118  0.9471
  191SLPC  H13C22049   4.116   3.922   5.507  1.4915 -1.0552 -0.4368
  191SLPC   C1422050   3.900   3.900   5.627  0.5567 -0.3085  0.4725
  191SLPC  H14A22051   3.901   3.793   5.619  0.2535 -0.6404  3.6791
  191SLPC  H14B22052   3.808   3.923   5.678 -0.7208 -1.1513 -1.3186
  191SLPC  H14C22053   3.876   3.948   5.533 -2.6170  0.3131  1.4806
  191SLPC   C1522054   4.010   4.123   5.669 -0.5849 -0.5313 -0.1860
  191SLPC  H15A22055   3.982   4.168   5.575 -0.6967  2.3315  1.1222
  191SLPC  H15B22056   3.947   4.170   5.743  0.6156  0.5974  0.1602
  191SLPC  H15C22057   4.106   4.170   5.687 -0.4469 -0.9608  0.2199
  191SLPC   C1222058   4.035   3.951   5.831 -0.1945  0.1034 -0.1054
  191SLPC  H12A22059   4.123   4.002   5.865 -0.6457  1.1632 -0.4815
  191SLPC  H12B22060   4.053   3.846   5.849  0.0004  0.4811  2.1202
  191SLPC   C1122061   3.929   3.992   5.936 -0.2447  0.2701 -0.1541
  191SLPC  H11A22062   3.913   4.101   5.950 -1.8604 -0.0688  1.0348
  191SLPC  H11B22063   3.965   3.957   6.035 -2.7507 -2.8024 -0.1627
  191SLPC     P22064   3.670   3.976   5.972 -0.0053  0.1198  0.2352
  191SLPC   O1322065   3.678   4.127   5.975 -0.0340  0.6701  0.9085
  191SLPC   O1422066   3.564   3.918   5.891 -0.4762 -0.1174 -0.0622
  191SLPC   O1222067   3.809   3.926   5.907  0.6253 -0.2817 -0.1801
  191SLPC   O1122068   3.689   3.931   6.119 -0.0551  0.1406 -0.1722
  191SLPC    C122069   3.721   3.796   6.160  0.2626 -0.0392 -0.8905
  191SLPC    HA22070   3.631   3.747   6.202  1.4720 -0.1105  1.8329
  191SLPC    HB22071   3.755   3.736   6.073 -0.5014  1.8847 -2.5997
  191SLPC    C222072   3.829   3.785   6.275  0.3310  0.0669 -0.3361
  191SLPC    HS22073   3.779   3.795   6.374  2.3347 -0.2688  0.7712
  191SLPC   O2122074   3.939   3.875   6.255 -0.4750  0.1206  0.2124
  191SLPC   C2122075   3.970   3.952   6.352 -0.5557  0.7719  0.2208
  191SLPC   O2222076   3.909   3.966   6.453 -0.0902  0.3122 -0.6436
  191SLPC   C2222077   4.088   4.029   6.312  0.5792 -0.6981 -0.7541
  191SLPC   H2R22078   4.158   3.953   6.271  0.4066 -2.5462  2.0909
  191SLPC   H2S22079   4.062   4.098   6.229  0.3688  1.6280  1.1411
  191SLPC    C322080   3.886   3.634   6.257 -0.0264 -0.7344  0.5160
  191SLPC    HX22081   3.968   3.646   6.182  1.9056  1.1607  2.7796
  191SLPC    HY22082   3.801   3.577   6.214 -0.8014  1.2464 -0.7184
  191SLPC   O3122083   3.932   3.577   6.385  0.8556  0.0633  0.0355
  191SLPC   C3122084   4.065   3.584   6.406  0.0640 -0.3519 -0.7721
  191SLPC   O3222085   4.146   3.598   6.313 -0.2987 -0.3762 -0.6813
  191SLPC   C3222086   4.098   3.560   6.560 -0.2353  0.1717  0.6984
  191SLPC   H2X22087   4.196   3.613   6.567 -0.4929  0.9090 -0.7998
  191SLPC   H2Y22088   4.107   3.452   6.585 -3.1655  0.1316  1.9005
  191SLPC   C2322089   4.164   4.094   6.433  1.4426  0.1773 -0.0016
  191SLPC   H3R22090   4.095   4.140   6.506  1.3592 -1.0336  0.7145
  191SLPC   H3S22091   4.223   4.171   6.379  2.0186 -0.5442 -0.4265
  191SLPC   C2422092   4.258   3.995   6.506 -0.6060 -0.1693  0.2008
  191SLPC   H4R22093   4.352   3.986   6.447 -0.9554  1.3434 -0.6212
  191SLPC   H4S22094   4.207   3.896   6.511 -1.9787  0.2840 -2.8780
  191SLPC   C2522095   4.293   4.020   6.651  0.8546 -0.4460  0.4609
  191SLPC   H5R22096   4.197   4.026   6.708  0.2314 -2.2503 -0.3433
  191SLPC   H5S22097   4.351   4.114   6.667  1.5993 -0.7453 -0.4064
  191SLPC   C2622098   4.385   3.903   6.700 -0.2875 -0.9603  0.3045
  191SLPC   H6R22099   4.464   3.898   6.622 -0.9351  1.1781 -0.5832
  191SLPC   H6S22100   4.332   3.805   6.705 -0.7238 -0.6604  2.0452
  191SLPC   C2722101   4.466   3.950   6.819  0.4405  0.7353 -0.0602
  191SLPC   H7R22102   4.509   4.049   6.794  1.6686  0.3722  0.4973
  191SLPC   H7S22103   4.545   3.873   6.831  0.2579  0.7260  1.2195
  191SLPC   C2822104   4.383   3.957   6.946  0.6999  0.3193  0.4183
  191SLPC   H8R22105   4.351   3.855   6.977  0.2994 -0.1273 -1.3901
  191SLPC   H8S22106   4.298   4.024   6.920 -0.6400 -1.5815 -0.3571
  191SLPC   C2922107   4.470   4.020   7.056 -0.7110  0.2723 -0.8708
  191SLPC   H9R22108   4.559   4.071   7.017 -0.9621  0.7967 -0.7610
  191SLPC  C21022109   4.460   3.996   7.194 -0.4292 -0.1480  0.1887
  191SLPC  H10R22110   4.535   4.040   7.261 -0.5463  1.2514 -0.5631
  191SLPC  C21122111   4.366   3.901   7.260 -0.2879  0.7566 -0.1385
  191SLPC  H11R22112   4.290   3.873   7.184 -1.5706 -0.1544  1.4290
  191SLPC  H11S22113   4.303   3.945   7.340  1.7244  1.6221  1.0252
  191SLPC  C21222114   4.425   3.761   7.301  0.3803 -0.7213 -0.1524
  191SLPC  H12R22115   4.508   3.727   7.237  0.0405 -4.0972  0.9928
  191SLPC  C21322116   4.393   3.696   7.412 -0.5499  0.5028 -1.1217
  191SLPC  H13R22117   4.451   3.605   7.434 -1.2438  0.7769  2.4159
  191SLPC  C21422118   4.297   3.718   7.525 -0.1341  0.8779  0.2658
  191SLPC  H14R22119   4.225   3.633   7.525  0.3627  0.4045 -2.2255
  191SLPC  H14S22120   4.241   3.812   7.506  0.2330  0.8348 -1.0838
  191SLPC  C21522121   4.368   3.725   7.663 -0.2817 -0.1631 -0.7379
  191SLPC  H15R22122   4.305   3.794   7.723 -0.0336  0.5890 -1.3110
  191SLPC  H15S22123   4.468   3.773   7.658 -1.1001  1.9260  1.1865
  191SLPC  C21622124   4.391   3.588   7.731  0.0828 -0.1146  0.1290
  191SLPC  H16R22125   4.488   3.550   7.691  0.9353  1.4952  0.5729
  191SLPC  H16S22126   4.309   3.520   7.700  0.3091 -0.0408 -0.6604
  191SLPC  C21722127   4.393   3.583   7.881  0.5108 -1.3384 -1.2806
  191SLPC  H17R22128   4.391   3.474   7.903  1.8229 -0.8912  1.5461
  191SLPC  H17S22129   4.304   3.620   7.936  1.5156 -2.3452  1.1716
  191SLPC  C21822130   4.513   3.667   7.931  0.2104  0.4747  0.0497
  191SLPC  H18R22131   4.594   3.622   7.870 -0.2664  0.7792 -0.8283
  191SLPC  H18S22132   4.525   3.661   8.042 -0.4442  0.9048  0.1495
  191SLPC  H18T22133   4.516   3.774   7.902  0.5954  0.8693  1.4322
  191SLPC   C3322134   4.006   3.637   6.656 -0.0418  0.1563 -0.0792
  191SLPC   H3X22135   3.915   3.576   6.673  1.2796 -1.1589  3.1679
  191SLPC   H3Y22136   3.963   3.732   6.618  0.8218  0.7056  0.2867
  191SLPC   C3422137   4.067   3.670   6.792 -0.1803 -0.2159 -0.1329
  191SLPC   H4X22138   4.152   3.740   6.775  0.2269 -0.9464 -1.2294
  191SLPC   H4Y22139   4.114   3.575   6.825 -0.9093 -0.5246  0.0273
  191SLPC   C3522140   3.966   3.727   6.892 -0.0632 -0.5214  0.8606
  191SLPC   H5X22141   3.886   3.652   6.908 -0.2267 -1.2429 -2.5092
  191SLPC   H5Y22142   3.912   3.813   6.845 -1.4694 -0.8482  1.8294
  191SLPC   C3622143   4.019   3.764   7.031 -0.1671  1.0012 -0.5444
  191SLPC   H6X22144   4.088   3.851   7.038  1.3926 -0.2673  1.1567
  191SLPC   H6Y22145   4.091   3.682   7.052 -0.3882  1.2386  1.2924
  191SLPC   C3722146   3.902   3.767   7.134  0.4897 -0.2815  0.2525
  191SLPC   H7X22147   3.847   3.672   7.144 -1.6614  0.8511 -0.2247
  191SLPC   H7Y22148   3.834   3.850   7.104 -0.0610 -0.9681 -0.4074
  191SLPC   C3822149   3.966   3.786   7.274 -0.6988 -0.7792  0.1634
  191SLPC   H8X22150   3.991   3.893   7.292 -1.3844 -0.5420 -0.2285
  191SLPC   H8Y22151   4.059   3.725   7.278  1.0054  1.7655  2.3211
  191SLPC   C3922152   3.867   3.742   7.381 -0.4206  1.1358 -0.9034
  191SLPC   H9X22153   3.842   3.635   7.366  0.8127  0.7239 -0.1827
  191SLPC   H9Y22154   3.771   3.798   7.377 -0.9250  0.3120 -0.5093
  191SLPC  C31022155   3.939   3.774   7.516 -0.4007 -0.1223 -0.3569
  191SLPC  H10X22156   3.984   3.875   7.516  1.9388 -1.0918  0.9754
  191SLPC  H10Y22157   4.014   3.695   7.538 -1.0576 -0.7707 -0.3888
  191SLPC  C31122158   3.846   3.784   7.634  0.4502  0.4008  0.2073
  191SLPC  H11X22159   3.758   3.842   7.600 -1.5034 -1.2733  2.0889
  191SLPC  H11Y22160   3.883   3.849   7.717 -1.5502 -0.2415  1.6768
  191SLPC  C31222161   3.803   3.649   7.694  0.8024  0.5870 -0.1658
  191SLPC  H12X22162   3.899   3.599   7.720  0.2313 -0.1489  0.5835
  191SLPC  H12Y22163   3.750   3.593   7.614  0.5770  1.0124 -0.3153
  191SLPC  C31322164   3.714   3.668   7.808 -0.4529 -0.1282 -0.3102
  191SLPC  H13X22165   3.663   3.574   7.837 -0.3678 -0.3581 -0.8952
  191SLPC  H13Y22166   3.630   3.728   7.765 -1.1967 -0.5011  0.5812
  191SLPC  C31422167   3.774   3.733   7.932  0.3121 -0.0977  0.4351
  191SLPC  H14X22168   3.698   3.763   8.008  1.8214  1.7743  1.2920
  191SLPC  H14Y22169   3.802   3.838   7.906  0.1098 -0.0445  0.4325
  191SLPC  C31522170   3.894   3.668   8.002  0.4375  0.0467 -0.7435
  191SLPC  H15X22171   3.935   3.727   8.087 -1.7001 -1.3103  1.3842
  191SLPC  H15Y22172   3.981   3.644   7.937  2.0349  1.8093  0.6235
  191SLPC  C31622173   3.857   3.533   8.073  0.0642 -0.0603 -0.3365
  191SLPC  H16X22174   3.817   3.454   8.005 -0.3372  0.5911 -0.8703
  191SLPC  H16Y22175   3.780   3.557   8.149 -0.1113  0.9381 -0.8129
  191SLPC  C31722176   3.970   3.471   8.156 -0.1455 -0.9774  0.2549
  191SLPC  H17X22177   4.045   3.437   8.082 -1.0204  1.9653 -2.1934
  191SLPC  H17Y22178   3.931   3.379   8.205 -2.4748 -0.3760 -0.3390
  191SLPC  C31822179   4.043   3.559   8.257  0.0038  0.3231  0.0164
  191SLPC  H18X22180   4.120   3.496   8.307 -0.9340 -2.3551 -1.6980
  191SLPC  H18Y22181   3.971   3.597   8.332 -3.0375 -2.6185 -1.1958
  191SLPC  H18Z22182   4.090   3.651   8.214  1.7388 -0.4418  0.1937
  192SLPC     N22183   0.502   5.734   5.905  0.3328  0.5311  0.0187
  192SLPC   C1322184   0.543   5.855   5.831  0.2928 -0.4953 -0.2794
  192SLPC  H13A22185   0.616   5.910   5.889 -1.3753  1.5929 -0.0261
  192SLPC  H13B22186   0.570   5.821   5.732 -0.4970 -2.0568  0.0130
  192SLPC  H13C22187   0.461   5.922   5.809  0.9894  0.5999  0.3811
  192SLPC   C1422188   0.622   5.640   5.894 -0.4097  0.3291 -0.7887
  192SLPC  H14A22189   0.700   5.679   5.957  1.4063 -0.4459 -2.4637
  192SLPC  H14B22190   0.591   5.546   5.936  0.0819  0.7162  0.4834
  192SLPC  H14C22191   0.664   5.639   5.794  0.3531  0.2727 -0.4706
  192SLPC   C1522192   0.396   5.665   5.822 -0.8307 -0.0770 -0.1269
  192SLPC  H15A22193   0.346   5.589   5.881 -0.3822  0.4319  0.9401
  192SLPC  H15B22194   0.316   5.734   5.799 -0.5489 -0.1170 -1.3152
  192SLPC  H15C22195   0.435   5.621   5.731 -1.3609 -2.3077  0.6640
  192SLPC   C1222196   0.451   5.760   6.042 -0.3807  0.1629  0.9850
  192SLPC  H12A22197   0.356   5.809   6.026  1.2360  2.5400 -2.8348
  192SLPC  H12B22198   0.516   5.833   6.088 -0.7391  1.0284  0.1484
  192SLPC   C1122199   0.438   5.629   6.127  0.1794  0.3610  0.6113
  192SLPC  H11A22200   0.416   5.658   6.232  1.7256  1.1295  0.7584
  192SLPC  H11B22201   0.535   5.575   6.124  1.7102  2.9690 -0.0435
  192SLPC     P22202   0.343   5.390   6.099  0.2301  0.0968 -0.3229
  192SLPC   O1322203   0.232   5.318   6.031 -0.0200 -0.3330 -0.0654
  192SLPC   O1422204   0.477   5.343   6.071 -0.1621 -0.3726  0.0675
  192SLPC   O1222205   0.338   5.551   6.068  0.4072 -0.3470  0.2538
  192SLPC   O1122206   0.312   5.386   6.254 -0.6520 -0.3727 -0.1467
  192SLPC    C122207   0.217   5.462   6.326  0.1201  0.0975 -0.6490
  192SLPC    HA22208   0.240   5.571   6.329 -2.2750  0.6357  2.3685
  192SLPC    HB22209   0.118   5.447   6.278 -1.1052  1.5746  1.2707
  192SLPC    C222210   0.192   5.414   6.477  0.3590  0.8662 -0.3760
  192SLPC    HS22211   0.130   5.489   6.531 -0.4268  0.4488 -0.6752
  192SLPC   O2122212   0.318   5.388   6.542 -0.5060  0.4939 -0.0151
  192SLPC   C2122213   0.387   5.493   6.578  0.4726  0.3971 -0.1802
  192SLPC   O2222214   0.363   5.608   6.538  0.2251 -0.2224  0.0110
  192SLPC   C2222215   0.507   5.455   6.661 -0.2191 -0.2549  0.1669
  192SLPC   H2R22216   0.522   5.345   6.665  3.2551  0.1315  0.6219
  192SLPC   H2S22217   0.601   5.489   6.614 -0.8658  2.7937  0.8454
  192SLPC    C322218   0.102   5.281   6.485 -0.2013 -0.4380 -0.4094
  192SLPC    HX22219   0.134   5.193   6.426 -0.2428 -0.9037  0.2681
  192SLPC    HY22220   0.013   5.311   6.424 -0.7264 -1.8617 -0.3710
  192SLPC   O3122221   0.064   5.264   6.620  0.1575 -0.2374  0.5161
  192SLPC   C3122222   0.135   5.164   6.672 -0.2915  0.1632  0.1647
  192SLPC   O3222223   0.221   5.095   6.620  0.3465  0.4802  0.4331
  192SLPC   C3222224   0.100   5.157   6.822  0.1751 -0.2631 -0.6132
  192SLPC   H2X22225  -0.011   5.146   6.823 -0.1618  2.0665  2.4395
  192SLPC   H2Y22226   0.130   5.253   6.869  1.0729 -0.6532 -0.3734
  192SLPC   C2322227   0.492   5.503   6.804 -0.3887 -0.0213  0.0523
  192SLPC   H3R22228   0.464   5.610   6.810 -1.4562 -0.1952 -1.2998
  192SLPC   H3S22229   0.591   5.496   6.854 -0.1345 -0.7219 -0.5246
  192SLPC   C2422230   0.399   5.420   6.886  0.4454  0.5418 -0.3855
  192SLPC   H4R22231   0.443   5.319   6.893 -2.7951 -0.9436  0.5138
  192SLPC   H4S22232   0.298   5.412   6.840 -0.4104  2.2136  1.0594
  192SLPC   C2522233   0.381   5.477   7.026 -0.9088 -0.0024 -0.3815
  192SLPC   H5R22234   0.279   5.447   7.060 -0.4214 -1.2436  0.0385
  192SLPC   H5S22235   0.401   5.586   7.026 -0.1076 -0.1429 -0.0724
  192SLPC   C2622236   0.480   5.422   7.126  0.3661 -0.1664  0.2643
  192SLPC   H6R22237   0.584   5.433   7.088  1.0825  1.0679  2.4630
  192SLPC   H6S22238   0.461   5.313   7.130  2.2880 -0.5026  1.0590
  192SLPC   C2722239   0.466   5.484   7.261  0.1111 -0.2725  0.3181
  192SLPC   H7R22240   0.360   5.460   7.284 -0.2961  0.0538 -1.0846
  192SLPC   H7S22241   0.487   5.592   7.245  1.1125 -0.6152 -0.8353
  192SLPC   C2822242   0.544   5.416   7.373  0.6132 -0.6700 -0.1603
  192SLPC   H8R22243   0.503   5.461   7.466 -1.0811  1.1700 -1.7084
  192SLPC   H8S22244   0.651   5.445   7.366  0.7981 -1.3202 -0.1428
  192SLPC   C2922245   0.524   5.265   7.380 -0.3516  0.1053  1.0930
  192SLPC   H9R22246   0.525   5.218   7.280  0.4822  0.5183  0.8928
  192SLPC  C21022247   0.500   5.188   7.486 -0.2936 -0.1114 -0.0948
  192SLPC  H10R22248   0.492   5.079   7.475  0.4022 -0.0916 -0.9509
  192SLPC  C21122249   0.489   5.227   7.632 -0.5692  0.5048  0.0740
  192SLPC  H11R22250   0.550   5.315   7.664 -1.5651  1.4830 -0.6436
  192SLPC  H11S22251   0.549   5.151   7.686  2.5974  2.2800 -0.6596
  192SLPC  C21222252   0.349   5.240   7.686  0.7797 -0.4700  0.3193
  192SLPC  H12R22253   0.283   5.297   7.620  1.3503  1.1657  1.1060
  192SLPC  C21322254   0.293   5.188   7.795  0.3832  0.1188 -0.0051
  192SLPC  H13R22255   0.187   5.207   7.818  0.3235 -0.4494  0.2189
  192SLPC  C21422256   0.374   5.103   7.885  0.4789 -0.2421  0.0679
  192SLPC  H14R22257   0.442   5.027   7.841 -2.1041 -2.4965 -0.3147
  192SLPC  H14S22258   0.304   5.031   7.932  0.0052 -0.6083 -1.1799
  192SLPC  C21522259   0.457   5.186   7.982  0.6250  0.5136 -0.3083
  192SLPC  H15R22260   0.391   5.254   8.040 -0.7356 -1.3318  0.4322
  192SLPC  H15S22261   0.519   5.255   7.922 -0.0739  0.6519 -0.8851
  192SLPC  C21622262   0.546   5.103   8.070 -0.4822  0.3377 -0.6659
  192SLPC  H16R22263   0.607   5.034   8.008 -1.7881 -1.4362 -0.0465
  192SLPC  H16S22264   0.491   5.042   8.145  1.0736 -0.8937 -0.4559
  192SLPC  C21722265   0.643   5.187   8.161  0.8955  0.7989  0.4866
  192SLPC  H17R22266   0.706   5.247   8.091  0.0932  1.6465  0.4599
  192SLPC  H17S22267   0.586   5.243   8.238  1.3228  1.8603  0.0499
  192SLPC  C21822268   0.751   5.106   8.243  0.1292 -0.0598 -0.5569
  192SLPC  H18R22269   0.838   5.171   8.265  0.2679  1.3929 -4.5256
  192SLPC  H18S22270   0.790   5.016   8.190 -0.2585 -0.8832  0.5125
  192SLPC  H18T22271   0.710   5.081   8.343 -1.3828  0.1816 -1.0892
  192SLPC   C3322272   0.175   5.054   6.904  0.0966  0.5999 -0.1319
  192SLPC   H3X22273   0.282   5.084   6.903  0.5733 -0.9571  0.6236
  192SLPC   H3Y22274   0.166   4.953   6.858 -1.2400  0.8658 -0.5077
  192SLPC   C3422275   0.118   5.033   7.042  0.2907 -0.2003  0.7670
  192SLPC   H4X22276   0.125   4.924   7.059  1.9054  0.0023  1.6264
  192SLPC   H4Y22277   0.009   5.054   7.041  0.4006  0.3903 -0.0588
  192SLPC   C3522278   0.193   5.110   7.145 -0.0299  0.3320  0.0489
  192SLPC   H5X22279   0.191   5.220   7.128  1.3223  0.3990  0.2582
  192SLPC   H5Y22280   0.302   5.094   7.133 -0.0890  0.1826 -0.2843
  192SLPC   C3622281   0.159   5.079   7.292 -0.3982  0.0576  0.2946
  192SLPC   H6X22282   0.052   5.103   7.310 -0.7643 -2.3830  1.8532
  192SLPC   H6Y22283   0.227   5.141   7.354 -0.5692 -0.5756  1.1247
  192SLPC   C3722284   0.162   4.928   7.324 -0.2912 -0.0308 -0.3519
  192SLPC   H7X22285   0.247   4.879   7.272  2.9471  1.3473  3.1728
  192SLPC   H7Y22286   0.072   4.868   7.297 -1.9523  2.1323  0.0737
  192SLPC   C3822287   0.181   4.909   7.477  0.0853 -0.0544 -0.2645
  192SLPC   H8X22288   0.085   4.948   7.516 -0.0454 -0.5798 -0.0396
  192SLPC   H8Y22289   0.248   4.986   7.522 -0.6339 -0.0214  0.7985
  192SLPC   C3922290   0.213   4.766   7.526 -0.3097 -0.2518  0.2739
  192SLPC   H9X22291   0.300   4.743   7.461 -2.0895  1.8922 -3.1619
  192SLPC   H9Y22292   0.134   4.691   7.503  0.5888 -0.7345 -1.3790
  192SLPC  C31022293   0.252   4.772   7.674  0.4411  0.4613  0.1205
  192SLPC  H10X22294   0.334   4.847   7.684  1.8526 -1.1421  1.3839
  192SLPC  H10Y22295   0.288   4.675   7.715 -0.6350 -0.1773 -0.4287
  192SLPC  C31122296   0.141   4.821   7.774  0.7219 -0.7837  0.0596
  192SLPC  H11X22297   0.091   4.916   7.747  1.5315 -0.1219  0.8250
  192SLPC  H11Y22298   0.191   4.827   7.873  0.1558 -0.7152  0.3458
  192SLPC  C31222299   0.035   4.708   7.802  0.1053  0.3531  0.2143
  192SLPC  H12X22300   0.085   4.618   7.844  0.5784  0.7935  0.6215
  192SLPC  H12Y22301  -0.004   4.682   7.701 -0.5830 -0.0714  0.5920
  192SLPC  C31322302  -0.080   4.735   7.899 -0.1189 -0.3443  0.9158
  192SLPC  H13X22303  -0.153   4.652   7.895 -1.3453  0.7272 -2.2349
  192SLPC  H13Y22304  -0.141   4.814   7.851  0.4457 -0.5568 -0.1855
  192SLPC  C31422305  -0.036   4.778   8.039  0.0169 -0.3099 -0.3945
  192SLPC  H14X22306   0.046   4.714   8.078 -2.2850 -2.7017  0.8428
  192SLPC  H14Y22307  -0.124   4.762   8.105 -1.2879  0.5161 -1.8798
  192SLPC  C31522308   0.001   4.924   8.060  0.3454  0.2228  0.3751
  192SLPC  H15X22309  -0.079   4.985   8.013 -1.8084 -3.9526 -1.9815
  192SLPC  H15Y22310   0.097   4.944   8.009 -1.3235  3.4442 -1.8010
  192SLPC  C31622311   0.018   4.973   8.206  0.4776  0.1936  0.0170
  192SLPC  H16X22312   0.105   4.918   8.247 -0.3561 -2.8684 -1.8984
  192SLPC  H16Y22313  -0.074   4.954   8.265  0.8764  2.5219  1.5054
  192SLPC  C31722314   0.047   5.130   8.226  0.6329  0.0953  0.0264
  192SLPC  H17X22315   0.064   5.138   8.335 -0.1885 -0.8788  0.2409
  192SLPC  H17Y22316  -0.044   5.189   8.200  0.9913  0.1944 -1.0510
  192SLPC  C31822317   0.171   5.186   8.155 -0.1651  0.2161  0.0276
  192SLPC  H18X22318   0.156   5.225   8.052 -0.3968 -0.4503 -0.2016
  192SLPC  H18Y22319   0.249   5.107   8.151 -1.1605 -0.7729 -0.6440
  192SLPC  H18Z22320   0.201   5.271   8.219  1.0616  0.8465 -1.3445
  193SOD    SOD22321   6.744   1.248  12.939 -0.2112  0.0302 -0.0757
  194SOD    SOD22322   6.633   5.405   2.174 -0.2085  0.0449 -0.1011
  195SOD    SOD22323   5.878   6.423  16.372  0.6645  0.3924  0.0809
  196SOD    SOD22324   4.012   5.419  12.198  0.2346 -0.0305 -0.0960
  197SOD    SOD22325   3.679   2.928   3.048 -0.2443 -0.0258  0.0404
  198SOD    SOD22326   0.317   5.670  16.583  0.3384 -0.3945  0.7985
  199SOD    SOD22327   5.064   2.897  14.645 -0.2430  0.0261 -0.0534
  200SOD    SOD22328   6.714   5.911  17.187 -0.0655 -0.1039  0.3980
  201SOD    SOD22329   0.004   2.114  10.532 -0.8059 -0.0275  0.0504
  202SOD    SOD22330   1.890   6.668  11.519  0.2378  0.2279  0.2694
  203SOD    SOD22331   2.459   6.035  16.045  0.1552 -0.2602  0.6496
  204SOD    SOD22332   6.300   2.788   5.547  0.2530 -0.3753 -0.1283
  205SOD    SOD22333   1.454   6.566   3.188 -0.1467 -0.2751 -0.5579
  206SOD    SOD22334   0.642   6.465   1.283  0.2840  0.2639 -0.1247
  207SOD    SOD22335   6.694   6.262  12.030  0.2281 -0.0790  0.0341
  208SOD    SOD22336   3.235   6.056  13.847 -0.1768  0.1336 -0.3559
  209SOD    SOD22337   1.645   2.747  10.554  0.2956  0.5774 -0.1215
  210SOD    SOD22338   5.425   5.720   3.279 -0.0528 -0.2645 -0.2038
  211SOD    SOD22339   2.592   4.850  13.559  0.1296  0.3943  0.2096
  212SOD    SOD22340   0.996   0.347   0.326 -0.2527  0.2796 -0.0665
  213SOD    SOD22341   2.318   0.887   1.631  0.1012 -0.4984 -0.1042
  214SOD    SOD22342   3.891   1.609  17.154  0.5264  0.3241 -0.1610
  215SOD    SOD22343   2.566   1.129  11.514  0.0375  0.1552 -0.3447
  216SOD    SOD22344   2.117   6.755   6.618  0.1560  0.0011 -0.0515
  217SOD    SOD22345   2.176   1.765   2.396 -0.1046  0.3396 -0.4394
  218SOD    SOD22346   3.271   4.753   4.013  0.0463  0.3394  0.1425
  219SOD    SOD22347   3.754   1.298   5.091 -0.5088  0.0175 -0.2500
  220SOD    SOD22348   2.400   1.779  14.269  0.5697  0.3156  0.0006
  221SOD    SOD22349   4.550   3.830   6.310 -0.0652  0.1314  0.3216
  222SOD    SOD22350   1.134   4.338   6.250  0.3878  0.3000  0.5603
  223SOD    SOD22351   4.270   5.607   1.666 -0.5978 -0.1383  0.1712
  224SOD    SOD22352   1.260   0.741  15.822  0.1398  0.1420 -0.4907
  225SOD    SOD22353   1.156   3.857   3.619  0.2132 -0.0656 -0.3259
  226SOD    SOD22354   2.117   2.600   0.802 -0.1456 -0.0452 -0.0547
  227SOD    SOD22355   0.292   0.672  14.592  0.5505  0.1195  0.7094
  228SOD    SOD22356   0.292   5.561  11.398  0.5035  0.2162  0.1662
  229SOD    SOD22357   0.610   4.196  10.619 -0.3769  0.2885 -0.1914
  230SOD    SOD22358   2.501   0.692   5.258  0.3631 -0.0840  0.0400
  231SOD    SOD22359   0.810   1.007  16.137  0.3273  0.1211  0.0959
  232SOD    SOD22360   5.647   6.673   1.990 -0.0051  0.1477  0.0058
  233SOD    SOD22361   0.195   2.979   4.095 -0.5661  0.3962  0.1364
  234SOD    SOD22362   5.225   1.744   1.174  0.4464 -0.4796  0.7374
  235SOD    SOD22363   5.491   6.784  11.103  0.1969 -0.4765  0.1484
  236SOD    SOD22364   4.435   0.139  10.638 -0.1041 -0.0420 -0.1805
  237SOD    SOD22365   4.477   5.822  14.912  0.0903  0.4080 -0.6137
  238SOD    SOD22366   5.662   3.572  12.592 -0.2837  0.0138  0.4203
  239SOD    SOD22367   2.317   5.638   0.942 -0.0241  0.1960  0.0896
  240SOD    SOD22368   2.927   5.419   2.952  0.2420 -0.1171  0.1243
  241SOD    SOD22369   1.169   1.353   1.101  0.2698  0.0160  0.0583
  242SOD    SOD22370   6.546   3.260   2.803  0.3013  0.2617 -0.2804
  243SOD    SOD22371   0.027   0.680   1.227 -0.0288  0.1686 -0.6100
  244SOD    SOD22372   6.635   3.090  11.808 -0.3472  0.0144 -0.2175
  245SOD    SOD22373   3.813   4.505   4.641 -0.2459  0.1304  0.6792
  246SOD    SOD22374   5.102   6.759   2.679 -0.3415 -0.1702 -0.8085
  247SOD    SOD22375   6.604   6.146  10.781  0.4193  0.3579 -0.0919
  248SOD    SOD22376   1.058   3.411   3.266  0.0076  0.1476 -0.0693
  249SOD    SOD22377   3.165   2.150   5.947  0.2853 -0.1485 -0.5852
  250SOD    SOD22378   1.389   4.440  16.653  0.2622 -0.0629  0.2156
  251SOD    SOD22379   5.588   0.070  11.810 -0.0391  0.1032  0.4498
  252SOD    SOD22380   4.880   2.601   0.479  0.3282 -0.3031 -0.1796
  253SOD    SOD22381   0.644   2.318  15.356  0.6217  0.4792  0.3571
  254SOD    SOD22382   2.009   5.985  10.839  0.2040 -0.4602  0.1346
  255SOD    SOD22383   3.054   6.366   5.052  0.0240  0.3792 -0.1804
  256SOD    SOD22384   5.936   5.411   5.342  0.0492 -0.0461 -0.6197
  257SOD    SOD22385   2.081   1.864   4.645  0.0651 -0.0862 -0.1064
  258SOD    SOD22386   1.103   6.718  13.090  0.0702  0.3783 -0.5590
  259SOD    SOD22387   3.625   3.217  16.423 -0.2231  0.0738 -0.2082
  260SOD    SOD22388   0.397   4.986   6.529 -0.1821 -0.5132  0.1745
  261SOD    SOD22389   4.449   1.791  13.097  0.2381 -0.4246  0.2104
  262SOD    SOD22390   4.521   0.773  15.592  0.3282  0.3463 -0.6451
  263SOD    SOD22391   1.702   2.272  13.704 -0.0306 -0.3190 -0.3427
  264SOD    SOD22392   5.565   1.507   4.415  0.4434 -0.5067 -0.4730
  265SOD    SOD22393   4.820   4.157  12.761 -0.3046 -0.0584  0.2869
  266CLA    CLA22394   3.747   1.218   1.768  0.2544  0.1832 -0.0369
  267CLA    CLA22395   1.624   1.748  16.752  0.0129 -0.3311  0.0647
  268CLA    CLA22396   3.620   3.487   4.499  0.0441  0.0861 -0.0807
  269CLA    CLA22397   3.125   0.266  14.138 -0.0208 -0.2418 -0.0075
  270CLA    CLA22398   5.592   4.970   2.485  0.1384  0.1723 -0.1350
  271CLA    CLA22399   6.433   1.235  15.138  0.1714  0.1257 -0.3288
  272CLA    CLA22400   5.824   0.662  11.473 -0.0674 -0.0439  0.1835
  273CLA    CLA22401   3.998   0.471  12.834 -0.0132  0.2914  0.1096
  274CLA    CLA22402   1.763   4.855   1.173  0.0710  0.2622 -0.0121
  275CLA    CLA22403   3.378   5.449   2.757  0.0288 -0.2965 -0.0376
  276CLA    CLA22404   1.758   6.334  15.739  0.0241  0.2718  0.1544
  277CLA    CLA22405   2.266   6.286  14.112  0.5302 -0.2559  0.0057
  278CLA    CLA22406   1.032   2.802  11.807 -0.2387 -0.2806  0.0036
  279CLA    CLA22407   0.304   0.152   0.150 -0.0856 -0.2206  0.2940
  280CLA    CLA22408   2.121   1.180   2.052  0.1943 -0.1109 -0.0209
  281CLA    CLA22409   6.450   2.086   4.778 -0.0672  0.0082  0.4653
  282CLA    CLA22410   3.027   0.251   4.421 -0.0920 -0.0237  0.2962
  283CLA    CLA22411   2.287   4.436  13.702 -0.6502 -0.2323 -0.0241
  284CLA    CLA22412   0.487   6.416  13.300  0.1160  0.3348  0.1713
  285CLA    CLA22413   3.323   4.403  15.092 -0.4026 -0.2462 -0.2620
  286CLA    CLA22414   2.417   2.550   1.680 -0.3304 -0.2791 -0.1407
  287CLA    CLA22415   5.677   6.605   2.228  0.2174  0.3428 -0.4136
  288CLA    CLA22416   4.229   5.238  12.926 -0.4483  0.1905  0.0495
  289CLA    CLA22417   5.275   0.133   1.318 -0.2373  0.4078 -0.2751
  290CLA    CLA22418   0.448   2.828   2.012  0.4473 -0.0380 -0.0785
  291CLA    CLA22419   3.295   3.954   2.671 -0.0155 -0.6903 -0.2388
  292CLA    CLA22420   0.980   3.727   2.951 -0.3779 -0.1285 -0.3273
  293CLA    CLA22421   4.799   1.760   3.936 -0.6968 -0.2133 -0.1952
  294CLA    CLA22422   0.684   5.982   2.907  0.1544 -0.2777 -0.0357
  295CLA    CLA22423   2.311   0.734   3.219  0.3076 -0.4914 -0.4526
  296CLA    CLA22424   0.763   5.946   5.538  0.2358  0.3312 -0.3726
  297CLA    CLA22425   3.233   2.961   0.103  0.2816 -0.4051 -0.0626
  298CLA    CLA22426   2.367   3.909  12.596  0.3988  0.1415 -0.0306
  299CLA    CLA22427   5.070   3.281   0.860  0.3552  0.0269  0.2504
  300CLA    CLA22428   1.508   0.860  16.982  0.1086 -0.0968  0.1068
  301CLA    CLA22429   5.510   1.505  15.875  0.2806  0.2091 -0.1902
  302CLA    CLA22430   4.343   0.480   0.639  0.0056  0.0912  0.1153
  303CLA    CLA22431   6.440   3.180   1.863 -0.2314  0.1828  0.1721
  304CLA    CLA22432   3.278   4.814  12.964  0.2180 -0.2264 -0.2102
  305CLA    CLA22433   6.119   3.931  12.908  0.0772  0.1914  0.1710
  306CLA    CLA22434   5.042   5.752   4.838 -0.0454 -0.0694 -0.5442
  307CLA    CLA22435   5.872   1.869   1.500 -0.0656  0.0072  0.1651
  308CLA    CLA22436   1.697   2.423  13.498  0.1839 -0.0831 -0.0783
  309CLA    CLA22437   3.328   4.955  11.246  0.4749 -0.1421 -0.1556
  310CLA    CLA22438   6.317   0.489  11.640  0.0239  0.0390  0.3408
  311CLA    CLA22439   4.408   1.129  16.392 -0.3660 -0.0435  0.0913
  312CLA    CLA22440   4.377   1.846  14.623 -0.3532  0.0797 -0.1595
  313CLA    CLA22441   1.185   5.475  17.031  0.1984  0.1515 -0.3041
  314CLA    CLA22442   6.090   3.906   1.659 -0.2165  0.0240  0.2304
  315CLA    CLA22443   4.503   0.293  12.882 -0.6731  0.1867 -0.3684
  316CLA    CLA22444   2.295   6.120  14.873  0.2138  0.4708 -0.4811
  317CLA    CLA22445   3.218   4.886   1.219  0.2449  0.4078  0.0020
  318CLA    CLA22446   5.895   3.592  12.740  0.2760  0.2321 -0.5149
  319TIP3   OH222447   1.293   1.643   2.426 -0.5709  0.3854 -0.4832
  319TIP3    H122448   1.295   1.566   2.370  0.9259  1.4356 -1.9897
  319TIP3    H222449   1.278   1.716   2.366 -0.8064  1.3892  0.7513
  320TIP3   OH222450   6.721   5.422  14.570 -0.3520  0.5083  0.2441
  320TIP3    H122451   6.736   5.335  14.531 -0.2910  0.3334  0.6549
  320TIP3    H222452   6.774   5.481  14.517  0.8609  0.0695  0.9340
  321TIP3   OH222453   3.932   2.600  15.994  0.2065 -0.0469  0.1166
  321TIP3    H122454   3.965   2.544  16.064 -0.1108 -0.4039 -0.0234
  321TIP3    H222455   3.854   2.641  16.030  1.4989  1.8507  0.9453
  322TIP3   OH222456   3.235   5.815   3.612  0.4224  0.6535 -1.0581
  322TIP3    H122457   3.242   5.894   3.666 -0.2758  0.6947 -1.0237
  322TIP3    H222458   3.255   5.743   3.672  1.3445  0.8121 -1.1554
  323TIP3   OH222459   1.492   5.281  14.305  0.2017 -0.0237 -0.1299
  323TIP3    H122460   1.571   5.324  14.339 -0.8169  1.4722  0.4672
  323TIP3    H222461   1.524   5.224  14.236  1.5636  2.7763 -2.0131
  324TIP3   OH222462   1.803   0.756  12.058 -1.0527 -0.0428  0.1463
  324TIP3    H122463   1.709   0.754  12.043 -1.0314 -1.4416  0.1239
  324TIP3    H222464   1.820   0.846  12.088 -1.9847  1.0795 -2.3513
  325TIP3   OH222465   6.391   4.867  14.265 -0.0314  0.1164 -0.2517
  325TIP3    H122466   6.301   4.854  14.233 -0.8655  0.3695  1.7973
  325TIP3    H222467   6.419   4.780  14.293  1.0823 -0.3009 -2.4713
  326TIP3   OH222468   1.848   2.833   0.545  0.2931  0.5651  0.3609
  326TIP3    H122469   1.843   2.913   0.493 -0.5392  1.0768  1.1865
  326TIP3    H222470   1.757   2.816   0.572  0.8334  1.2761  2.9758
  327TIP3   OH222471   4.925   2.835  14.477 -0.4651  0.4109 -0.6122
  327TIP3    H122472   4.831   2.837  14.494 -0.2513 -2.4193  1.5738
  327TIP3    H222473   4.935   2.778  14.401 -0.4275 -2.1876  1.2276
  328TIP3   OH222474   2.924   0.030  12.998  0.5784 -0.0864 -0.1133
  328TIP3    H122475   3.010   0.011  12.962  0.9093 -0.8687  1.0550
  328TIP3    H222476   2.867   0.035  12.921  1.5112 -0.3778 -0.8390
  329TIP3   OH222477   0.958   5.743   4.278 -0.1428  0.5369  0.0996
  329TIP3    H122478   0.954   5.815   4.215  1.7014  1.0087  0.4699
  329TIP3    H222479   1.022   5.683   4.241 -0.1060  0.1264  0.8210
  330TIP3   OH222480   4.115   6.476  14.961 -0.3874  0.1647 -0.1645
  330TIP3    H122481   4.133   6.419  15.036 -2.1271  0.9406  0.9177
  330TIP3    H222482   4.021   6.496  14.969 -0.0731  2.2872 -1.1139
  331TIP3   OH222483   1.433   0.853   3.594  0.2991 -0.3375  0.3706
  331TIP3    H122484   1.369   0.824   3.660 -0.8371  1.3163  0.0492
  331TIP3    H222485   1.385   0.916   3.540  1.5419 -0.7825 -1.3502
  332TIP3   OH222486   5.573   0.763  12.973 -0.1837 -0.5525  0.6047
  332TIP3    H122487   5.480   0.773  12.957 -0.1658 -0.1227  0.7700
  332TIP3    H222488   5.605   0.708  12.901 -0.4137 -0.0450  0.1157
  333TIP3   OH222489   4.883   2.355   0.943 -0.5301  0.2149 -0.2142
  333TIP3    H122490   4.830   2.275   0.940 -0.0406 -0.1555  0.6919
  333TIP3    H222491   4.966   2.328   0.982 -0.6016  1.2959  0.7418
  334TIP3   OH222492   4.577   6.805   1.942 -0.2746  0.6324 -0.1251
  334TIP3    H122493   4.669   6.800   1.966 -0.6585 -1.6545  1.2389
  334TIP3    H222494   4.551   6.714   1.926 -1.5694  1.4700 -3.6649
  335TIP3   OH222495   1.239   5.881   1.963  0.5675 -0.9145 -0.1523
  335TIP3    H122496   1.293   5.960   1.970  0.7598 -1.1204  0.8014
  335TIP3    H222497   1.174   5.903   1.896  1.1199 -0.2449 -0.4852
  336TIP3   OH222498   6.819   0.185   4.575 -0.1011  0.2910 -0.8525
  336TIP3    H122499   6.801   0.161   4.666  1.7243 -0.6942 -0.7047
  336TIP3    H222500   6.844   0.277   4.579 -3.2000  1.2469 -0.8653
  337TIP3   OH222501   1.104   4.258  15.785  1.0385 -0.3630 -0.0821
  337TIP3    H122502   1.133   4.293  15.869 -2.2558 -1.5467  1.7130
  337TIP3    H222503   1.108   4.163  15.796 -0.4342 -0.5364 -0.8376
  338TIP3   OH222504   4.272   5.460  14.873  0.2205 -0.5062 -0.7223
  338TIP3    H122505   4.220   5.381  14.857 -0.6272  0.3050 -2.2329
  338TIP3    H222506   4.363   5.432  14.862  0.0205 -1.5762  0.2388
  339TIP3   OH222507   2.671   5.975   2.457 -0.2571  0.2046  0.1571
  339TIP3    H122508   2.597   5.954   2.399  0.3602  1.6934 -1.2572
  339TIP3    H222509   2.686   6.068   2.442  3.3859 -0.4817 -1.4574
  340TIP3   OH222510   3.579   0.252  11.305 -0.4022 -0.1303  0.0500
  340TIP3    H122511   3.660   0.243  11.355 -0.7175 -2.8848  0.2186
  340TIP3    H222512   3.532   0.324  11.348  1.7952  1.3876  0.0676
  341TIP3   OH222513   6.774   3.644   2.746 -0.2736 -0.5999  0.2718
  341TIP3    H122514   6.838   3.618   2.680  0.3822  2.3990 -0.3957
  341TIP3    H222515   6.716   3.705   2.700 -1.8557 -0.9783  1.6620
  342TIP3   OH222516   5.534   4.212   4.607 -0.4478  0.2467 -1.1277
  342TIP3    H122517   5.612   4.205   4.663 -1.5196  2.2751  0.7893
  342TIP3    H222518   5.508   4.121   4.590  1.5758 -0.4541 -0.7649
  343TIP3   OH222519   2.050   3.198   4.396  0.3603 -0.2845 -0.1474
  343TIP3    H122520   2.091   3.281   4.420  1.2239 -0.3916 -1.1843
  343TIP3    H222521   2.030   3.207   4.303  0.4742 -1.2367 -0.2697
  344TIP3   OH222522   2.429   6.010  15.131  0.3296  0.2802 -0.3965
  344TIP3    H122523   2.441   5.915  15.138 -0.9157  0.0685 -0.8937
  344TIP3    H222524   2.411   6.025  15.038  0.7565  1.0365 -0.3624
  345TIP3   OH222525   4.187   5.120  13.487 -0.8200  0.3267  0.2144
  345TIP3    H122526   4.182   5.028  13.460  0.5699  0.2944  0.0112
  345TIP3    H222527   4.101   5.156  13.464 -0.4816 -0.2623 -2.2532
  346TIP3   OH222528   6.029   0.062  15.346  0.0929 -0.8410 -0.0232
  346TIP3    H122529   6.040   0.013  15.427  0.0168  0.9650  1.1402
  346TIP3    H222530   5.938   0.092  15.347 -0.2994 -1.8683 -1.4449
  347TIP3   OH222531   4.684   5.980   3.685  0.0245 -0.1141  0.3507
  347TIP3    H122532   4.741   5.907   3.708  0.5795  0.4920  0.9713
  347TIP3    H222533   4.622   5.987   3.757 -0.3051 -0.2420  0.0833
  348TIP3   OH222534   3.905   3.351  14.793 -0.2853  0.1606 -0.0465
  348TIP3    H122535   3.998   3.374  14.794  1.2882 -4.5483 -3.0463
  348TIP3    H222536   3.899   3.273  14.848 -1.8231 -1.2060 -2.0121
  349TIP3   OH222537   4.200   4.860  16.423 -0.5267  0.8355 -0.2287
  349TIP3    H122538   4.191   4.943  16.470  5.0897  0.8221  1.6443
  349TIP3    H222539   4.171   4.794  16.485 -0.0648  1.2110  0.4016
  350TIP3   OH222540   5.713   4.072  14.797 -0.4697  0.6450 -0.3822
  350TIP3    H122541   5.634   4.054  14.745  0.0608  2.5618 -1.9837
  350TIP3    H222542   5.781   4.018  14.757 -0.7254 -0.2477  0.3594
  351TIP3   OH222543   0.369   4.130   4.657  0.6272 -0.0178  0.1180
  351TIP3    H122544   0.314   4.076   4.600 -0.3635 -1.7818  2.6066
  351TIP3    H222545   0.447   4.076   4.673  0.6519  0.2303  0.8538
  352TIP3   OH222546   4.288   3.792   4.395 -0.7159  0.4506 -0.7018
  352TIP3    H122547   4.378   3.810   4.367 -0.9692 -1.5271 -3.1728
  352TIP3    H222548   4.290   3.704   4.431 -1.3342  1.2059  1.3465
  353TIP3   OH222549   4.167   5.278  15.135 -0.3039 -0.5176 -0.3167
  353TIP3    H122550   4.188   5.359  15.182 -0.7252 -0.6293  0.0692
  353TIP3    H222551   4.144   5.307  15.046 -1.1116 -0.1409  0.0018
  354TIP3   OH222552   4.236   2.115   1.606 -0.0492 -0.4660 -0.0475
  354TIP3    H122553   4.252   2.020   1.604  0.3210 -0.4438  1.2159
  354TIP3    H222554   4.296   2.148   1.673 -0.3821  0.6280 -0.2760
  355TIP3   OH222555   2.863   6.794  15.109  0.3428 -0.0832  0.1358
  355TIP3    H122556   2.889   6.763  15.196 -0.6270  0.7059  0.7290
  355TIP3    H222557   2.945   6.806  15.062  0.8392 -1.4397  0.6061
  356TIP3   OH222558   4.415   6.432  13.309 -0.1758  0.4731  0.4508
  356TIP3    H122559   4.350   6.497  13.338  1.7328  2.5015  0.5047
  356TIP3    H222560   4.448   6.393  13.391  2.1388  3.1007  0.9447
  357TIP3   OH222561   4.955   3.964  16.016 -0.1963 -0.1653 -0.1472
  357TIP3    H122562   4.966   3.874  15.984 -0.0797  0.0626 -0.7734
  357TIP3    H222563   4.976   3.960  16.109  0.3439 -0.6810 -0.2885
  358TIP3   OH222564   5.853   3.632  13.056 -0.2396 -0.1599  0.1095
  358TIP3    H122565   5.889   3.609  12.970 -1.3728  0.4241 -0.5475
  358TIP3    H222566   5.784   3.567  13.070  0.6151 -0.8849  1.0652
  359TIP3   OH222567   4.307   1.747  11.720  0.1925  0.0132 -0.5647
  359TIP3    H122568   4.274   1.703  11.798 -0.1246  1.1415 -0.0446
  359TIP3    H222569   4.230   1.763  11.666  0.0605  1.3074 -0.0311
  360TIP3   OH222570   5.516   6.363  16.645  0.3776  0.2625  0.2268
  360TIP3    H122571   5.526   6.363  16.740 -1.0042  0.1115  0.4030
  360TIP3    H222572   5.467   6.443  16.626  3.0578  1.8174 -0.7176
  361TIP3   OH222573   5.854   2.594  13.325 -0.6041  0.1164  0.4903
  361TIP3    H122574   5.843   2.501  13.306 -0.2194  0.5203 -2.0439
  361TIP3    H222575   5.948   2.605  13.337 -0.7123  0.0919  1.3975
  362TIP3   OH222576   3.469   3.254  14.243 -0.0383  0.5080 -0.1664
  362TIP3    H122577   3.410   3.193  14.288 -0.3815  2.2910  2.0002
  362TIP3    H222578   3.555   3.214  14.251 -0.6004 -0.9989 -1.2723
  363TIP3   OH222579   3.770   3.445  15.825 -0.1400  0.0950 -0.4310
  363TIP3    H122580   3.845   3.420  15.878 -0.1309  0.6722 -0.1708
  363TIP3    H222581   3.807   3.496  15.753 -0.1455 -0.7259 -1.0366
  364TIP3   OH222582   3.669   1.410   1.108  0.2266 -0.4484  0.2919
  364TIP3    H122583   3.670   1.458   1.191  1.8184 -1.6044  1.0005
  364TIP3    H222584   3.649   1.320   1.133  0.1323 -0.6928 -0.6603
  365TIP3   OH222585   6.595   0.631   4.100  0.1328  0.0589 -0.2852
  365TIP3    H122586   6.555   0.566   4.043 -0.3308  0.2831 -0.2181
  365TIP3    H222587   6.621   0.582   4.178  0.0105 -0.0921 -0.3396
  366TIP3   OH222588   0.875   0.359   2.517  0.5100 -0.3770 -0.6728
  366TIP3    H122589   0.894   0.413   2.440 -0.4985  1.7734  0.4798
  366TIP3    H222590   0.949   0.373   2.575  0.3437 -0.4125 -0.4512
  367TIP3   OH222591   1.688   3.331  12.583  0.0181  0.5428 -0.0775
  367TIP3    H122592   1.622   3.279  12.537 -0.4231  0.0804  1.0413
  367TIP3    H222593   1.661   3.422  12.569 -0.6930  0.3668  0.1378
  368TIP3   OH222594   5.331   3.580   2.292  0.5112  0.4373  0.0387
  368TIP3    H122595   5.379   3.660   2.271  0.4458  0.0346 -1.7735
  368TIP3    H222596   5.295   3.596   2.379  1.0807  2.0936  0.0009
  369TIP3   OH222597   4.067   6.170   1.545 -0.1239  0.1656  0.4206
  369TIP3    H122598   4.109   6.240   1.594  0.7970  1.6121 -2.2341
  369TIP3    H222599   4.002   6.215   1.490 -0.3263 -1.2045 -0.5098
  370TIP3   OH222600   3.256   2.970   0.863  0.0764 -0.2352  0.1018
  370TIP3    H122601   3.260   3.016   0.947  0.6599 -0.1075  0.0055
  370TIP3    H222602   3.218   2.885   0.884 -1.9371  0.6135  0.1382
  371TIP3   OH222603   4.239   5.980   5.037 -0.2370  0.4020 -0.2693
  371TIP3    H122604   4.285   5.901   5.066 -0.1885  0.3790 -0.4089
  371TIP3    H222605   4.173   5.996   5.105 -0.4095  0.0991 -0.3612
  372TIP3   OH222606   3.205   4.768   3.482 -0.0712  0.1729 -0.2344
  372TIP3    H122607   3.181   4.836   3.419  0.2071 -1.2795 -1.9885
  372TIP3    H222608   3.122   4.732   3.512 -0.2044  0.8075  0.1754
  373TIP3   OH222609   4.781   4.474   1.079  0.6995 -0.5879 -0.5352
  373TIP3    H122610   4.857   4.507   1.127 -0.7566  0.7783  0.9679
  373TIP3    H222611   4.785   4.379   1.089  2.2640 -0.5603 -0.6307
  374TIP3   OH222612   3.761   6.437  15.251  0.2897 -0.6579  0.1026
  374TIP3    H122613   3.685   6.379  15.244 -0.2102  0.0873 -1.0506
  374TIP3    H222614   3.836   6.382  15.226 -0.1780 -0.8089 -1.0212
  375TIP3   OH222615   0.522   0.041   4.928 -0.2438 -0.1412 -0.1843
  375TIP3    H122616   0.567   0.099   4.990  0.0759 -0.4841 -0.0983
  375TIP3    H222617   0.525  -0.045   4.969 -0.2816 -0.3143 -0.5499
  376TIP3   OH222618   1.365   4.999  14.386 -0.6656 -0.4892  0.3570
  376TIP3    H122619   1.443   5.033  14.340 -1.5384 -0.6193 -1.3004
  376TIP3    H222620   1.341   5.069  14.447 -0.8717  0.7819 -1.1265
  377TIP3   OH222621   5.290   1.726  16.689  0.4968  0.1313 -0.0795
  377TIP3    H122622   5.267   1.635  16.708 -0.2725  0.4918  0.7515
  377TIP3    H222623   5.214   1.760  16.642  0.6862  0.4153 -0.1789
  378TIP3   OH222624   3.427   0.140   1.288 -0.2220 -0.7319 -0.1309
  378TIP3    H122625   3.450   0.192   1.365 -2.3857 -0.5475  0.4715
  378TIP3    H222626   3.434   0.200   1.215 -3.1572  0.6951  0.6120
  379TIP3   OH222627   5.167   2.579   1.648 -0.7554  0.2527  0.4827
  379TIP3    H122628   5.203   2.498   1.686  0.6308  0.3601 -0.5451
  379TIP3    H222629   5.149   2.635   1.724 -1.5444 -0.9118  1.2032
  380TIP3   OH222630   3.685   5.644  15.856  0.1195  0.0499 -0.3490
  380TIP3    H122631   3.743   5.705  15.902  0.2323 -0.2305 -0.1221
  380TIP3    H222632   3.614   5.627  15.918 -0.9270  1.4320 -1.1058
  381TIP3   OH222633   6.537   5.076  14.273  0.2887  0.3291 -0.0200
  381TIP3    H122634   6.491   4.992  14.275  0.6958  0.0833  2.9639
  381TIP3    H222635   6.468   5.142  14.268 -0.1840 -0.1180  0.5760
  382TIP3   OH222636   2.190   2.097   6.540 -0.3755 -0.1345  0.1943
  382TIP3    H122637   2.103   2.092   6.499 -0.4663  1.3105  0.1777
  382TIP3    H222638   2.214   2.005   6.554 -0.7360 -0.6774 -2.2572
  383TIP3   OH222639   6.780   2.625  15.412 -0.9292  0.2792 -0.4960
  383TIP3    H122640   6.863   2.673  15.421 -0.0030 -1.2247 -0.6650
  383TIP3    H222641   6.720   2.669  15.472  0.5712  0.1583  1.1589
  384TIP3   OH222642   5.301   1.116   2.284  0.6651 -0.2216  0.3278
  384TIP3    H122643   5.376   1.070   2.245 -0.5712 -1.4098 -0.7601
  384TIP3    H222644   5.335   1.203   2.306  2.4597 -0.8591  0.2641
  385TIP3   OH222645   6.389   1.823  13.711 -0.0928  0.1685  0.2489
  385TIP3    H122646   6.445   1.880  13.763 -0.2013  0.0787  0.4644
  385TIP3    H222647   6.388   1.740  13.759 -0.0275  0.0201 -0.0029
  386TIP3   OH222648   0.713   6.304  10.615  0.1166 -0.4867 -0.3365
  386TIP3    H122649   0.765   6.359  10.555 -1.1894 -0.8303 -1.8763
  386TIP3    H222650   0.643   6.362  10.645 -0.0900 -0.7355 -0.3368
  387TIP3   OH222651   6.537   3.999   4.544 -0.5134  0.3425  0.0046
  387TIP3    H122652   6.501   3.961   4.464  1.4632 -0.5809 -0.5135
  387TIP3    H222653   6.554   4.090   4.522 -2.3536  0.7725  0.2359
  388TIP3   OH222654   4.883   2.523  15.811  0.1494  0.8774  0.0686
  388TIP3    H122655   4.860   2.481  15.729  0.8986  1.9057 -0.6948
  388TIP3    H222656   4.933   2.600  15.785  2.6514 -0.1354  1.5611
  389TIP3   OH222657   1.967   5.271  11.388  0.2197 -0.2182 -0.5088
  389TIP3    H122658   2.021   5.240  11.461  0.3793 -0.0550 -0.5553
  389TIP3    H222659   1.878   5.270  11.422  0.2118 -0.7895 -0.5312
  390TIP3   OH222660   0.435   4.171   2.507 -0.6314  0.3944 -0.4113
  390TIP3    H122661   0.498   4.146   2.438  0.7707 -2.3236  1.6569
  390TIP3    H222662   0.490   4.203   2.578 -2.0063  2.3378 -0.1615
  391TIP3   OH222663   4.159   0.365  16.135 -0.2294 -0.1332  0.3503
  391TIP3    H122664   4.088   0.315  16.176  0.9978 -1.1829  1.2588
  391TIP3    H222665   4.204   0.407  16.209  0.3314  0.2168 -0.1829
  392TIP3   OH222666   4.858   2.623   0.964  0.0130 -0.4519 -0.3339
  392TIP3    H122667   4.917   2.673   0.908  1.9296 -0.5307  1.5111
  392TIP3    H222668   4.874   2.532   0.940  0.4053 -0.4530 -0.0794
  393TIP3   OH222669   0.712   3.470  14.664  0.3672 -0.1047  0.1776
  393TIP3    H122670   0.698   3.446  14.572 -1.0717  1.7250 -0.1335
  393TIP3    H222671   0.687   3.391  14.713 -0.7813 -0.4570 -0.9221
  394TIP3   OH222672   2.194   2.150   3.886  0.0326 -0.0962  0.9496
  394TIP3    H122673   2.144   2.147   3.805 -1.8624  0.1671  2.0433
  394TIP3    H222674   2.284   2.133   3.860 -0.4341  0.5606 -1.2617
  395TIP3   OH222675   3.949   4.596   1.398  0.5944 -0.0633  1.4059
  395TIP3    H122676   3.984   4.662   1.339 -0.4363 -0.4181  0.3714
  395TIP3    H222677   4.004   4.603   1.477  4.3401 -1.8587 -0.7424
  396TIP3   OH222678   3.738   0.753   5.366  0.5455  0.2755  0.1782
  396TIP3    H122679   3.663   0.797   5.406  0.0498 -1.3641  1.1307
  396TIP3    H222680   3.732   0.776   5.273 -1.0029  0.3496  0.2690
  397TIP3   OH222681   2.568   1.970  13.775  0.0029  0.0387  0.3329
  397TIP3    H122682   2.567   2.065  13.784 -1.6936 -0.0049  0.9876
  397TIP3    H222683   2.661   1.946  13.782  0.6927  1.7875 -1.8044
  398TIP3   OH222684   1.504   5.542  11.243 -0.5385 -0.2828  0.4094
  398TIP3    H122685   1.567   5.536  11.315 -2.8819 -0.5056  2.5830
  398TIP3    H222686   1.533   5.476  11.181  0.7034 -1.2037  1.8885
  399TIP3   OH222687   3.224   6.276   2.053  0.1301  0.0619  0.0969
  399TIP3    H122688   3.197   6.345   2.113  0.9247 -0.1698  0.7363
  399TIP3    H222689   3.142   6.236   2.024 -0.4405  2.0405 -1.2515
  400TIP3   OH222690   6.252   4.603   1.930 -0.2597 -0.0903 -0.2919
  400TIP3    H122691   6.202   4.672   1.887 -1.5042 -0.3532  0.6990
  400TIP3    H222692   6.238   4.525   1.875 -1.6492 -0.3666  0.4166
  401TIP3   OH222693   1.075   2.096   3.428  0.0571 -0.2537 -0.4625
  401TIP3    H122694   1.002   2.057   3.379  0.3499  0.0322 -1.1290
  401TIP3    H222695   1.141   2.028   3.430  0.8502  0.3996 -2.2353
  402TIP3   OH222696   0.089   1.619  12.786 -0.2473 -0.2131  0.2438
  402TIP3    H122697   0.072   1.603  12.879 -0.2633 -2.6659 -0.1106
  402TIP3    H222698   0.002   1.633  12.748 -0.1471  2.5856  0.7748
  403TIP3   OH222699   2.560   4.518  14.992 -0.0160 -0.0446 -0.7301
  403TIP3    H122700   2.553   4.433  14.948  1.2328 -0.3199 -0.4489
  403TIP3    H222701   2.473   4.532  15.031  0.0776 -1.7630  0.2097
  404TIP3   OH222702   5.709   1.219  16.984  0.0208 -0.0904  0.6896
  404TIP3    H122703   5.631   1.201  17.036  1.2313 -0.2565  2.5488
  404TIP3    H222704   5.679   1.277  16.913 -2.0573 -1.4742  0.3724
  405TIP3   OH222705   3.479   0.937  15.942  0.2697 -0.2249 -0.1045
  405TIP3    H122706   3.471   0.849  15.977  0.8750  0.6173  2.3769
  405TIP3    H222707   3.573   0.954  15.938  0.2250 -0.1327 -1.9299
  406TIP3   OH222708   2.203   3.254  16.968  0.7714 -0.7804  0.7308
  406TIP3    H122709   2.190   3.163  16.942 -1.1825 -0.2561 -0.3397
  406TIP3    H222710   2.254   3.249  17.049 -1.5376 -2.9494  2.1977
  407TIP3   OH222711   3.277   1.807  17.068  0.1481  0.3929 -0.3623
  407TIP3    H122712   3.311   1.728  17.027 -0.2303 -0.9767  1.8274
  407TIP3    H222713   3.215   1.843  17.004 -1.3038 -2.2603 -0.5674
  408TIP3   OH222714   4.499   5.056   1.469  0.5089  0.5485  0.7913
  408TIP3    H122715   4.551   5.001   1.410  1.0180 -0.0911  1.8010
  408TIP3    H222716   4.513   5.145   1.438 -1.2158  0.0903 -1.5764
  409TIP3   OH222717   4.464   2.453   2.595 -0.0509  0.0543  0.2032
  409TIP3    H122718   4.533   2.511   2.563 -0.0941 -0.0776 -0.1323
  409TIP3    H222719   4.506   2.402   2.664  0.1568  0.0497  0.0744
  410TIP3   OH222720   1.368   6.175  14.780  0.8409 -0.6294  0.0427
  410TIP3    H122721   1.399   6.262  14.754 -0.1283 -0.1916  0.2723
  410TIP3    H222722   1.438   6.115  14.755  1.7555  0.2767  0.3646
  411TIP3   OH222723   1.050   3.897  16.019 -0.2317 -0.1635 -0.2813
  411TIP3    H122724   1.072   3.938  16.103  2.0809 -1.2094 -0.3061
  411TIP3    H222725   1.108   3.820  16.014 -0.7968 -0.5035 -2.5345
  412TIP3   OH222726   6.214   1.387  11.546  0.0828  0.5514 -0.1327
  412TIP3    H122727   6.142   1.426  11.597 -0.3369  0.0063 -0.2968
  412TIP3    H222728   6.170   1.329  11.484  0.6783  0.1307 -0.1650
  413TIP3   OH222729   6.167   5.445  16.212 -0.0080  0.0064  0.4232
  413TIP3    H122730   6.250   5.412  16.247  0.0017  0.6157  0.9902
  413TIP3    H222731   6.186   5.468  16.121  0.9054  1.7378  1.0142
  414TIP3   OH222732   1.316   5.567   2.890  1.0666  1.1144  0.0314
  414TIP3    H122733   1.358   5.652   2.879 -0.2785  1.6247 -1.6227
  414TIP3    H222734   1.341   5.518   2.812  0.5939  0.5541  0.2259
  415TIP3   OH222735   1.831   6.093   0.068 -0.5081  0.1233  0.3985
  415TIP3    H122736   1.736   6.103   0.073 -0.6323 -0.6710 -0.1459
  415TIP3    H222737   1.845   5.998   0.070  0.2395  0.2165  0.0095
  416TIP3   OH222738   2.872   5.723   4.282 -0.2910 -0.1064 -0.2136
  416TIP3    H122739   2.912   5.805   4.313  0.0322  0.9498 -3.0725
  416TIP3    H222740   2.907   5.656   4.340  2.9904  1.2274 -0.4417
  417TIP3   OH222741   1.347   1.460  17.031  0.1982 -0.0410  0.0507
  417TIP3    H122742   1.300   1.466  17.114  1.6776 -0.5669  0.9627
  417TIP3    H222743   1.401   1.539  17.027  0.3457 -0.1533 -0.2647
  418TIP3   OH222744   5.593   3.193  11.153 -0.4015 -0.0985 -0.6931
  418TIP3    H122745   5.541   3.145  11.217 -0.3345  2.4309  1.4169
  418TIP3    H222746   5.530   3.250  11.109 -0.1026 -0.3508 -1.4693
  419TIP3   OH222747   6.412   0.836  14.687  0.8251  0.5455  0.2182
  419TIP3    H122748   6.415   0.912  14.745 -1.1498  1.5268 -0.8442
  419TIP3    H222749   6.353   0.863  14.616  1.9608 -1.1292 -1.4628
  420TIP3   OH222750   5.081   6.539   1.549  0.2678  0.2979 -0.4957
  420TIP3    H122751   4.997   6.539   1.594  0.0474  2.0707 -0.8109
  420TIP3    H222752   5.135   6.599   1.600  0.8050  0.4185 -1.1981
  421TIP3   OH222753   6.009   0.160  16.727 -0.6001  0.7399  0.2751
  421TIP3    H122754   5.963   0.205  16.798  0.4375  1.0949  0.7387
  421TIP3    H222755   6.045   0.081  16.768 -0.9730  0.3423 -0.1434
  422TIP3   OH222756   3.442   6.453   6.132 -0.3347  0.1411  0.3556
  422TIP3    H122757   3.497   6.431   6.057  0.6020 -2.3333  1.6413
  422TIP3    H222758   3.373   6.386   6.131 -1.8283  1.5981  0.3064
  423TIP3   OH222759   1.117   6.198  11.492  0.0018  0.3881 -0.3811
  423TIP3    H122760   1.179   6.271  11.495  0.2166  0.1846  0.1746
  423TIP3    H222761   1.143   6.141  11.563 -1.2817  0.6768  0.3571
  424TIP3   OH222762   3.210   4.765   2.228  0.2472 -0.1910 -0.4280
  424TIP3    H122763   3.261   4.844   2.246 -1.7927  1.3527 -1.0567
  424TIP3    H222764   3.224   4.710   2.305  0.5666  1.4252  0.7231
  425TIP3   OH222765   2.028   2.408   1.575  0.5568 -0.2051  0.4975
  425TIP3    H122766   1.987   2.367   1.499  1.6577 -2.4677  1.0397
  425TIP3    H222767   2.073   2.485   1.539  1.3023 -1.3747 -1.2482
  426TIP3   OH222768   1.349   1.192  12.355 -0.1925 -0.0702 -0.6937
  426TIP3    H122769   1.373   1.252  12.426 -1.4910  0.7529 -0.9154
  426TIP3    H222770   1.263   1.158  12.380  0.4143 -1.6882 -0.7000
  427TIP3   OH222771   4.212   1.338   0.123 -0.5065  0.0799  0.4032
  427TIP3    H122772   4.270   1.312   0.051 -0.8871 -1.0874  0.4964
  427TIP3    H222773   4.250   1.296   0.200 -1.1067 -0.1628  0.5728
  428TIP3   OH222774   5.147   3.721  13.138 -0.0151  0.7425  0.1043
  428TIP3    H122775   5.053   3.734  13.124  0.1191  1.4437 -0.1967
  428TIP3    H222776   5.153   3.676  13.222 -0.7802 -2.2228 -1.2882
  429TIP3   OH222777   2.176   2.596  13.298 -0.4273 -0.0610  0.2373
  429TIP3    H122778   2.202   2.504  13.309 -0.9190 -0.1267  0.9046
  429TIP3    H222779   2.092   2.602  13.343 -0.7916  0.5279 -0.5190
  430TIP3   OH222780   3.342   6.581   7.006 -0.4053  0.3743  0.0161
  430TIP3    H122781   3.271   6.555   7.064 -0.9252  0.1810 -0.7000
  430TIP3    H222782   3.307   6.569   6.918  0.6357 -0.0710 -0.3533
  431TIP3   OH222783   0.125   6.395  15.198  0.7152 -1.1593 -0.2409
  431TIP3    H122784   0.197   6.360  15.146 -0.4505 -0.4620 -2.4428
  431TIP3    H222785   0.058   6.327  15.197  0.9961 -1.4825  1.1165
  432TIP3   OH222786   2.583   5.787   4.422  0.6662 -0.7615 -0.5646
  432TIP3    H122787   2.608   5.709   4.373  2.1749  0.0032 -1.0753
  432TIP3    H222788   2.660   5.808   4.476 -0.0555 -0.1655  0.2751
  433TIP3   OH222789   1.750   2.539   2.166  0.0342  0.4271 -0.5836
  433TIP3    H122790   1.779   2.471   2.105  0.0219 -1.3417  1.2783
  433TIP3    H222791   1.815   2.609   2.156  0.5977 -0.2351 -1.8721
  434TIP3   OH222792   1.925   6.452   4.079 -0.0163  0.0200  0.8439
  434TIP3    H122793   1.882   6.488   4.001  0.8467 -1.1548 -0.2234
  434TIP3    H222794   1.894   6.362   4.084  1.2974 -0.4650  0.7811
  435TIP3   OH222795   3.013   5.920   6.021  0.0809 -0.0204 -0.1604
  435TIP3    H122796   3.053   5.839   6.051 -2.7647 -1.3987  0.2966
  435TIP3    H222797   3.009   5.911   5.926  0.9795  0.2082 -0.2231
  436TIP3   OH222798   3.575   1.442   2.357 -0.8473 -0.5793  0.0704
  436TIP3    H122799   3.627   1.516   2.388 -0.6748 -0.6321 -0.0998
  436TIP3    H222800   3.502   1.437   2.420 -1.5227  0.4854 -0.6059
  437TIP3   OH222801   1.011   5.094   5.277 -0.4557  0.4517 -0.0069
  437TIP3    H122802   1.034   5.134   5.193 -1.6380  1.1634 -0.0060
  437TIP3    H222803   0.996   5.002   5.257 -1.5680  0.7782 -0.7457
  438TIP3   OH222804   1.097   4.995  15.083 -0.6781 -0.3934  0.3980
  438TIP3    H122805   1.028   4.994  15.150 -0.4265 -1.3138  0.6512
  438TIP3    H222806   1.125   4.904  15.076 -1.6794 -0.5694 -1.9953
  439TIP3   OH222807   1.537   5.961   5.670 -0.0567  0.0999 -0.0276
  439TIP3    H122808   1.520   5.877   5.627 -1.9514  0.1659  0.5422
  439TIP3    H222809   1.561   5.937   5.759  2.0541  0.0662 -0.5512
  440TIP3   OH222810   0.048   6.807   1.165  0.7434  0.2867 -0.2590
  440TIP3    H122811  -0.003   6.758   1.101  1.3471  0.5756 -0.9749
  440TIP3    H222812   0.106   6.742   1.204 -0.0989 -0.0243  0.4957
  441TIP3   OH222813   5.779   0.884  11.663  0.7988  0.3831 -0.2237
  441TIP3    H122814   5.743   0.824  11.728 -1.3153  1.0796 -0.6501
  441TIP3    H222815   5.800   0.828  11.588 -0.5317  0.0547 -0.3802
  442TIP3   OH222816   5.336   3.758   1.097  0.0791  0.4214  0.1751
  442TIP3    H122817   5.376   3.673   1.080 -0.9755 -0.6323  2.5614
  442TIP3    H222818   5.261   3.739   1.153 -0.6819  2.8571  0.1124
  443TIP3   OH222819   6.209   5.946  15.875 -0.5346  0.2694  0.1469
  443TIP3    H122820   6.191   5.891  15.799 -0.2377 -0.4676  0.5963
  443TIP3    H222821   6.129   5.941  15.927  0.5083 -2.3162  1.7241
  444TIP3   OH222822   4.799   4.285   4.729  0.3531 -1.0602 -0.2072
  444TIP3    H122823   4.882   4.280   4.776 -0.2800 -0.4403  1.0247
  444TIP3    H222824   4.749   4.209   4.757  0.5203 -1.4878 -1.0227
  445TIP3   OH222825   6.154   0.438  11.891  0.0754  0.6239 -0.3630
  445TIP3    H122826   6.080   0.451  11.832  0.0519 -0.4094 -0.5684
  445TIP3    H222827   6.230   0.464  11.840 -0.2269  3.3181  0.3792
  446TIP3   OH222828   0.000   6.394  12.830  0.6692 -0.0979  0.2268
  446TIP3    H122829   0.002   6.489  12.839  1.1980  0.0780 -1.3434
  446TIP3    H222830  -0.030   6.362  12.915  1.7020  1.4010  1.2110
  447TIP3   OH222831   4.571   4.761   3.112  0.9206  0.1518 -0.1994
  447TIP3    H122832   4.508   4.727   3.048 -1.2346 -0.3029  2.0229
  447TIP3    H222833   4.612   4.684   3.148  0.5897  0.2663  0.4301
  448TIP3   OH222834   4.471   2.729  12.712  0.1492 -0.0538  0.1719
  448TIP3    H122835   4.548   2.786  12.713  0.4530 -0.4650  0.7071
  448TIP3    H222836   4.506   2.642  12.697 -0.1567 -0.3141  0.9178
  449TIP3   OH222837   2.732   3.076  15.105 -0.0544 -0.2755 -0.1326
  449TIP3    H122838   2.733   3.156  15.053 -0.5292  0.6555  1.2179
  449TIP3    H222839   2.805   3.086  15.166 -0.5472 -0.5342  0.5121
  450TIP3   OH222840   2.872   2.615   4.945  0.0698 -0.5291  0.1636
  450TIP3    H122841   2.877   2.639   4.852 -1.5250 -1.2083 -0.1321
  450TIP3    H222842   2.778   2.615   4.965  0.4050  0.1939  1.9535
  451TIP3   OH222843   0.033   4.307   2.134 -0.0739  0.1594  0.6787
  451TIP3    H122844   0.066   4.382   2.084 -2.0876  2.5497  2.6109
  451TIP3    H222845   0.085   4.308   2.215 -0.6505  0.0349  1.0639
  452TIP3   OH222846   5.105   3.180   1.482  0.0877  0.0353  0.1578
  452TIP3    H122847   5.033   3.216   1.534  1.4207  1.2009  1.2772
  452TIP3    H222848   5.183   3.195   1.536  1.5353  1.2373 -2.1151
  453TIP3   OH222849   2.215   6.374   2.066  0.8367  0.3073  0.1891
  453TIP3    H122850   2.183   6.374   1.975 -0.6855  1.4877  0.6663
  453TIP3    H222851   2.241   6.284   2.082 -1.0925 -0.4683 -0.7145
  454TIP3   OH222852   4.865   5.903  13.434  0.2581 -0.2314  0.0441
  454TIP3    H122853   4.862   5.863  13.521 -1.9339  0.1294  0.2042
  454TIP3    H222854   4.785   5.872  13.391 -0.0095  1.6111 -0.8915
  455TIP3   OH222855   1.576   2.453   3.951  0.1855  0.0881 -0.0759
  455TIP3    H122856   1.551   2.456   4.044 -1.3867  0.0450 -0.4659
  455TIP3    H222857   1.571   2.545   3.923 -3.4052 -0.2347 -1.0474
  456TIP3   OH222858   0.420   4.960  12.598 -0.5505  0.2727 -0.3086
  456TIP3    H122859   0.372   5.043  12.594 -1.3358 -0.1537  0.0171
  456TIP3    H222860   0.355   4.896  12.627  0.2978 -0.2648  0.4485
  457TIP3   OH222861   4.241   4.462  11.736 -0.1060  0.2691  0.9482
  457TIP3    H122862   4.284   4.459  11.650  1.7110 -0.6700  1.8346
  457TIP3    H222863   4.193   4.380  11.741  2.1505 -1.0991  1.9066
  458TIP3   OH222864   2.861   1.733   0.463 -0.3664 -0.2807 -0.1363
  458TIP3    H122865   2.889   1.693   0.546 -2.0380  2.5042  1.9244
  458TIP3    H222866   2.774   1.696   0.446 -0.5346  0.0487  0.0066
  459TIP3   OH222867   0.406   6.717  13.300  0.5500  0.3403  0.3136
  459TIP3    H122868   0.399   6.738  13.206 -2.4091  0.1005  0.3872
  459TIP3    H222869   0.407   6.622  13.303  2.0874  0.3382  0.5120
  460TIP3   OH222870   1.453   3.068   1.062 -0.1047  0.0727  0.0547
  460TIP3    H122871   1.546   3.071   1.038 -0.3882  0.1526 -1.0845
  460TIP3    H222872   1.423   2.982   1.034 -0.4083  0.1010  0.2875
  461TIP3   OH222873   5.525   4.435  11.186 -0.1504 -0.0988  0.0725
  461TIP3    H122874   5.555   4.486  11.261  0.5019  0.7181 -0.7229
  461TIP3    H222875   5.451   4.484  11.152 -0.8050 -0.7677  0.5019
  462TIP3   OH222876   4.419   5.730  11.669  0.3497 -0.1059 -0.5323
  462TIP3    H122877   4.391   5.820  11.650 -1.0035  0.1339  2.0561
  462TIP3    H222878   4.337   5.684  11.688  1.2598 -0.7957  2.1066
  463TIP3   OH222879   0.009   0.443   1.341 -1.0563 -0.1829 -0.3649
  463TIP3    H122880  -0.010   0.350   1.330 -2.4225  0.1938 -1.5391
  463TIP3    H222881  -0.008   0.460   1.434 -0.2220 -1.2019 -0.0074
  464TIP3   OH222882   3.133   5.066   2.482 -0.2857  0.0854  0.3229
  464TIP3    H122883   3.154   5.065   2.576 -0.1482 -1.0881  0.2903
  464TIP3    H222884   3.116   4.975   2.460  2.3462 -0.0895 -1.3881
  465TIP3   OH222885   4.580   1.539  14.297 -0.1871 -0.2656 -0.4014
  465TIP3    H122886   4.584   1.447  14.270  1.3935 -0.3582  0.0656
  465TIP3    H222887   4.647   1.548  14.364  0.6368  1.5354 -1.3886
  466TIP3   OH222888   3.071   2.672  12.417 -0.2493  0.4556 -0.4956
  466TIP3    H122889   2.997   2.715  12.459  0.3805 -0.6336  1.9365
  466TIP3    H222890   3.148   2.716  12.452  0.2995  0.0066 -1.1029
  467TIP3   OH222891   0.910   4.654   6.197  0.0747  0.0024 -0.1955
  467TIP3    H122892   0.817   4.677   6.210  0.4882  0.7720  1.7426
  467TIP3    H222893   0.915   4.561   6.219 -0.3233 -0.2035 -0.9208
  468TIP3   OH222894   6.370   3.142   2.698 -0.2126 -0.2559  0.2831
  468TIP3    H122895   6.320   3.103   2.768  0.0126  1.2427  1.3231
  468TIP3    H222896   6.346   3.092   2.620 -1.7222 -0.8856  1.1200
  469TIP3   OH222897   0.766   3.244  13.923  0.5567 -0.1287  0.0497
  469TIP3    H122898   0.771   3.256  14.017 -0.0359 -1.6339  0.2994
  469TIP3    H222899   0.673   3.225  13.906  0.7414 -0.3529 -0.7552
  470TIP3   OH222900   3.174   4.644   4.401  0.2056 -0.0296 -0.3782
  470TIP3    H122901   3.267   4.642   4.422  0.1478 -2.7818  0.0445
  470TIP3    H222902   3.171   4.674   4.310  1.3267  1.6679  0.1017
  471TIP3   OH222903   0.095   4.216   1.642 -0.2394  0.0222  0.0086
  471TIP3    H122904   0.000   4.227   1.645 -0.0991  1.3071  0.3072
  471TIP3    H222905   0.109   4.152   1.572 -1.2365  1.4657 -1.6248
  472TIP3   OH222906   2.861   0.022   3.138 -0.5530 -0.4844  0.2997
  472TIP3    H122907   2.824  -0.025   3.213 -0.3937 -1.1058 -0.0016
  472TIP3    H222908   2.828  -0.025   3.062 -0.2718 -0.1925 -0.0063
  473TIP3   OH222909   6.663   3.002   0.438 -0.1434  0.4267  0.3267
  473TIP3    H122910   6.672   2.992   0.533  2.0705 -1.3382  0.0164
  473TIP3    H222911   6.598   3.071   0.427 -1.4493 -0.2298  3.1051
  474TIP3   OH222912   4.153   5.710   0.456  0.0688 -0.2072  0.1795
  474TIP3    H122913   4.197   5.787   0.491 -0.2033  0.1681 -0.2923
  474TIP3    H222914   4.204   5.636   0.488  0.9884  0.2169 -0.2821
  475TIP3   OH222915   6.385   5.657   5.329 -1.0573  0.4529  0.0523
  475TIP3    H122916   6.388   5.748   5.299  0.9810 -0.0351 -1.3924
  475TIP3    H222917   6.393   5.663   5.424 -0.5957  1.7690 -0.0562
  476TIP3   OH222918   2.133   6.035  15.162  0.1967  0.0064 -0.6563
  476TIP3    H122919   2.142   6.114  15.215 -1.4520  0.5843 -1.1796
  476TIP3    H222920   2.190   6.050  15.087  1.1433 -0.0326  0.0364
  477TIP3   OH222921   3.507   4.845  12.705  0.1386  0.0891 -0.0713
  477TIP3    H122922   3.418   4.848  12.742 -0.6684 -0.5825 -1.8303
  477TIP3    H222923   3.516   4.928  12.658  0.9277  0.6687  1.0406
  478TIP3   OH222924   1.547   6.669  11.720 -0.1405  0.2866  0.1228
  478TIP3    H122925   1.532   6.624  11.803 -0.4532 -0.4479 -0.3253
  478TIP3    H222926   1.642   6.685  11.718 -0.4356  2.6615  1.8013
  479TIP3   OH222927   1.716   5.856   3.650  0.3815 -0.1402  0.5363
  479TIP3    H122928   1.752   5.790   3.590  3.6997  0.3430  1.7633
  479TIP3    H222929   1.780   5.860   3.721 -0.2666  3.6158  1.0869
  480TIP3   OH222930   5.178   3.948  16.431 -0.1776 -0.0726  0.2217
  480TIP3    H122931   5.105   3.971  16.372 -0.2129 -0.6131  0.0475
  480TIP3    H222932   5.206   4.032  16.468 -0.9318  0.1334  0.3419
  481TIP3   OH222933   6.188   6.746  12.895  0.2371 -0.2371  0.3633
  481TIP3    H122934   6.210   6.799  12.971  2.3868 -0.1765 -0.2356
  481TIP3    H222935   6.209   6.656  12.921  2.3423 -0.0662 -0.5510
  482TIP3   OH222936   1.133   2.684   5.925  0.3556 -0.2398 -0.1374
  482TIP3    H122937   1.208   2.744   5.928  0.5811 -0.5599  0.7918
  482TIP3    H222938   1.171   2.597   5.934 -0.0983 -0.4362 -0.0757
  483TIP3   OH222939   4.401   5.103  16.002  0.2949 -0.6130 -0.6347
  483TIP3    H122940   4.382   5.171  15.937  1.9843 -0.6419 -1.2261
  483TIP3    H222941   4.426   5.151  16.081  1.8413 -0.4926 -1.1608
  484TIP3   OH222942   1.825   2.953   5.247 -0.4098  0.0942  0.5410
  484TIP3    H122943   1.731   2.936   5.238 -0.7786  2.2327 -0.1728
  484TIP3    H222944   1.831   3.046   5.265  1.5859 -0.0471  0.7779
  485TIP3   OH222945   2.748   0.379   0.542  0.1276  0.0900 -0.0590
  485TIP3    H122946   2.787   0.387   0.629 -0.6013 -0.6550  0.3594
  485TIP3    H222947   2.795   0.307   0.501 -0.0052 -0.0303 -0.0028
  486TIP3   OH222948   1.964   2.689  15.912  0.4662 -0.2906 -0.1619
  486TIP3    H122949   1.877   2.708  15.947  0.6777 -2.4015  1.7065
  486TIP3    H222950   1.946   2.633  15.836  0.1741  0.5194 -0.7079
  487TIP3   OH222951   2.276   3.586   3.754 -0.0515 -0.3202  0.3308
  487TIP3    H122952   2.348   3.580   3.817  1.3071  1.2607 -0.9884
  487TIP3    H222953   2.197   3.585   3.809  1.0668  0.7952  2.0731
  488TIP3   OH222954   1.964   5.425  13.824  0.4883 -0.4301 -0.0941
  488TIP3    H122955   2.025   5.418  13.751 -0.8814  1.7432 -1.5954
  488TIP3    H222956   1.877   5.419  13.783 -0.3282  0.5530  1.3944
  489TIP3   OH222957   5.624   1.515  11.998  0.8463  0.6041  0.0350
  489TIP3    H122958   5.718   1.512  12.013  0.6766 -0.3370  1.0542
  489TIP3    H222959   5.591   1.435  12.038 -0.1718 -0.0680 -2.0417
  490TIP3   OH222960   1.621   6.290   0.421 -0.0364  0.3234 -0.2180
  490TIP3    H122961   1.642   6.381   0.442 -2.4991  0.6680  1.1647
  490TIP3    H222962   1.549   6.296   0.358  0.5926 -0.6998 -1.0612
  491TIP3   OH222963   2.626   3.365  15.915 -0.0661 -0.3259 -0.0260
  491TIP3    H122964   2.693   3.298  15.929 -0.6281 -0.8997 -0.0385
  491TIP3    H222965   2.646   3.401  15.829  1.4143  0.9060  0.8012
  492TIP3   OH222966   1.316   1.971   5.018  0.1415  0.2650 -0.8793
  492TIP3    H122967   1.258   2.045   5.001  1.0778  1.3370  0.4061
  492TIP3    H222968   1.341   1.980   5.110 -0.4318 -2.1740 -0.4060
  493TIP3   OH222969   2.061   4.028   5.593  0.2654  0.5613  0.0551
  493TIP3    H122970   2.048   3.942   5.553  2.6364 -0.0369  0.4180
  493TIP3    H222971   2.080   4.086   5.519  0.1984  0.4321 -0.0644
  494TIP3   OH222972   0.726   5.193   2.006 -0.3781  0.0334 -0.3761
  494TIP3    H122973   0.751   5.257   2.072  0.6720  0.2589 -0.9664
  494TIP3    H222974   0.695   5.245   1.932  1.5659 -0.0200 -1.3078
  495TIP3   OH222975   5.572   4.104  11.965  0.4827  0.0864  0.0981
  495TIP3    H122976   5.519   4.104  11.885  1.9486  1.0317 -0.9322
  495TIP3    H222977   5.651   4.153  11.941  1.5830 -0.8047  1.7255
  496TIP3   OH222978   4.380   3.377   5.680  0.5365 -0.3449  0.0404
  496TIP3    H122979   4.292   3.341   5.693 -0.1229  0.3093 -2.0365
  496TIP3    H222980   4.433   3.302   5.654  0.6719 -0.7792  1.5021
  497TIP3   OH222981   2.432   4.793  10.386 -0.0852 -0.3141  0.4363
  497TIP3    H122982   2.503   4.731  10.400  0.6790 -0.1335 -2.0266
  497TIP3    H222983   2.365   4.743  10.340  0.3380  0.4950 -1.1483
  498TIP3   OH222984   3.832   0.711   0.759  0.2652 -0.3634  0.6409
  498TIP3    H122985   3.834   0.767   0.681 -0.0743  1.3728  1.8158
  498TIP3    H222986   3.800   0.627   0.728 -0.8082  0.5788 -0.9249
  499TIP3   OH222987   3.215   2.824  11.601 -0.9217 -0.4509  0.3258
  499TIP3    H122988   3.302   2.785  11.605 -0.5195  0.4277  0.3156
  499TIP3    H222989   3.206   2.873  11.682 -0.2529  1.7770 -0.8428
  500TIP3   OH222990   2.154   6.477   6.191 -0.4094  0.0520  0.1386
  500TIP3    H122991   2.111   6.399   6.225 -0.8243  0.2172  0.0014
  500TIP3    H222992   2.132   6.478   6.097  1.5005 -0.9148 -0.3588
  501TIP3   OH222993   3.511   0.196  15.740 -0.6431  0.0062  0.1426
  501TIP3    H122994   3.449   0.126  15.718  0.1781 -0.3780 -1.0486
  501TIP3    H222995   3.595   0.153  15.747 -0.5133  0.4898  2.0127
  502TIP3   OH222996   0.834   3.938   4.898  0.4906 -0.3585  0.7435
  502TIP3    H122997   0.898   3.947   4.969  1.5384  0.5923 -0.2948
  502TIP3    H222998   0.867   3.866   4.845  1.4750  0.9528 -0.5177
  503TIP3   OH222999   5.807   0.584  14.421  0.2618 -0.1223 -0.8096
  503TIP3    H123000   5.733   0.634  14.457  1.7256  1.1280  0.6319
  503TIP3    H223001   5.802   0.499  14.465 -0.2133  0.0013 -0.6095
  504TIP3   OH223002   3.225   1.138  12.854 -0.0441  0.2229 -0.5535
  504TIP3    H123003   3.289   1.078  12.814  2.7061  1.5882  1.4660
  504TIP3    H223004   3.218   1.210  12.792 -0.5771 -0.4542 -1.3129
  505TIP3   OH223005   2.791   0.303  12.865 -0.5526 -0.2545  0.6104
  505TIP3    H123006   2.784   0.297  12.770  1.4332  0.5559  0.3700
  505TIP3    H223007   2.728   0.370  12.891  1.0445  1.7711 -0.5239
  506TIP3   OH223008   0.144   2.057   5.567  0.3917 -0.0554  0.1622
  506TIP3    H123009   0.088   2.117   5.616 -0.1229 -1.5259  1.4210
  506TIP3    H223010   0.148   1.978   5.620  2.4622 -0.5401 -0.6240
  507TIP3   OH223011   1.427   1.197  11.665  0.4555 -0.2811 -0.2894
  507TIP3    H123012   1.422   1.106  11.696 -1.4200 -0.3216 -0.6230
  507TIP3    H223013   1.367   1.200  11.590  0.7363  1.1766 -0.4835
  508TIP3   OH223014   6.097   1.926   0.730 -0.1301 -0.4900  1.0359
  508TIP3    H123015   6.101   1.842   0.684 -0.6736  0.9176 -1.8138
  508TIP3    H223016   6.004   1.947   0.734  0.0033  0.0084  1.6189
  509TIP3   OH223017   5.778   0.363  12.622 -0.5042 -0.2421 -0.3948
  509TIP3    H123018   5.708   0.316  12.576 -0.1938 -0.6770 -0.4256
  509TIP3    H223019   5.784   0.447  12.577 -0.3080 -0.6021 -1.0560
  510TIP3   OH223020   5.223   1.075   5.572  0.4568  0.0107 -0.1536
  510TIP3    H123021   5.302   1.065   5.519  2.7303  3.1652  2.2178
  510TIP3    H223022   5.256   1.086   5.661 -2.7458  0.7227  1.0601
  511TIP3   OH223023   3.771   6.351  17.002 -0.4397  0.1799  0.5571
  511TIP3    H123024   3.864   6.346  16.978  0.9903  0.6995  5.1640
  511TIP3    H223025   3.749   6.262  17.031 -1.0182  0.3560  0.6606
  512TIP3   OH223026   4.254   3.827  15.208  0.4500 -0.1852 -0.1302
  512TIP3    H123027   4.299   3.912  15.202 -0.3237  0.2755  0.3852
  512TIP3    H223028   4.318   3.769  15.248 -0.1539  1.0946  2.9636
  513TIP3   OH223029   2.540   0.599  14.930  0.1805  0.1120  0.2263
  513TIP3    H123030   2.458   0.626  14.972 -2.0536 -4.7624 -0.3614
  513TIP3    H223031   2.529   0.622  14.838 -0.8432 -0.9336  0.0617
  514TIP3   OH223032   2.730   4.689  13.677  0.8264 -0.5634  0.0171
  514TIP3    H123033   2.692   4.612  13.720  1.0702 -0.4719  0.3973
  514TIP3    H223034   2.824   4.675  13.682  0.8538 -0.7695 -0.8873
  515TIP3   OH223035   2.703   1.642   1.423  0.1436  0.0881 -0.2259
  515TIP3    H123036   2.638   1.679   1.483  0.4181  1.3387 -0.6631
  515TIP3    H223037   2.686   1.686   1.340  0.6041 -0.6660 -0.7284
  516TIP3   OH223038   4.046   5.084   0.186  0.4001  0.7349  0.3228
  516TIP3    H123039   4.074   5.037   0.107 -1.3314 -0.3724  0.3202
  516TIP3    H223040   4.115   5.066   0.250  1.1488  0.5165 -0.5235
  517TIP3   OH223041   3.414   3.290   0.527  0.1778  0.6750  0.0540
  517TIP3    H123042   3.330   3.321   0.491 -0.9714 -0.9440  1.1839
  517TIP3    H223043   3.447   3.230   0.460 -0.6585 -0.3264  0.5090
  518TIP3   OH223044   3.724   3.250   3.462 -0.0745  0.4049  0.3122
  518TIP3    H123045   3.670   3.281   3.390 -0.3486 -1.6127 -0.4192
  518TIP3    H223046   3.682   3.169   3.490  2.4006 -1.1449 -0.1436
  519TIP3   OH223047   3.509   1.417  15.801  0.2929  0.3656 -0.4768
  519TIP3    H123048   3.591   1.445  15.840  1.4992 -1.9212 -1.2092
  519TIP3    H223049   3.450   1.403  15.875  1.7092 -1.3624  0.4048
  520TIP3   OH223050   3.442   2.480   5.416  0.0926  0.1582 -0.1226
  520TIP3    H123051   3.432   2.393   5.455 -0.0614  0.6875  1.0776
  520TIP3    H223052   3.401   2.539   5.479 -0.8449  0.9913 -1.4644
  521TIP3   OH223053   6.485   5.777  10.459 -0.1643  0.0247  0.1932
  521TIP3    H123054   6.408   5.726  10.482  0.0509 -0.4304 -0.0685
  521TIP3    H223055   6.555   5.712  10.450  0.0885  0.3526 -0.2644
  522TIP3   OH223056   3.015   2.619  10.627 -0.2180 -0.0274 -0.5098
  522TIP3    H123057   3.087   2.676  10.654 -0.4200  1.0036 -1.9747
  522TIP3    H223058   3.002   2.560  10.701 -0.4705  2.2848  1.4243
  523TIP3   OH223059   5.559   1.432   1.104 -0.0222 -0.6245 -0.0188
  523TIP3    H123060   5.603   1.384   1.174 -1.1019 -2.3689 -0.4703
  523TIP3    H223061   5.626   1.490   1.069  1.1206 -1.2201  1.0982
  524TIP3   OH223062   3.082   3.800  12.032 -0.3420 -0.2130  0.1384
  524TIP3    H123063   2.987   3.789  12.039 -0.1713 -0.6716  2.3017
  524TIP3    H223064   3.107   3.748  11.956 -1.6956 -0.9864  0.2001
  525TIP3   OH223065   0.045   5.709   9.980  0.3236 -0.6137 -0.2230
  525TIP3    H123066   0.127   5.666   9.957  0.3941  0.0491 -1.2435
  525TIP3    H223067   0.013   5.660  10.056  1.0150 -1.6814 -0.6037
  526TIP3   OH223068   5.537   2.540   2.636  0.1709 -0.0057 -0.2577
  526TIP3    H123069   5.539   2.634   2.651  0.7880 -0.2998  1.8960
  526TIP3    H223070   5.629   2.515   2.631  0.0455 -0.6129  0.2934
  527TIP3   OH223071   3.210   2.998  11.230  0.1617  0.2267  0.3884
  527TIP3    H123072   3.114   3.000  11.228  0.0827  0.1521  2.5045
  527TIP3    H223073   3.235   3.072  11.284  1.4547  1.4419 -1.7162
  528TIP3   OH223074   6.714   4.012   1.657  0.2318  0.5648  0.1032
  528TIP3    H123075   6.772   3.977   1.589  2.5134  2.0924  1.1341
  528TIP3    H223076   6.713   3.945   1.725  0.3333  0.2902 -0.1615
  529TIP3   OH223077   3.549   6.274  13.127  0.2097  1.0793 -0.3330
  529TIP3    H123078   3.506   6.334  13.189 -0.5684  1.6177 -1.3462
  529TIP3    H223079   3.486   6.267  13.055 -0.6118 -2.4787  0.5449
  530TIP3   OH223080   1.582   2.819   5.256  0.5028 -0.1017 -0.2576
  530TIP3    H123081   1.527   2.826   5.334  0.6637  0.4843 -0.1937
  530TIP3    H223082   1.595   2.725   5.245 -0.6132 -0.2663 -0.3462
  531TIP3   OH223083   5.348   3.951  16.214  0.4725  0.2671  0.4875
  531TIP3    H123084   5.316   3.941  16.304 -1.7963  1.2548 -0.1651
  531TIP3    H223085   5.299   4.024  16.178 -0.5723 -1.6472 -2.3693
  532TIP3   OH223086   0.613   0.774  13.460 -0.2139 -0.3890 -0.5587
  532TIP3    H123087   0.634   0.844  13.522  0.4862 -1.7066  0.7911
  532TIP3    H223088   0.517   0.769  13.460 -0.3056  1.1330 -1.3708
  533TIP3   OH223089   2.268   1.940  17.008  0.2040 -0.1779  0.4324
  533TIP3    H123090   2.239   1.967  16.921  0.0721 -1.1323  0.1711
  533TIP3    H223091   2.233   2.007  17.067 -0.1376  0.1997 -0.1926
  534TIP3   OH223092   3.748   2.225  11.897 -0.6263 -0.0221 -0.1948
  534TIP3    H123093   3.698   2.160  11.946 -0.0135  0.3726  0.9873
  534TIP3    H223094   3.733   2.307  11.944  1.2201  0.0832  0.2882
  535TIP3   OH223095   3.341   2.163  15.793  0.3231 -0.3494 -0.3174
  535TIP3    H123096   3.269   2.143  15.733 -0.2421  0.2584  0.1427
  535TIP3    H223097   3.410   2.100  15.771  0.6166  0.6186 -2.4488
  536TIP3   OH223098   4.096   1.301   4.251 -0.6810 -0.5572 -0.4624
  536TIP3    H123099   4.110   1.239   4.179 -0.1928 -0.0641 -0.8016
  536TIP3    H223100   4.078   1.384   4.208  1.1673  0.1092 -0.0519
  537TIP3   OH223101   5.741   0.860  17.092 -0.5484 -0.5916 -0.3328
  537TIP3    H123102   5.733   0.944  17.048  0.7237 -0.3661 -0.1891
  537TIP3    H223103   5.660   0.851  17.143 -0.9559  0.2619 -0.8164
  538TIP3   OH223104   2.282   6.309   3.785 -0.2276  0.0383 -0.2405
  538TIP3    H123105   2.265   6.258   3.865  0.9962 -0.8224 -0.4943
  538TIP3    H223106   2.281   6.243   3.715 -1.1497  0.7649 -0.9256
  539TIP3   OH223107   0.771   2.678  13.150 -0.2266  0.1142  0.4778
  539TIP3    H123108   0.816   2.620  13.212 -0.1069 -0.0227  0.2642
  539TIP3    H223109   0.812   2.659  13.065 -0.2521  0.4441  0.3912
  540TIP3   OH223110   4.601   1.333   3.363 -0.6689  0.3660 -0.6818
  540TIP3    H123111   4.629   1.424   3.366 -0.1566  0.3808 -3.2259
  540TIP3    H223112   4.506   1.337   3.352 -0.8036  0.5314  0.4463
  541TIP3   OH223113   4.620   5.549  11.714  0.1514  0.0971 -0.1579
  541TIP3    H123114   4.702   5.597  11.727  0.9888 -1.3072 -0.0476
  541TIP3    H223115   4.558   5.615  11.684  1.2728  1.2239 -0.0817
  542TIP3   OH223116   5.329   2.233   2.816  0.0444 -0.2213 -0.6843
  542TIP3    H123117   5.293   2.148   2.789 -0.6862  0.3120 -1.4102
  542TIP3    H223118   5.385   2.260   2.744  0.3974 -0.1457 -0.3872
  543TIP3   OH223119   6.458   4.402   0.946  0.3071 -0.0907  0.1272
  543TIP3    H123120   6.539   4.438   0.982  0.4478  0.9289 -1.1090
  543TIP3    H223121   6.484   4.318   0.909  1.1121  0.7327 -1.2957
  544TIP3   OH223122   4.833   2.984  11.405 -0.4228 -0.3757 -0.1348
  544TIP3    H123123   4.920   2.982  11.365 -0.5378 -0.4215 -0.3791
  544TIP3    H223124   4.779   2.928  11.349 -0.9375  0.6871 -0.7242
  545TIP3   OH223125   5.732   5.413  12.997  0.0231  0.0353  0.1091
  545TIP3    H123126   5.791   5.454  12.934 -0.3714  0.7681  0.2133
  545TIP3    H223127   5.647   5.412  12.954  0.0722 -0.9152  0.0074
  546TIP3   OH223128   4.077   3.203   4.240 -0.8108  0.4117 -0.2517
  546TIP3    H123129   4.082   3.136   4.309 -0.4406 -1.6557 -2.1481
  546TIP3    H223130   3.985   3.204   4.215 -0.8622  0.8181 -0.0499
  547TIP3   OH223131   2.962   2.918   5.049 -1.0798 -0.0048 -0.2616
  547TIP3    H123132   2.944   2.991   5.108  0.4971  0.0763  0.1849
  547TIP3    H223133   2.966   2.958   4.962  0.1253  0.5541  0.0199
  548TIP3   OH223134   0.550   1.339   5.920  0.3919  0.3755  0.3348
  548TIP3    H123135   0.642   1.318   5.906  0.2427  0.5025 -0.8974
  548TIP3    H223136   0.552   1.420   5.972  0.9715  0.3047  0.4321
  549TIP3   OH223137   4.382   0.049   5.219 -0.9444  0.3587 -0.1078
  549TIP3    H123138   4.367   0.142   5.237 -1.3733  0.6817 -1.9142
  549TIP3    H223139   4.455   0.025   5.276  0.8437  2.4786 -1.3040
  550TIP3   OH223140   3.526   5.949  11.874  0.0669 -0.5395 -0.2092
  550TIP3    H123141   3.539   6.021  11.812  0.6456  0.8370  1.4196
  550TIP3    H223142   3.438   5.964  11.910  1.8648  2.5867  3.8165
  551TIP3   OH223143   4.084   6.698   5.434 -0.0281  0.2487 -0.6477
  551TIP3    H123144   4.001   6.689   5.481 -0.2607  0.0137 -1.0936
  551TIP3    H223145   4.106   6.610   5.405 -0.6775  0.5765 -2.2768
  552TIP3   OH223146   0.868   3.329  12.031 -0.2310  0.4221 -0.3956
  552TIP3    H123147   0.899   3.259  11.974 -0.0243  0.0027  0.2265
  552TIP3    H223148   0.942   3.348  12.089 -0.5797  0.5441  0.0167
  553TIP3   OH223149   5.087   0.944   0.145  0.3169 -0.0096  0.1812
  553TIP3    H123150   5.082   0.849   0.149  1.7339 -0.0955  0.2247
  553TIP3    H223151   5.110   0.971   0.234 -0.4654  0.4065  0.2641
  554TIP3   OH223152   2.514   1.423  12.264  0.2452 -0.0798 -0.4096
  554TIP3    H123153   2.510   1.359  12.335 -2.4911  1.1367  0.6732
  554TIP3    H223154   2.518   1.370  12.184  1.9864 -1.4819  0.5372
  555TIP3   OH223155   2.008   4.710  14.503 -0.3878 -0.2016  0.1954
  555TIP3    H123156   2.088   4.679  14.461 -0.2983  0.2883 -0.0105
  555TIP3    H223157   2.038   4.748  14.586 -0.3192  0.5240 -0.1488
  556TIP3   OH223158   6.119   2.687   3.880 -0.6923  0.4329 -0.1888
  556TIP3    H123159   6.029   2.715   3.866 -0.3304  1.3012 -0.8757
  556TIP3    H223160   6.162   2.763   3.919  0.1341  0.6426 -1.4394
  557TIP3   OH223161   6.564   3.319   1.156 -0.3587  0.5180  0.5764
  557TIP3    H123162   6.574   3.405   1.196 -0.0812  0.0778  1.4838
  557TIP3    H223163   6.494   3.277   1.206 -0.9916  0.4688 -0.3223
  558TIP3   OH223164   4.573   5.086  15.064 -0.1060  0.1476 -0.2540
  558TIP3    H123165   4.531   5.147  15.124  0.7798 -0.7996  1.3938
  558TIP3    H223166   4.667   5.098  15.079  0.1729  0.4870 -2.0897
  559TIP3   OH223167   2.652   0.885   5.230  0.8009  0.1503 -0.0123
  559TIP3    H123168   2.650   0.959   5.292 -0.0194  1.4952 -1.5618
  559TIP3    H223169   2.741   0.887   5.195  0.8607  0.2419  0.1419
  560TIP3   OH223170   2.806   5.890   0.951  0.2018 -0.2269  0.0503
  560TIP3    H123171   2.799   5.799   0.979 -0.3526  0.2038  1.3796
  560TIP3    H223172   2.798   5.886   0.855 -2.9536 -1.3222  0.2439
  561TIP3   OH223173   5.129   1.727   3.317  0.0891  0.2024 -0.4006
  561TIP3    H123174   5.074   1.671   3.372 -2.1718  2.2620 -0.3876
  561TIP3    H223175   5.206   1.745   3.370 -0.5616 -0.4339  0.8077
  562TIP3   OH223176   0.261   5.781  15.440 -0.0435  0.2484 -0.5000
  562TIP3    H123177   0.297   5.694  15.424 -1.3251 -0.5209  0.6282
  562TIP3    H223178   0.280   5.799  15.532 -1.6186  0.2448 -0.1530
  563TIP3   OH223179   2.497   0.032  14.706 -0.1178 -0.1719  0.4335
  563TIP3    H123180   2.431   0.072  14.763 -2.1963 -1.9720 -0.5398
  563TIP3    H223181   2.566   0.003  14.766 -1.9602 -1.4870  2.0526
  564TIP3   OH223182   5.077   0.752  11.415  0.5071 -0.4428 -0.2818
  564TIP3    H123183   5.153   0.700  11.389  1.5645  0.3547  1.0970
  564TIP3    H223184   5.082   0.830  11.360 -0.2114 -1.0560 -1.2610
  565TIP3   OH223185   2.563   4.464  16.663 -0.4065 -0.2839  0.0154
  565TIP3    H123186   2.568   4.429  16.752 -0.9837  1.1751  0.6434
  565TIP3    H223187   2.497   4.409  16.620  0.1627 -1.2539  0.3424
  566TIP3   OH223188   0.744   2.241   1.441 -0.9305  0.1088 -0.6447
  566TIP3    H123189   0.672   2.293   1.476 -0.4192 -0.7361  1.8117
  566TIP3    H223190   0.701   2.177   1.383 -1.8851  1.0652 -1.0212
  567TIP3   OH223191   0.022   5.553  12.928  0.1015  0.1093  0.1352
  567TIP3    H123192  -0.060   5.545  12.976 -0.4492  0.5366 -0.6973
  567TIP3    H223193   0.090   5.543  12.994 -0.6148 -0.6839  0.7651
  568TIP3   OH223194   3.062   2.746  11.865  0.1231 -0.1287  0.3573
  568TIP3    H123195   3.138   2.688  11.856 -0.0389 -0.0815 -1.9130
  568TIP3    H223196   2.988   2.694  11.832 -0.6344  0.2522  1.3966
  569TIP3   OH223197   4.805   5.743   3.826  0.4067 -0.2342  0.4715
  569TIP3    H123198   4.859   5.696   3.889 -0.6612  0.2362  1.7953
  569TIP3    H223199   4.716   5.717   3.847  0.0497 -0.5356 -1.2809
  570TIP3   OH223200   5.838   1.063   1.961  0.2920 -0.3990 -0.2791
  570TIP3    H123201   5.752   1.087   1.927  0.7827  2.1594  0.0379
  570TIP3    H223202   5.862   1.136   2.018  2.3205 -1.4472  0.3057
  571TIP3   OH223203   4.349   3.439  12.846 -0.5507  0.0192  0.1092
  571TIP3    H123204   4.329   3.355  12.805 -0.8166 -0.8579  1.9075
  571TIP3    H223205   4.314   3.430  12.935  1.3210  1.2093  1.0315
  572TIP3   OH223206   4.992   3.542  13.591 -0.0869  0.1309  0.9571
  572TIP3    H123207   5.065   3.496  13.549  0.2890  0.7695  0.8879
  572TIP3    H223208   4.925   3.548  13.524  0.6400  1.4469  0.3088
  573TIP3   OH223209   6.706   0.069   5.329  0.1080 -0.1289  0.0202
  573TIP3    H123210   6.665   0.073   5.416 -0.7907  0.4662 -0.4135
  573TIP3    H223211   6.773   0.138   5.331 -0.7044  0.6809 -0.1391
  574TIP3   OH223212   5.319   6.428   3.149  0.5522  0.1947 -0.1786
  574TIP3    H123213   5.266   6.445   3.227  1.7856 -2.5785  1.4208
  574TIP3    H223214   5.408   6.418   3.182  1.6467  1.7027 -2.3856
  575TIP3   OH223215   2.912   0.660  15.093 -0.1141  0.6146  0.3379
  575TIP3    H123216   2.914   0.631  15.002 -3.5132  1.4479 -0.1590
  575TIP3    H223217   2.953   0.589  15.142  3.2979  0.8513 -1.8834
  576TIP3   OH223218   2.358   4.780   0.928 -0.2512  0.5618 -0.1802
  576TIP3    H123219   2.325   4.833   1.000 -1.9950  1.7184 -1.7406
  576TIP3    H223220   2.436   4.827   0.898  0.8270 -0.2376  1.2487
  577TIP3   OH223221   6.176   0.893  15.793  0.1936  0.1264  0.7746
  577TIP3    H123222   6.144   0.899  15.704 -0.3742 -0.8636  0.8951
  577TIP3    H223223   6.099   0.871  15.845  0.4416  1.0535  1.5739
  578TIP3   OH223224   6.128   4.617   0.210 -0.1192 -0.3171  0.2612
  578TIP3    H123225   6.032   4.619   0.209 -0.1417  1.5314  1.2730
  578TIP3    H223226   6.154   4.661   0.128 -0.1491 -0.1061  0.3644
  579TIP3   OH223227   1.397   1.799   4.446 -0.4883  0.3840 -0.4091
  579TIP3    H123228   1.382   1.761   4.360  0.5608  1.1703 -0.9591
  579TIP3    H223229   1.383   1.893   4.434  0.0921  0.5548  0.1568
  580TIP3   OH223230   2.499   4.313  16.897 -0.3874  0.0199  0.8639
  580TIP3    H123231   2.445   4.237  16.875  1.8112 -1.6514  0.9058
  580TIP3    H223232   2.477   4.332  16.988 -2.2732  0.6457  0.3222
  581TIP3   OH223233   2.056   5.300  15.309 -0.4522  0.2179 -0.0635
  581TIP3    H123234   2.113   5.365  15.350  0.2540 -0.6571  0.3671
  581TIP3    H223235   2.009   5.260  15.382 -0.2572 -0.3474 -0.2468
  582TIP3   OH223236   2.631   1.736  14.289 -0.6837 -0.2054 -0.1048
  582TIP3    H123237   2.709   1.718  14.236  0.3409  1.4176  0.7624
  582TIP3    H223238   2.666   1.750  14.377 -1.7525  2.1641 -0.0063
  583TIP3   OH223239   4.357   4.824   5.177 -0.2230  0.4484 -0.0829
  583TIP3    H123240   4.266   4.821   5.150 -0.3488 -1.3300  0.4353
  583TIP3    H223241   4.363   4.902   5.233 -1.6434  0.0857  0.6005
  584TIP3   OH223242   5.399   1.137  16.212 -0.5280  0.3868  0.9491
  584TIP3    H123243   5.343   1.122  16.288  0.5313  0.4575  1.7750
  584TIP3    H223244   5.455   1.059  16.207  0.2973  0.9502  1.0564
  585TIP3   OH223245   4.835   1.097  16.667 -0.3177  0.1599 -0.3493
  585TIP3    H123246   4.765   1.057  16.719 -0.2763  0.2978 -0.1863
  585TIP3    H223247   4.803   1.095  16.577  0.7280 -2.5840 -0.7608
  586TIP3   OH223248   4.940   2.117  14.062  0.1604  0.7512  0.8114
  586TIP3    H123249   4.881   2.127  14.137  1.9362 -2.3670  2.8330
  586TIP3    H223250   5.026   2.099  14.101  1.3524 -0.1616 -1.9871
  587TIP3   OH223251   0.490   5.027  13.382 -0.2136 -0.3106 -0.0742
  587TIP3    H123252   0.536   5.031  13.298 -1.0596  1.4965 -0.5214
  587TIP3    H223253   0.470   5.119  13.402  0.9123 -0.5724  2.6632
  588TIP3   OH223254   3.399   6.111   1.959 -0.4903  0.0909 -0.4875
  588TIP3    H123255   3.332   6.162   2.004 -1.7447 -1.8090 -0.1147
  588TIP3    H223256   3.370   6.109   1.868 -0.8565 -0.5707 -0.3613
  589TIP3   OH223257   1.056   2.009   3.945  0.1294  0.4852  0.0136
  589TIP3    H123258   1.057   1.954   4.023  0.6450  0.8793  0.2889
  589TIP3    H223259   1.136   1.985   3.897 -0.4470 -0.1351 -0.6700
  590TIP3   OH223260   3.819   0.339  16.250  0.2496  0.0338  0.2186
  590TIP3    H123261   3.756   0.299  16.309  0.5371 -0.8324 -0.0544
  590TIP3    H223262   3.780   0.424  16.229 -1.0637 -0.6677 -0.3213
  591TIP3   OH223263   0.083   3.957  15.641  0.1111  0.0601 -0.2006
  591TIP3    H123264   0.066   4.040  15.595  0.9621 -0.9162 -2.4269
  591TIP3    H223265   0.037   3.966  15.724 -0.6221  2.3847 -0.7748
  592TIP3   OH223266   3.465   1.077  14.090 -0.0453 -0.2345  0.1531
  592TIP3    H123267   3.531   1.108  14.028 -0.3579  1.2830  0.5371
  592TIP3    H223268   3.510   1.078  14.175  0.3871 -2.3146  0.0165
  593TIP3   OH223269   5.909   3.202   4.858  0.3779  0.3707 -0.1153
  593TIP3    H123270   5.968   3.177   4.929 -1.0434  0.2532  1.0588
  593TIP3    H223271   5.957   3.270   4.810  1.3792  0.4318  0.9335
  594TIP3   OH223272   2.992   5.682  14.296 -0.1850 -0.1055  0.3982
  594TIP3    H123273   3.047   5.603  14.292 -0.8278 -0.5609  0.4493
  594TIP3    H223274   3.016   5.732  14.218  0.4906 -0.1700  0.5542
  595TIP3   OH223275   5.067   4.917  12.761 -0.3465  0.9529  0.4897
  595TIP3    H123276   4.981   4.952  12.740 -0.0325  1.0610 -0.7024
  595TIP3    H223277   5.063   4.826  12.733  0.3130  1.2880 -0.7877
  596TIP3   OH223278   0.948   6.081   6.050  0.0826  0.0047 -0.0856
  596TIP3    H123279   0.959   6.110   5.959  2.6381 -1.8658 -0.4888
  596TIP3    H223280   1.036   6.090   6.088 -0.9450  0.8479  2.2970
  597TIP3   OH223281   4.866   5.009   2.878 -0.8624 -0.1645 -0.4473
  597TIP3    H123282   4.840   5.097   2.849  0.7768  0.3978 -0.2927
  597TIP3    H223283   4.854   5.011   2.973  1.3337  0.7103 -0.1343
  598TIP3   OH223284   0.659   6.014   4.232 -0.2414  0.3276 -0.1719
  598TIP3    H123285   0.565   6.006   4.245 -0.4154  2.6546  0.5097
  598TIP3    H223286   0.689   6.068   4.305  0.9357  2.8229 -2.3011
  599TIP3   OH223287   5.346   2.616  14.036  0.2918 -0.4585  0.2101
  599TIP3    H123288   5.309   2.529  14.053 -0.0335 -0.3313  0.1344
  599TIP3    H223289   5.439   2.605  14.056 -0.0699 -0.3128  2.1840
  600TIP3   OH223290   2.953   0.874  15.269 -0.4134  0.6185  0.1538
  600TIP3    H123291   2.965   0.954  15.217  0.5910  0.0587 -0.5129
  600TIP3    H223292   2.937   0.805  15.205  0.7642 -0.0739  0.5716
  601TIP3   OH223293   1.629   2.873   2.260 -0.3748 -0.0958 -0.0308
  601TIP3    H123294   1.694   2.918   2.206 -1.1143 -0.4623 -1.2829
  601TIP3    H223295   1.545   2.901   2.222 -0.9319 -0.0364  1.2201
  602TIP3   OH223296   4.059   5.625  15.998  0.1708 -0.4012 -0.2305
  602TIP3    H123297   4.111   5.698  15.968  0.4792  0.0913  1.3994
  602TIP3    H223298   4.059   5.633  16.094  0.5561 -2.7412  0.0282
  603TIP3   OH223299   4.788   0.204   2.906 -0.8591  0.1224  0.2331
  603TIP3    H123300   4.735   0.272   2.947  0.9600 -0.1264  3.2273
  603TIP3    H223301   4.770   0.125   2.957 -0.7459 -0.9965 -1.3763
  604TIP3   OH223302   2.693   0.798   0.066  0.3259 -0.1637  0.2418
  604TIP3    H123303   2.651   0.715   0.090  0.1796  0.2533  1.4831
  604TIP3    H223304   2.761   0.811   0.132  2.8890 -1.1005 -2.0138
  605TIP3   OH223305   4.950   0.737   3.647  0.3606 -0.1747  0.1453
  605TIP3    H123306   4.995   0.653   3.659  0.6153 -0.0663 -0.0298
  605TIP3    H223307   4.950   0.777   3.734  0.2799 -0.3347  0.2196
  606TIP3   OH223308   0.718   5.224  13.467  0.0857  0.7574  0.5791
  606TIP3    H123309   0.695   5.297  13.409  0.3799  0.3391 -0.0700
  606TIP3    H223310   0.739   5.152  13.408 -1.7209 -0.3454  1.2026
  607TIP3   OH223311   6.685   4.607  12.750  0.5906  0.4074 -0.0805
  607TIP3    H123312   6.659   4.518  12.771  3.0752 -0.5749 -0.7410
  607TIP3    H223313   6.735   4.637  12.826 -0.3865  1.3328  0.2174
  608TIP3   OH223314   6.511   2.320  15.784 -0.3012 -0.5646  0.1959
  608TIP3    H123315   6.558   2.349  15.863  0.2117 -1.6252  0.2867
  608TIP3    H223316   6.445   2.260  15.817  1.5947 -3.1048 -0.3656
  609TIP3   OH223317   2.021   1.921   3.640 -0.2013  0.3310 -0.5370
  609TIP3    H123318   1.969   1.989   3.683  0.1668  0.7713 -0.7821
  609TIP3    H223319   1.977   1.839   3.664 -0.5149  0.6333 -0.0519
  610TIP3   OH223320   6.176   2.035   4.413 -0.2598  0.0663 -0.2586
  610TIP3    H123321   6.177   1.987   4.330 -2.1181  0.1665 -0.3872
  610TIP3    H223322   6.127   1.977   4.473  2.1273 -0.5999  1.1959
  611TIP3   OH223323   4.689   1.977   4.511 -0.1154  0.6524  0.3118
  611TIP3    H123324   4.602   1.988   4.549  1.0115  2.3796  2.7055
  611TIP3    H223325   4.705   2.058   4.462  0.9165  1.4125  1.7953
  612TIP3   OH223326   2.211   5.773   2.746 -0.2550 -0.3962 -0.1620
  612TIP3    H123327   2.233   5.745   2.657 -0.0710  0.5437 -0.4255
  612TIP3    H223328   2.287   5.748   2.799  0.9829  1.6658 -0.8276
  613TIP3   OH223329   2.843   5.908  14.083 -0.0268  0.4272 -0.1905
  613TIP3    H123330   2.815   5.858  14.160  0.1203  1.9031  0.8579
  613TIP3    H223331   2.765   5.958  14.057  0.1075  0.4143 -0.6274
  614TIP3   OH223332   4.088   0.802   5.832 -0.0320  0.0948 -0.7306
  614TIP3    H123333   4.059   0.764   5.915 -5.2668  0.7434 -1.9491
  614TIP3    H223334   4.058   0.741   5.765 -2.0364  2.6273 -2.3522
  615TIP3   OH223335   1.505   5.675  12.265 -0.3685  0.2994  0.2376
  615TIP3    H123336   1.553   5.714  12.338  0.2408 -3.3229  2.0182
  615TIP3    H223337   1.567   5.613  12.227 -1.4705  0.4605 -1.9489
  616TIP3   OH223338   4.450   0.307   0.214  0.0802  0.5490  0.2715
  616TIP3    H123339   4.456   0.402   0.221 -0.3327  0.5091  1.2862
  616TIP3    H223340   4.540   0.276   0.220  0.4866  0.9878 -2.3684
  617TIP3   OH223341   4.218   1.139   2.647  0.2585  0.5868  0.1496
  617TIP3    H123342   4.224   1.188   2.729 -1.6526  2.9894 -1.0159
  617TIP3    H223343   4.177   1.056   2.672 -3.3770  2.5115  1.3447
  618TIP3   OH223344   2.850   1.713  13.705 -0.2637 -0.1139 -0.0658
  618TIP3    H123345   2.933   1.758  13.715 -0.7109  0.6274  0.4587
  618TIP3    H223346   2.823   1.691  13.794  0.2227 -1.9859 -0.3378
  619TIP3   OH223347   5.181   5.436  15.216 -0.1267  0.0402  0.0894
  619TIP3    H123348   5.257   5.393  15.178 -0.0374 -0.4905  0.8415
  619TIP3    H223349   5.136   5.475  15.142 -0.3978 -1.6367 -0.6854
  620TIP3   OH223350   4.679   5.288   3.768 -0.2329  0.4125 -0.1943
  620TIP3    H123351   4.654   5.196   3.773 -0.1160  0.3583 -0.6017
  620TIP3    H223352   4.768   5.287   3.733 -0.1519  0.6697  0.0024
  621TIP3   OH223353   0.447   0.113  14.726 -0.8242 -0.0274 -0.1151
  621TIP3    H123354   0.418   0.196  14.763 -0.3419  0.4731 -0.8352
  621TIP3    H223355   0.371   0.055  14.732 -1.6393  0.9240 -0.9640
  622TIP3   OH223356   1.319   4.705   0.394  0.2251 -0.1702  0.1856
  622TIP3    H123357   1.361   4.789   0.375  0.9496 -0.9789 -2.0474
  622TIP3    H223358   1.354   4.645   0.329 -1.0542 -1.9844  1.0858
  623TIP3   OH223359   2.673   6.088   4.290 -0.3690 -0.5393 -0.2664
  623TIP3    H123360   2.705   6.022   4.352  0.1916  2.2175  2.6706
  623TIP3    H223361   2.751   6.116   4.243 -0.1031 -0.1341  0.4049
  624TIP3   OH223362   4.501   6.186  14.563 -0.1771 -0.0569  0.0490
  624TIP3    H123363   4.484   6.122  14.493 -1.8260 -1.3640  1.5476
  624TIP3    H223364   4.497   6.271  14.520  2.3526 -0.8897 -2.0821
  625TIP3   OH223365   0.379   0.016   4.292  0.1824  0.1162 -0.4056
  625TIP3    H123366   0.337   0.017   4.378 -0.3913 -1.2179 -0.6409
  625TIP3    H223367   0.445  -0.054   4.299 -0.7076 -0.8639 -1.4031
  626TIP3   OH223368   5.865   2.264   2.857 -0.2705 -0.4085 -0.1566
  626TIP3    H123369   5.892   2.252   2.766 -1.0216  0.4597 -0.5108
  626TIP3    H223370   5.856   2.358   2.867  0.8420 -0.4146  1.1425
  627TIP3   OH223371   5.201   4.688   0.262  0.0406  0.6535 -0.2500
  627TIP3    H123372   5.149   4.662   0.186  0.1600  0.9188 -0.4210
  627TIP3    H223373   5.183   4.620   0.327 -0.0821  0.4404 -0.5049
  628TIP3   OH223374   6.213   6.236  16.491 -0.3161  0.6655  0.5930
  628TIP3    H123375   6.260   6.317  16.469  0.6725 -0.3136 -1.1481
  628TIP3    H223376   6.210   6.187  16.409 -1.2839 -0.8957  1.5011
  629TIP3   OH223377   0.552   1.850  15.824 -0.0443 -0.3662  0.0779
  629TIP3    H123378   0.640   1.838  15.859 -0.4043  1.8948  2.0361
  629TIP3    H223379   0.495   1.842  15.901 -1.3194  0.4763 -0.7415
  630TIP3   OH223380   1.114   1.977   1.365  0.8768  0.3704  0.4251
  630TIP3    H123381   1.205   2.005   1.359  1.1789 -0.5256  0.6123
  630TIP3    H223382   1.119   1.885   1.390 -0.0921  0.5662  1.4343
  631TIP3   OH223383   0.469   0.532  14.534  0.4972  0.3355 -0.2767
  631TIP3    H123384   0.444   0.440  14.546  2.1090 -0.0740  0.2077
  631TIP3    H223385   0.521   0.532  14.453  2.0083  0.4572  0.6461
  632TIP3   OH223386   5.252   3.470   4.649 -0.0459 -0.0393 -0.0037
  632TIP3    H123387   5.186   3.402   4.635  2.0846 -2.2367 -0.0557
  632TIP3    H223388   5.254   3.482   4.744  0.1986 -0.7689  0.0906
  633TIP3   OH223389   6.659   4.516   2.460 -0.0043 -0.1054 -0.0009
  633TIP3    H123390   6.578   4.545   2.500  0.0698  0.1077 -0.0059
  633TIP3    H223391   6.666   4.566   2.379  1.6309  2.1303  1.4074
  634TIP3   OH223392   3.689   0.220  12.130 -0.3931 -0.2793 -0.0625
  634TIP3    H123393   3.719   0.151  12.071 -0.3835  1.5189 -2.2923
  634TIP3    H223394   3.769   0.253  12.171 -0.2042 -0.4592 -0.2842
  635TIP3   OH223395   4.372   1.364   4.265 -0.0025  0.0822 -0.4347
  635TIP3    H123396   4.390   1.414   4.344 -0.3636 -0.0629 -0.2591
  635TIP3    H223397   4.277   1.371   4.254 -0.0333 -0.4381 -0.4954
  636TIP3   OH223398   5.116   4.424  12.987 -0.0101 -0.1830 -0.1155
  636TIP3    H123399   5.174   4.393  13.056 -0.4703  0.3500  0.5174
  636TIP3    H223400   5.147   4.513  12.968  1.7847 -1.1874 -2.4364
  637TIP3   OH223401   6.314   5.903   5.402  0.3078 -0.6348  0.0091
  637TIP3    H123402   6.334   5.971   5.467  1.0449 -0.2118 -0.6480
  637TIP3    H223403   6.283   5.952   5.326  0.1794 -1.0841 -0.2257
  638TIP3   OH223404   6.283   4.131  13.720  0.3555  0.4195  0.1858
  638TIP3    H123405   6.327   4.175  13.646 -0.6561 -0.3621 -0.9232
  638TIP3    H223406   6.197   4.107  13.686  0.9523 -2.7231  0.5743
  639TIP3   OH223407   5.266   3.371   1.274  0.9545  0.4118 -0.6534
  639TIP3    H123408   5.288   3.281   1.299  0.0890  0.0057 -1.2769
  639TIP3    H223409   5.350   3.417   1.273  1.3167 -0.1773  0.4620
  640TIP3   OH223410   3.755   2.554   6.091 -0.2945  0.4241 -0.3769
  640TIP3    H123411   3.718   2.533   6.176  1.0971 -0.0782  0.1458
  640TIP3    H223412   3.850   2.552   6.105 -0.0121 -0.3676 -2.0822
  641TIP3   OH223413   4.425   3.701  14.593  0.2822 -0.4525  0.0129
  641TIP3    H123414   4.346   3.656  14.564  1.7935 -2.2927 -1.5552
  641TIP3    H223415   4.401   3.793  14.599 -2.0735 -1.0248  0.0875
  642TIP3   OH223416   3.765   1.279  15.251  0.8542 -0.1689 -0.0829
  642TIP3    H123417   3.704   1.333  15.301 -0.0992 -1.4092  0.1591
  642TIP3    H223418   3.783   1.329  15.172 -1.2678 -0.1823 -0.6272
  643TIP3   OH223419   5.030   4.164   4.507  0.7951 -0.1738 -0.8259
  643TIP3    H123420   4.968   4.116   4.453 -0.1532  0.6989 -0.5643
  643TIP3    H223421   5.026   4.254   4.474 -0.3307  0.5406  1.0667
  644TIP3   OH223422   6.347   2.075  12.677  0.1136  0.0316  0.0755
  644TIP3    H123423   6.336   2.003  12.739  1.4337 -0.1560  0.1151
  644TIP3    H223424   6.272   2.133  12.693  1.2970  0.9059  3.0907
  645TIP3   OH223425   6.550   5.443  14.038 -0.1379  0.1173 -0.2441
  645TIP3    H123426   6.572   5.533  14.063  1.6158 -0.8222  1.9490
  645TIP3    H223427   6.455   5.443  14.033 -0.1441  2.3588 -1.5231
  646TIP3   OH223428   1.871   5.913  16.483 -0.4635  0.3855 -0.3788
  646TIP3    H123429   1.814   5.905  16.560  0.2439  0.8327  0.2113
  646TIP3    H223430   1.929   5.986  16.504  0.1275  0.1327 -1.0853
  647TIP3   OH223431   6.517   1.613   2.390 -0.4805  0.4008  0.1140
  647TIP3    H123432   6.500   1.627   2.297 -0.1068 -0.9558 -0.1752
  647TIP3    H223433   6.487   1.524   2.407  0.5852  0.1936  1.0028
  648TIP3   OH223434   5.444   0.594  14.060 -0.4117  0.3901  0.1256
  648TIP3    H123435   5.494   0.548  13.993 -1.5382 -2.0663  0.8469
  648TIP3    H223436   5.436   0.684  14.027 -0.1216 -0.4769 -2.5512
  649TIP3   OH223437   1.904   6.480  17.136  0.0504  0.4031 -0.2900
  649TIP3    H123438   1.859   6.530  17.204 -2.4235 -0.4754 -1.1559
  649TIP3    H223439   1.846   6.485  17.060  1.0404 -1.4734 -1.2512
  650TIP3   OH223440   4.787   3.609   2.688 -0.3687  0.1911  0.1108
  650TIP3    H123441   4.727   3.675   2.723 -0.6632 -0.7130  1.3579
  650TIP3    H223442   4.868   3.657   2.671 -0.8620  1.0545  0.1171
  651TIP3   OH223443   6.012   5.261   1.056  0.8514  0.0970  0.0505
  651TIP3    H123444   6.073   5.333   1.040  0.9412  0.2720  1.0892
  651TIP3    H223445   6.062   5.182   1.033  1.8039  0.1728  1.7064
  652TIP3   OH223446   1.447   3.157   3.447 -0.6756  0.2565 -0.4390
  652TIP3    H123447   1.506   3.233   3.454  1.9019 -1.7130  1.4995
  652TIP3    H223448   1.476   3.112   3.367  0.4508 -0.6138  0.4172
  653TIP3   OH223449   3.943   2.669   2.838  0.0302 -0.1574  0.0045
  653TIP3    H123450   3.868   2.708   2.793  0.5317  1.0592  0.1895
  653TIP3    H223451   3.996   2.631   2.767  1.0532  2.1490 -0.5727
  654TIP3   OH223452   0.078   1.979   3.416 -0.0593  0.0415  0.2304
  654TIP3    H123453   0.145   2.024   3.365  0.1700  0.0592  0.5423
  654TIP3    H223454   0.033   2.049   3.464 -0.1967  0.0146  0.1407
  655TIP3   OH223455   6.660   6.387  13.203  0.9214 -0.3092 -0.1157
  655TIP3    H123456   6.726   6.333  13.159  1.3680  0.9402 -1.0318
  655TIP3    H223457   6.576   6.345  13.181  1.2396 -0.4801 -1.0531
  656TIP3   OH223458   2.005   3.754   0.122  0.4099 -0.0300 -0.2756
  656TIP3    H123459   1.957   3.692   0.177 -1.8107  1.1073 -0.8193
  656TIP3    H223460   1.938   3.794   0.066  2.1174  1.1361 -1.6007
  657TIP3   OH223461   0.866   1.712  13.560  0.1877 -0.4503  0.1392
  657TIP3    H123462   0.862   1.805  13.582 -3.1376 -0.2580 -0.7513
  657TIP3    H223463   0.822   1.668  13.632 -0.4527 -1.0415 -0.5905
  658TIP3   OH223464   0.820   1.378   3.322 -0.3008  0.4014  0.0595
  658TIP3    H123465   0.744   1.436   3.310 -1.2409 -0.6554  0.7232
  658TIP3    H223466   0.815   1.316   3.250 -0.2587  0.1157  0.3025
  659TIP3   OH223467   6.690   4.677   0.304  0.0080 -0.4543 -0.0966
  659TIP3    H123468   6.673   4.695   0.212 -1.0315  1.5654  0.4450
  659TIP3    H223469   6.603   4.671   0.344  0.4411  1.2029  1.1734
  660TIP3   OH223470   3.561   5.549   1.821  0.3441  0.0085 -0.2697
  660TIP3    H123471   3.553   5.484   1.890 -0.0498  1.2240  0.8708
  660TIP3    H223472   3.538   5.632   1.863  0.8926  0.9039 -1.6607
  661TIP3   OH223473   3.067   3.724  17.161  0.1814 -0.4426 -0.0918
  661TIP3    H123474   3.097   3.815  17.170  1.8123 -0.8033 -1.2997
  661TIP3    H223475   3.040   3.718  17.069 -2.7831 -0.4264  0.6994
  662TIP3   OH223476   4.681   3.498  14.366 -0.3495 -0.1988  0.1279
  662TIP3    H123477   4.693   3.506  14.272  1.1645  0.8113  0.3774
  662TIP3    H223478   4.599   3.449  14.376 -0.0210 -1.2102 -1.7077
  663TIP3   OH223479   5.251   1.293  10.499 -0.5261 -0.1039 -0.5868
  663TIP3    H123480   5.305   1.318  10.574  0.2306 -1.8898 -0.4693
  663TIP3    H223481   5.166   1.271  10.537 -0.7760  0.9051 -0.5327
  664TIP3   OH223482   3.643   2.415   1.234  0.4346  0.1113  0.1757
  664TIP3    H123483   3.658   2.370   1.317  1.7768  0.2872  0.0595
  664TIP3    H223484   3.665   2.506   1.252 -0.9577  0.4934  0.0577
  665TIP3   OH223485   4.508   4.355   2.466  0.2060 -0.9077  0.3272
  665TIP3    H123486   4.531   4.288   2.402 -0.4767 -1.9765  1.1721
  665TIP3    H223487   4.538   4.320   2.550  1.8737  0.8444  0.5412
  666TIP3   OH223488   3.355   4.656  13.973  0.5214 -0.7154  0.2003
  666TIP3    H123489   3.390   4.586  13.917 -1.2291 -2.6377  1.3692
  666TIP3    H223490   3.321   4.610  14.049 -3.1475  1.1100 -0.1520
  667TIP3   OH223491   3.613   4.417  13.371 -0.2156 -0.2679  0.5871
  667TIP3    H123492   3.689   4.393  13.318  1.2476 -1.8571  3.2164
  667TIP3    H223493   3.550   4.347  13.356 -1.6347  1.3817 -2.1188
  668TIP3   OH223494   4.379   4.484  12.666 -0.1346 -0.2359 -0.1954
  668TIP3    H123495   4.333   4.410  12.705  1.1354 -0.6072  0.6676
  668TIP3    H223496   4.323   4.559  12.684 -1.3371 -0.9379 -0.8978
  669TIP3   OH223497   0.323   0.703  12.637 -0.3265  0.1495  0.1953
  669TIP3    H123498   0.370   0.733  12.559  2.0361 -0.5760  1.2588
  669TIP3    H223499   0.341   0.771  12.703  0.4248 -0.8152  1.0079
  670TIP3   OH223500   4.601   5.087   5.493 -0.3544 -0.1300 -0.1930
  670TIP3    H123501   4.682   5.092   5.543  0.2500  2.1050 -1.2948
  670TIP3    H223502   4.556   5.010   5.529  2.3825 -1.7039  0.1679
  671TIP3   OH223503   5.519   0.724  11.425  0.1454 -0.3570  0.0218
  671TIP3    H123504   5.609   0.698  11.404 -0.1898 -1.4394 -0.1108
  671TIP3    H223505   5.470   0.709  11.344 -0.4184 -1.0605  0.4813
  672TIP3   OH223506   6.706   0.861   4.844 -0.4744  0.1143 -0.5672
  672TIP3    H123507   6.772   0.918   4.806  0.5535 -1.4103 -1.1916
  672TIP3    H223508   6.652   0.919   4.898  0.6768  1.5973 -0.9364
  673TIP3   OH223509   2.259   3.412   4.622 -0.1291 -0.0681  0.3607
  673TIP3    H123510   2.245   3.486   4.563  0.0156 -2.4009 -2.8511
  673TIP3    H223511   2.352   3.418   4.646  0.6929 -0.7821 -2.3535
  674TIP3   OH223512   6.401   1.373   4.609  0.0001  0.8221 -0.0773
  674TIP3    H123513   6.444   1.322   4.540 -0.5902 -1.3248  1.0487
  674TIP3    H223514   6.451   1.454   4.614  1.1620  0.2621 -1.7928
  675TIP3   OH223515   4.542   4.253   5.583 -0.0510  0.2059 -0.1623
  675TIP3    H123516   4.533   4.305   5.663 -0.1838  2.2183 -1.4262
  675TIP3    H223517   4.634   4.226   5.582 -0.1536 -0.2373  0.8757
  676TIP3   OH223518   3.987   4.842  15.966 -0.1259  0.0828  0.6937
  676TIP3    H123519   4.060   4.873  16.018 -0.6831  0.2733  1.3885
  676TIP3    H223520   3.922   4.814  16.031 -0.7442  0.1014  0.0976
  677TIP3   OH223521   1.080   4.310  14.097  0.1235  0.4556  0.1682
  677TIP3    H123522   1.168   4.342  14.118  1.6522 -1.4235 -2.6663
  677TIP3    H223523   1.037   4.384  14.054  0.8490  0.9537  0.2765
  678TIP3   OH223524   3.681   2.596  15.752  0.5913  0.2038 -0.0289
  678TIP3    H123525   3.591   2.603  15.720  0.8769  0.1535 -0.8587
  678TIP3    H223526   3.672   2.554  15.838 -0.1958  0.4358  0.0087
  679TIP3   OH223527   4.202   3.803  17.097 -0.1432  0.4829 -0.1200
  679TIP3    H123528   4.181   3.839  17.012 -0.9942  3.1452  1.1276
  679TIP3    H223529   4.128   3.825  17.152  1.0289  0.1536  1.6882
  680TIP3   OH223530   3.740   4.671  12.669  0.4008 -0.0885 -0.3145
  680TIP3    H123531   3.765   4.730  12.597  0.9231  0.6470  0.4551
  680TIP3    H223532   3.662   4.712  12.707 -0.1605 -0.7348 -0.7596
  681TIP3   OH223533   4.028   3.149   3.486  0.1544 -0.1618  0.2760
  681TIP3    H123534   3.946   3.127   3.443 -0.2820  1.0225  0.4636
  681TIP3    H223535   4.093   3.146   3.416  0.1351 -1.9476  0.2895
  682TIP3   OH223536   2.074   5.534  12.993 -0.5257  0.0846  0.8379
  682TIP3    H123537   2.076   5.507  12.901 -3.2407 -0.0008  0.7026
  682TIP3    H223538   2.054   5.627  12.989  3.0339  0.9954  1.3834
  683TIP3   OH223539   5.683   2.624  16.976  0.2768  0.4395  0.0456
  683TIP3    H123540   5.718   2.706  16.942 -0.3947  1.1452  1.0009
  683TIP3    H223541   5.649   2.578  16.900  1.2697  0.7414 -0.5881
  684TIP3   OH223542   4.480   2.415   1.474  0.0969 -0.6656 -0.3088
  684TIP3    H123543   4.479   2.447   1.384  0.5015  0.7402  0.1547
  684TIP3    H223544   4.555   2.356   1.477 -0.8031 -1.9182 -1.2449
  685TIP3   OH223545   3.339   5.250  14.059  0.6320 -0.0960 -0.7243
  685TIP3    H123546   3.414   5.262  14.000  0.5700  2.2362 -0.4280
  685TIP3    H223547   3.263   5.269  14.005  0.4065 -0.3586 -0.4996
  686TIP3   OH223548   5.431   4.283   1.347 -0.4920 -0.3505 -0.5376
  686TIP3    H123549   5.450   4.193   1.374  1.1305  0.0906 -0.1350
  686TIP3    H223550   5.441   4.282   1.252  2.2145 -0.0500 -0.3318
  687TIP3   OH223551   4.214   3.475  15.218 -0.2709 -0.1375  0.4045
  687TIP3    H123552   4.219   3.389  15.177 -1.1354 -1.4445  2.8305
  687TIP3    H223553   4.167   3.530  15.155  1.1045 -1.1494 -1.5734
  688TIP3   OH223554   5.811   1.606  12.427  0.1320 -0.4385  0.4446
  688TIP3    H123555   5.839   1.516  12.447  0.3889 -0.6791 -0.8767
  688TIP3    H223556   5.716   1.599  12.416  0.4201 -1.1493 -2.3001
  689TIP3   OH223557   1.720   5.753  13.625  0.9216 -0.8827 -0.2720
  689TIP3    H123558   1.643   5.701  13.604  0.9455 -1.5149  1.1212
  689TIP3    H223559   1.698   5.796  13.708  1.0402  1.0818 -1.1972
  690TIP3   OH223560   0.532   0.152  13.258 -0.1055 -0.6413 -0.2018
  690TIP3    H123561   0.460   0.089  13.262 -2.3014  1.7469  0.4681
  690TIP3    H223562   0.507   0.212  13.188  1.1839  0.3029  0.1151
  691TIP3   OH223563   2.092   0.799   2.394  0.4665 -0.1288 -0.0266
  691TIP3    H123564   2.094   0.751   2.477  0.1872 -0.6350 -0.3116
  691TIP3    H223565   2.069   0.889   2.419  1.3226 -0.0536  0.5474
  692TIP3   OH223566   5.889   0.031  16.985  0.7031 -0.1165  0.6940
  692TIP3    H123567   5.851   0.006  17.070 -1.3522  0.2268 -0.0768
  692TIP3    H223568   5.849  -0.029  16.922 -0.4153  1.7431 -0.4690
  693TIP3   OH223569   4.396   3.621  15.354 -0.3653  0.2402 -0.3099
  693TIP3    H123570   4.478   3.574  15.372 -0.6976  0.0069  0.6314
  693TIP3    H223571   4.333   3.552  15.332 -0.6867  0.2921  0.4345
  694TIP3   OH223572   4.029   6.189   4.355 -0.3734  0.9995 -0.2183
  694TIP3    H123573   4.037   6.106   4.309  0.5609 -0.0231  1.6945
  694TIP3    H223574   3.965   6.239   4.303  0.0526 -0.3532 -2.1455
  695TIP3   OH223575   0.282   4.889  15.113 -0.1779 -0.0026  0.1730
  695TIP3    H123576   0.189   4.887  15.092  0.2851  1.7067 -2.6118
  695TIP3    H223577   0.325   4.853  15.035  1.5412  0.3533  0.9119
  696TIP3   OH223578   5.457   0.926   5.763  0.2101 -0.6221  0.1844
  696TIP3    H123579   5.513   0.849   5.770  0.2349 -0.7339 -1.0288
  696TIP3    H223580   5.425   0.941   5.852  0.2479 -2.0032  0.4522
  697TIP3   OH223581   5.905   2.979  16.154  0.1623  0.2040 -0.3829
  697TIP3    H123582   5.867   2.931  16.081  1.2173  0.2412 -0.9757
  697TIP3    H223583   5.981   2.926  16.180 -0.5144 -0.1117  1.0744
  698TIP3   OH223584   3.363   5.529   1.157  0.4085  0.6690 -0.6394
  698TIP3    H123585   3.442   5.485   1.189  0.3939 -0.9643 -2.6567
  698TIP3    H223586   3.389   5.566   1.073 -0.5942  1.4038 -0.6403
  699TIP3   OH223587   0.791   2.869  11.982 -0.6997 -0.2358  0.3997
  699TIP3    H123588   0.830   2.922  12.052 -0.2599  0.7468 -0.5626
  699TIP3    H223589   0.867   2.828  11.939 -0.8001  0.6434 -0.6560
  700TIP3   OH223590   3.642   2.302  16.286  0.2290  0.2321  0.2750
  700TIP3    H123591   3.569   2.357  16.257 -1.3333 -0.3645  2.7188
  700TIP3    H223592   3.610   2.213  16.274  1.0587 -0.0678  0.2465
  701TIP3   OH223593   3.007   1.315   4.485 -0.3907 -0.4464  0.1887
  701TIP3    H123594   3.030   1.404   4.511  1.7796 -1.6631  2.8951
  701TIP3    H223595   3.090   1.277   4.455 -1.1354 -1.8021 -0.2463
  702TIP3   OH223596   1.816   2.794   2.583  0.3110  0.0611  0.3599
  702TIP3    H123597   1.812   2.701   2.561  1.1311 -0.1982  1.2236
  702TIP3    H223598   1.852   2.796   2.672 -0.3181  1.1790  0.6010
  703TIP3   OH223599   6.268   2.577   4.865 -0.4565 -0.5105 -0.2650
  703TIP3    H123600   6.282   2.542   4.952 -1.1626  2.1376  1.0115
  703TIP3    H223601   6.177   2.606   4.864 -0.0813  0.7517 -1.3902
  704TIP3   OH223602   1.797   3.261   5.942 -0.6827 -0.3585 -0.1773
  704TIP3    H123603   1.722   3.320   5.935 -1.3814 -1.3450 -1.3423
  704TIP3    H223604   1.797   3.233   6.034 -1.4003  0.0804 -0.0356
  705TIP3   OH223605   5.036   3.209  17.105  0.4857 -0.6440 -0.1443
  705TIP3    H123606   5.025   3.126  17.059  0.1857 -0.9060  0.3949
  705TIP3    H223607   5.127   3.235  17.086  0.1332 -0.3418 -1.5295
  706TIP3   OH223608   4.805   6.452  11.539 -0.5338  0.3757  0.6183
  706TIP3    H123609   4.747   6.376  11.548 -1.0209  0.5652 -0.7181
  706TIP3    H223610   4.770   6.516  11.601 -3.3083  1.3967 -1.8113
  707TIP3   OH223611   0.248   3.124   5.514  0.0362  0.5303  0.1802
  707TIP3    H123612   0.312   3.181   5.556  0.6303 -1.1927  1.7245
  707TIP3    H223613   0.257   3.143   5.421  0.1037  3.0153  0.6117
  708TIP3   OH223614   4.944   6.337   2.617  0.0245 -0.3599 -0.2483
  708TIP3    H123615   4.946   6.361   2.524  1.5514  0.9458  0.0596
  708TIP3    H223616   4.852   6.328   2.638 -0.4284  0.8404 -1.5508
  709TIP3   OH223617   6.508   0.754  16.382  0.2860  0.1370 -0.5030
  709TIP3    H123618   6.588   0.802  16.359  1.0160 -1.2935 -1.0649
  709TIP3    H223619   6.464   0.741  16.298  0.1403 -0.2496 -0.3694
  710TIP3   OH223620   0.389   0.340  16.971 -0.0353  0.2488 -0.2924
  710TIP3    H123621   0.332   0.276  17.015  0.0303  0.1905 -0.2929
  710TIP3    H223622   0.335   0.374  16.899 -0.3841  0.8361  0.2338
  711TIP3   OH223623   6.722   3.370   5.349 -0.4096  0.0680  0.2665
  711TIP3    H123624   6.789   3.421   5.305 -1.9133  1.5942 -0.3559
  711TIP3    H223625   6.720   3.406   5.438  0.0471 -0.4532  0.4947
  712TIP3   OH223626   2.399   0.431   1.830 -0.0936  0.5994  0.5548
  712TIP3    H123627   2.458   0.507   1.832  1.1044 -0.2813 -0.0328
  712TIP3    H223628   2.407   0.392   1.917  2.0709 -0.8527 -0.2117
  713TIP3   OH223629   3.056   5.953  13.699  0.2133 -0.3412  0.1211
  713TIP3    H123630   3.009   5.881  13.656 -1.1480 -0.0316  1.0213
  713TIP3    H223631   3.071   5.922  13.788 -0.7982  0.6412  0.6567
  714TIP3   OH223632   6.205   6.575  10.811 -0.7038  0.2747 -0.3370
  714TIP3    H123633   6.299   6.591  10.814 -0.5021 -0.9391  0.6764
  714TIP3    H223634   6.166   6.662  10.823  0.2906  0.6308  0.4952
  715TIP3   OH223635   0.608   2.465  13.924  0.2402  0.7689 -0.0257
  715TIP3    H123636   0.630   2.387  13.974  0.2744  1.4407  1.0329
  715TIP3    H223637   0.512   2.470  13.929  0.0108 -0.4935 -2.1036
  716TIP3   OH223638   1.836   6.216  15.146 -0.1076  0.1036 -0.4707
  716TIP3    H123639   1.765   6.248  15.091 -0.4356 -0.6540 -0.5009
  716TIP3    H223640   1.884   6.295  15.172 -1.4207  0.7106  0.1981
  717TIP3   OH223641   4.018   0.405   3.991 -0.3138 -0.1699 -0.2716
  717TIP3    H123642   3.936   0.361   3.967 -1.6184  0.1896  3.0080
  717TIP3    H223643   4.028   0.474   3.926 -1.9854 -0.9694 -1.4610
  718TIP3   OH223644   1.865   5.549   0.961 -0.1168  0.1832 -0.2851
  718TIP3    H123645   1.797   5.599   0.917 -0.3593 -2.2588 -2.9640
  718TIP3    H223646   1.947   5.580   0.922 -0.1313 -0.2941 -0.7068
  719TIP3   OH223647   4.141   0.873   2.662  0.5436 -0.0777 -0.1772
  719TIP3    H123648   4.089   0.811   2.714 -1.5273  0.5855 -1.3454
  719TIP3    H223649   4.144   0.835   2.574  1.4907  0.2461 -0.3059
  720TIP3   OH223650   0.007   0.634  13.582  0.2165 -0.1058 -0.0551
  720TIP3    H123651   0.095   0.671  13.586  0.1328  0.0153  1.5356
  720TIP3    H223652  -0.013   0.626  13.489  0.6210  2.9326 -0.4730
  721TIP3   OH223653   1.420   0.168   0.136 -0.7369  0.3256  0.0387
  721TIP3    H123654   1.426   0.215   0.219  1.6482  1.2891 -0.5833
  721TIP3    H223655   1.395   0.236   0.073 -0.8455 -0.0284 -0.3000
  722TIP3   OH223656   4.105   0.988  13.703 -0.1008  0.2901 -0.0798
  722TIP3    H123657   4.074   1.030  13.623 -1.0607  0.1933  0.2342
  722TIP3    H223658   4.109   0.895  13.681 -0.7358  0.2170  0.0924
  723TIP3   OH223659   0.944   6.653  13.770 -0.0050  0.2758 -0.1819
  723TIP3    H123660   0.886   6.577  13.772  0.7120 -0.3024  1.8998
  723TIP3    H223661   0.976   6.658  13.680 -0.7281 -1.3850 -0.5570
  724TIP3   OH223662   3.464   2.861   0.627 -0.7589 -0.0570 -0.3747
  724TIP3    H123663   3.389   2.827   0.579 -1.2899  0.7995 -0.1581
  724TIP3    H223664   3.427   2.922   0.691  0.1624  0.8427 -0.6732
  725TIP3   OH223665   1.365   6.042   3.565 -0.3739  0.6255  0.4339
  725TIP3    H123666   1.460   6.045   3.575 -0.4613  2.0632  1.1510
  725TIP3    H223667   1.338   5.968   3.619  0.3422  0.1356  0.1350
  726TIP3   OH223668   5.407   4.629   4.978 -0.2739 -0.6508 -0.4024
  726TIP3    H123669   5.351   4.658   4.906 -1.4399 -0.4735  0.5463
  726TIP3    H223670   5.458   4.706   5.001 -0.3702 -0.5249 -0.6077
  727TIP3   OH223671   4.709   4.791  12.369  0.1744 -0.5221  0.4154
  727TIP3    H123672   4.658   4.717  12.335 -0.0705  0.7096 -2.1433
  727TIP3    H223673   4.701   4.859  12.302 -0.0018  2.0536  2.8399
  728TIP3   OH223674   6.727   3.753  13.924  0.3359 -0.9624  0.4383
  728TIP3    H123675   6.693   3.705  13.848  0.1406 -0.2622  0.0739
  728TIP3    H223676   6.694   3.842  13.912 -0.1914 -0.9758  1.6538
  729TIP3   OH223677   0.098   2.930  13.836 -0.4998  0.3083  0.0645
  729TIP3    H123678   0.102   2.943  13.742 -0.7771  1.1506  0.1585
  729TIP3    H223679   0.113   2.836  13.849 -1.2238  0.0564 -0.8609
  730TIP3   OH223680   2.994   3.618  13.107 -0.4538  0.0267  0.4744
  730TIP3    H123681   3.083   3.595  13.135  0.4534  2.3204 -0.3011
  730TIP3    H223682   2.985   3.578  13.021 -0.1672 -0.1923  0.5433
  731TIP3   OH223683   6.086   2.292  15.879  0.2647 -0.0592 -0.3300
  731TIP3    H123684   6.176   2.260  15.879 -0.3512 -2.4418  3.3541
  731TIP3    H223685   6.080   2.348  15.957 -1.7609 -1.4390  0.6111
  732TIP3   OH223686   5.208   1.527   5.444 -0.0767 -0.1907  0.3989
  732TIP3    H123687   5.218   1.525   5.348  0.5197 -0.4395  0.4636
  732TIP3    H223688   5.119   1.497   5.459  0.3548 -1.7847  0.0006
  733TIP3   OH223689   1.460   3.888  13.454 -0.1900 -0.1270  0.2998
  733TIP3    H123690   1.550   3.857  13.464  0.0028  0.1303 -0.5533
  733TIP3    H223691   1.423   3.884  13.542 -0.2577 -3.0013  0.2273
  734TIP3   OH223692   6.787   0.521   1.619  0.1243  0.3471  0.3797
  734TIP3    H123693   6.803   0.615   1.631 -0.6369  0.4875  0.3211
  734TIP3    H223694   6.702   0.516   1.576  0.0219 -0.3838  0.6541
  735TIP3   OH223695   3.233   0.593   0.131  0.3620 -0.5482 -0.2488
  735TIP3    H123696   3.237   0.501   0.155  0.0910 -0.2481  1.0078
  735TIP3    H223697   3.317   0.629   0.158  0.7966 -0.5821 -1.4953
  736TIP3   OH223698   1.197   4.445  15.593 -0.3586  0.3723  0.0519
  736TIP3    H123699   1.215   4.403  15.678  2.3797  0.5461 -0.3639
  736TIP3    H223700   1.281   4.484  15.567 -0.5504 -1.2429 -3.6178
  737TIP3   OH223701   2.491   1.370   1.205  0.2608 -0.2819  0.1534
  737TIP3    H123702   2.465   1.306   1.139  0.3033 -0.0681 -0.0734
  737TIP3    H223703   2.471   1.455   1.165 -1.1697 -0.1771  1.0132
  738TIP3   OH223704   2.152   2.376  15.353 -0.1940 -0.6759  0.1696
  738TIP3    H123705   2.157   2.444  15.285  1.0375 -0.7600  0.1496
  738TIP3    H223706   2.150   2.294  15.305 -0.0120 -0.7129  0.2254
  739TIP3   OH223707   4.290   3.368  15.669 -0.0372 -0.0861  0.6115
  739TIP3    H123708   4.291   3.430  15.741 -0.0791 -0.0348  0.5678
  739TIP3    H223709   4.202   3.376  15.632 -0.5858 -1.2973  1.5809
  740TIP3   OH223710   1.094   3.952   5.074 -0.9265 -0.7047  0.4640
  740TIP3    H123711   1.128   4.024   5.022  0.9194 -0.3912  2.0028
  740TIP3    H223712   1.090   3.986   5.163 -1.8772 -1.9114  0.9157
  741TIP3   OH223713   5.217   0.177  14.438 -0.4641 -0.6562  0.2709
  741TIP3    H123714   5.249   0.220  14.517  0.3336 -0.2635 -0.2491
  741TIP3    H223715   5.165   0.243  14.393  0.5367 -0.2966 -0.3925
  742TIP3   OH223716   1.656   4.471   4.613 -0.1410  0.1688  0.0483
  742TIP3    H123717   1.642   4.388   4.567  0.0917 -0.0036  0.2855
  742TIP3    H223718   1.579   4.524   4.590  0.2305  0.2893 -0.9603
  743TIP3   OH223719   5.495   2.938  14.201  0.0351  0.8805  0.4994
  743TIP3    H123720   5.489   2.950  14.295  1.0733  0.3129  0.6547
  743TIP3    H223721   5.589   2.940  14.183 -0.1719  1.6597 -0.6159
  744TIP3   OH223722   0.754   4.781  15.904  0.1498 -0.2533 -0.2507
  744TIP3    H123723   0.844   4.765  15.876  0.4611  0.5484  0.2496
  744TIP3    H223724   0.744   4.876  15.899 -0.7806 -0.3613 -0.6133
  745TIP3   OH223725   0.883   0.825   2.418  0.3455 -0.1153 -0.2610
  745TIP3    H123726   0.799   0.789   2.392  0.5342  0.2612 -1.4164
  745TIP3    H223727   0.911   0.769   2.491 -0.7150 -0.4710 -0.1042
  746TIP3   OH223728   1.122   4.252  10.931  0.1616 -0.6219  0.0297
  746TIP3    H123729   1.096   4.160  10.940 -0.0526 -0.5006  0.7350
  746TIP3    H223730   1.104   4.274  10.839 -2.2235 -0.5566  0.4600
  747TIP3   OH223731   0.438   3.678  16.544  0.0632  0.0915 -0.0359
  747TIP3    H123732   0.417   3.588  16.517  0.7763  0.0063 -0.3396
  747TIP3    H223733   0.364   3.730  16.513 -0.5305 -0.4419  0.4680
  748TIP3   OH223734   5.076   4.215   1.068 -0.0714  0.7144  0.3237
  748TIP3    H123735   5.109   4.245   0.983  0.4476 -1.2550 -0.2450
  748TIP3    H223736   5.142   4.152   1.098 -1.8457 -1.1713  0.5426
  749TIP3   OH223737   5.922   0.186  12.280  0.2481  0.1348  0.0863
  749TIP3    H123738   5.839   0.168  12.324  1.1592  0.4198  2.0427
  749TIP3    H223739   5.898   0.233  12.200 -1.3664  2.4937  1.8321
  750TIP3   OH223740   2.752   0.922  12.511  0.1495 -0.7595 -0.2447
  750TIP3    H123741   2.736   0.869  12.433 -0.4519 -1.5169  0.3806
  750TIP3    H223742   2.847   0.935  12.512  0.4182 -2.5597  0.0533
  751TIP3   OH223743   1.065   5.797  12.126  0.3834  0.2846  0.3902
  751TIP3    H123744   1.119   5.872  12.150  2.3542 -0.8654 -0.2280
  751TIP3    H223745   1.127   5.733  12.092 -1.1689 -1.8484  1.3719
  752TIP3   OH223746   1.471   3.084   2.162 -0.2638  0.0696  0.5714
  752TIP3    H123747   1.403   3.079   2.095 -0.7169 -0.0819  1.0377
  752TIP3    H223748   1.530   3.152   2.131 -1.2966  1.0798  0.7607
  753TIP3   OH223749   2.520   5.904   3.078 -0.0691  0.1830 -0.4171
  753TIP3    H123750   2.595   5.847   3.064 -0.0337 -0.0600  0.6812
  753TIP3    H223751   2.464   5.857   3.140 -0.9302  0.5446 -0.8885
  754TIP3   OH223752   5.911   3.280  16.820  0.1478  0.3999 -0.3787
  754TIP3    H123753   5.999   3.316  16.834  0.8376 -1.6841  1.0867
  754TIP3    H223754   5.914   3.244  16.732  1.1022 -0.4839 -0.0053
  755TIP3   OH223755   1.821   2.227  11.994  0.2630 -0.1171 -0.1314
  755TIP3    H123756   1.892   2.279  12.032  1.0080 -1.7211  0.7967
  755TIP3    H223757   1.858   2.189  11.915 -0.6896  1.6883 -1.5431
  756TIP3   OH223758   1.891   4.932   0.492  0.1202  0.2060 -0.7235
  756TIP3    H123759   1.919   4.847   0.457 -0.8004 -0.7944  0.8980
  756TIP3    H223760   1.796   4.925   0.501 -0.0704  1.7104 -1.3010
  757TIP3   OH223761   0.999   6.278  15.179 -0.3724 -0.2888 -0.0173
  757TIP3    H123762   1.034   6.270  15.090  0.2713 -0.3409  0.2309
  757TIP3    H223763   1.070   6.245  15.235  0.3957  2.2988  0.6919
  758TIP3   OH223764   6.498   6.214   0.287  0.5048  0.1091  0.0345
  758TIP3    H123765   6.417   6.206   0.338  1.2949 -2.0693  1.0772
  758TIP3    H223766   6.558   6.261   0.345  0.3904  0.6096 -0.2455
  759TIP3   OH223767   4.009   1.004   4.382  0.0476 -0.1716 -0.0294
  759TIP3    H123768   3.983   0.926   4.431  1.6662 -0.4044  0.5191
  759TIP3    H223769   4.088   1.035   4.426 -0.0990  1.3204 -0.7403
  760TIP3   OH223770   6.243   6.421  13.684 -0.9001 -0.4927  0.6608
  760TIP3    H123771   6.243   6.409  13.779 -0.1120  1.3672  0.9472
  760TIP3    H223772   6.240   6.516  13.673  1.5154 -0.5355 -1.1272
  761TIP3   OH223773   6.346   4.673   0.919 -0.3501 -0.5730 -0.4499
  761TIP3    H123774   6.364   4.579   0.925 -1.2724 -0.7806 -0.6852
  761TIP3    H223775   6.431   4.713   0.902  0.4758 -1.1100  2.0217
  762TIP3   OH223776   0.576   0.945   5.778  0.7271 -0.2492  0.2731
  762TIP3    H123777   0.530   1.007   5.835  1.0985 -1.3379  1.8392
  762TIP3    H223778   0.551   0.970   5.690 -1.3174  0.4149  0.9853
  763TIP3   OH223779   4.179   0.949   0.102  0.0752  0.3053  0.2127
  763TIP3    H123780   4.148   0.860   0.120  0.6795 -0.2895 -1.4193
  763TIP3    H223781   4.127   1.005   0.158  0.1646 -1.1347  1.8205
  764TIP3   OH223782   6.816   5.556  11.060  0.1001 -0.1078  0.1025
  764TIP3    H123783   6.777   5.634  11.097  1.2548  0.2140  0.6735
  764TIP3    H223784   6.867   5.587  10.985  0.0382 -0.4034 -0.0682
  765TIP3   OH223785   4.283   2.844   5.418 -0.0832 -0.3342  0.0022
  765TIP3    H123786   4.372   2.820   5.396  0.1196 -1.8155  2.1571
  765TIP3    H223787   4.286   2.939   5.429  1.7438 -0.5551  1.9539
  766TIP3   OH223788   4.369   5.930   2.698  0.2249  0.0160 -0.3503
  766TIP3    H123789   4.376   5.845   2.656  3.5509 -0.4056  0.7081
  766TIP3    H223790   4.303   5.919   2.767 -0.3454 -1.2682 -1.0861
  767TIP3   OH223791   5.555   4.190  16.354 -0.2052  0.0689 -0.1783
  767TIP3    H123792   5.617   4.151  16.292 -1.5066 -0.2948 -1.3055
  767TIP3    H223793   5.594   4.275  16.377  1.2166 -0.6075  0.0010
  768TIP3   OH223794   1.280   2.110  15.285 -0.1084  0.1513 -0.2675
  768TIP3    H123795   1.249   2.026  15.318 -1.4050  0.3415 -0.9125
  768TIP3    H223796   1.219   2.131  15.214 -0.6270  2.2394  0.7132
  769TIP3   OH223797   6.161   0.586  10.460 -0.2206  0.3369 -0.4749
  769TIP3    H123798   6.218   0.512  10.483 -0.3664  0.6570  1.0654
  769TIP3    H223799   6.216   0.663  10.475 -0.4705  0.5823 -0.8138
  770TIP3   OH223800   6.269   0.841  13.339  0.0757  0.5582  0.0770
  770TIP3    H123801   6.242   0.896  13.266 -0.1202 -0.6562 -0.8003
  770TIP3    H223802   6.191   0.836  13.395  0.1451  1.2827  0.2484
  771TIP3   OH223803   5.920   6.362   0.656 -0.6265 -0.0475 -0.0055
  771TIP3    H123804   5.854   6.320   0.711  2.3468 -2.1433  2.3476
  771TIP3    H223805   5.931   6.449   0.694 -0.8838 -0.2914  0.6341
  772TIP3   OH223806   6.373   2.900  15.503  0.6237 -0.0163 -0.8359
  772TIP3    H123807   6.301   2.927  15.559  1.4438  0.8550 -0.1611
  772TIP3    H223808   6.377   2.967  15.435 -1.4958 -1.9766 -3.0906
  773TIP3   OH223809   0.773   1.578   4.555  0.6698  0.2412 -0.1508
  773TIP3    H123810   0.853   1.532   4.579  0.8049  1.1068  1.1991
  773TIP3    H223811   0.710   1.509   4.534  0.4142 -0.7346  3.2459
  774TIP3   OH223812   2.856   2.076  13.843 -0.2466 -0.0703  0.3955
  774TIP3    H123813   2.877   2.164  13.874 -0.2909 -0.1314  0.6033
  774TIP3    H223814   2.812   2.034  13.918 -1.7618  0.2887 -0.2581
  775TIP3   OH223815   3.852   5.733   5.017 -0.0830 -0.0841 -0.9103
  775TIP3    H123816   3.924   5.670   5.020  0.7242  0.7316 -2.1482
  775TIP3    H223817   3.842   5.753   4.925 -1.4927  0.3070 -0.6907
  776TIP3   OH223818   4.196   3.706   5.908  0.1616 -0.0920  0.8158
  776TIP3    H123819   4.243   3.687   5.827  0.6836 -0.7869  1.2692
  776TIP3    H223820   4.235   3.788   5.940 -0.3457  0.4200  0.1541
  777TIP3   OH223821   6.335   5.393   2.835  0.5713 -0.2619  0.7195
  777TIP3    H123822   6.341   5.435   2.920  2.2620 -0.3253  0.6606
  777TIP3    H223823   6.325   5.465   2.773 -0.8299 -0.2246  0.9697
  778TIP3   OH223824   6.538   5.617   4.297 -0.4995 -0.1489  0.6751
  778TIP3    H123825   6.460   5.638   4.349 -0.6065 -0.2692  0.5648
  778TIP3    H223826   6.600   5.687   4.316 -0.6452 -0.0406  0.7455
  779TIP3   OH223827   1.174   0.339  12.361  0.3983 -0.2513  0.1085
  779TIP3    H123828   1.186   0.244  12.362  0.8205 -0.2054 -0.1625
  779TIP3    H223829   1.088   0.351  12.321 -0.9169 -0.6077  2.6601
  780TIP3   OH223830   6.455   5.706   2.994 -0.4819 -0.3609  0.1377
  780TIP3    H123831   6.490   5.783   3.038 -0.2371 -1.2278  1.5437
  780TIP3    H223832   6.378   5.737   2.947 -0.6060  0.6730  0.9911
  781TIP3   OH223833   0.968   2.698  13.401  0.2765 -0.2031  0.0548
  781TIP3    H123834   1.016   2.735  13.475 -0.4498 -1.4766  1.1979
  781TIP3    H223835   1.036   2.656  13.348  1.1828  2.8854 -1.4769
  782TIP3   OH223836   6.497   3.512  13.920  0.7825  0.2272  0.1627
  782TIP3    H123837   6.505   3.567  13.842 -0.4967  0.4374  0.1540
  782TIP3    H223838   6.412   3.536  13.957  1.0039 -0.4673  1.1647
  783TIP3   OH223839   3.995   6.144  14.151  0.0594  0.5261  0.5439
  783TIP3    H123840   4.021   6.237  14.151  0.1640  0.5173  1.5723
  783TIP3    H223841   3.973   6.126  14.243 -1.5834 -0.0396  0.0676
  784TIP3   OH223842   0.954   1.823   5.425  0.7963 -0.2637  0.1733
  784TIP3    H123843   0.961   1.735   5.461  0.4829  0.2593  1.6118
  784TIP3    H223844   0.873   1.823   5.374 -0.5201 -0.2021  2.1407
  785TIP3   OH223845   6.212   3.615  15.884 -0.5265 -0.2279  0.3884
  785TIP3    H123846   6.163   3.539  15.853 -1.7891  1.0935 -1.0271
  785TIP3    H223847   6.224   3.670  15.807 -0.6012  1.5032  1.5359
  786TIP3   OH223848   2.573   5.569   1.313  0.2632 -0.0852 -0.2504
  786TIP3    H123849   2.546   5.483   1.347  1.1361 -0.3385 -0.1711
  786TIP3    H223850   2.668   5.569   1.320  0.2868  0.8352 -0.4052
  787TIP3   OH223851   5.714   4.869  17.129  0.8951 -0.2193  0.3480
  787TIP3    H123852   5.688   4.840  17.041  2.2439 -1.0839  0.1843
  787TIP3    H223853   5.668   4.809  17.188 -1.5648  1.5829  0.3972
  788TIP3   OH223854   6.667   5.513  11.419 -0.5443 -0.2599 -0.2476
  788TIP3    H123855   6.626   5.469  11.493 -0.0989 -1.2309 -0.5573
  788TIP3    H223856   6.598   5.516  11.352 -1.2793  1.5529  0.5262
  789TIP3   OH223857   1.370   4.471  13.399 -0.0437  0.3789  0.3802
  789TIP3    H123858   1.276   4.464  13.412  0.0992 -0.3650  1.0758
  789TIP3    H223859   1.384   4.441  13.309 -0.3650 -0.5670  0.6316
  790TIP3   OH223860   5.504   5.953   5.248  0.1442 -0.0640 -0.5817
  790TIP3    H123861   5.448   5.883   5.279 -0.9381  0.9027 -0.2925
  790TIP3    H223862   5.481   5.964   5.156  0.0957  0.1104 -0.5488
  791TIP3   OH223863   3.504   5.439  16.602  0.1355 -0.7044  0.1858
  791TIP3    H123864   3.516   5.529  16.570 -1.2134 -0.7546 -0.5640
  791TIP3    H223865   3.593   5.406  16.615  0.6751  0.3720 -0.5834
  792TIP3   OH223866   2.467   3.115  16.083  0.1286  0.4230  0.0060
  792TIP3    H123867   2.459   3.021  16.099 -3.0377  0.4515 -0.6745
  792TIP3    H223868   2.406   3.155  16.144  1.4515  2.0845  0.3028
  793TIP3   OH223869   3.719   5.571  13.805  0.2044  0.6948  0.4171
  793TIP3    H123870   3.695   5.539  13.718  1.0778 -0.9209  0.7331
  793TIP3    H223871   3.761   5.655  13.789  1.0874  0.0440 -0.8143
  794TIP3   OH223872   1.215   4.717  13.261 -0.1198 -0.0561  0.2062
  794TIP3    H123873   1.289   4.727  13.202 -0.1091  1.0450  0.3799
  794TIP3    H223874   1.154   4.786  13.234 -1.1164 -0.9779  0.0271
  795TIP3   OH223875   3.415   2.221  14.918 -0.2285  0.1303 -0.1420
  795TIP3    H123876   3.328   2.181  14.921 -0.7086  1.1563  0.2713
  795TIP3    H223877   3.402   2.309  14.956  1.1679 -0.0274  0.7724
  796TIP3   OH223878   3.084   4.712   0.211  0.6451  0.4254 -0.7221
  796TIP3    H123879   3.008   4.715   0.268 -0.0683 -2.9733 -1.2515
  796TIP3    H223880   3.159   4.719   0.271 -0.0901 -0.4374  0.3373
  797TIP3   OH223881   1.803   5.633   4.725  0.0692  0.2169 -0.0187
  797TIP3    H123882   1.714   5.663   4.741 -0.1079 -0.9861  1.5545
  797TIP3    H223883   1.857   5.684   4.786  0.0786 -0.8220  0.8930
  798TIP3   OH223884   5.533   2.986  13.425 -0.1387 -0.1243 -0.2861
  798TIP3    H123885   5.479   2.931  13.482  0.3216 -0.9315 -0.6161
  798TIP3    H223886   5.572   2.925  13.362  0.1231  0.6254 -0.8674
  799TIP3   OH223887   2.303   3.152   1.304  0.3756 -0.0538 -0.4744
  799TIP3    H123888   2.293   3.111   1.218 -1.1589 -0.6925 -0.0082
  799TIP3    H223889   2.303   3.079   1.366 -3.6299  0.5330  0.4855
  800TIP3   OH223890   0.704   6.048  12.976  0.4196  0.0883 -0.4148
  800TIP3    H123891   0.721   6.039  12.883 -1.0056 -1.3121 -0.5857
  800TIP3    H223892   0.655   6.130  12.984  1.6616  0.8754 -0.7035
  801TIP3   OH223893   2.925   1.076  16.827 -0.5176  0.2162  0.2010
  801TIP3    H123894   2.986   1.135  16.783 -0.1716 -0.9675 -1.0093
  801TIP3    H223895   2.853   1.065  16.765 -0.7549 -0.3114  0.5621
  802TIP3   OH223896   0.721   3.425   2.249  0.0225  0.0925  0.5614
  802TIP3    H123897   0.763   3.430   2.335 -0.4884 -1.0126  0.9009
  802TIP3    H223898   0.638   3.472   2.260  0.8543  1.7446  0.0639
  803TIP3   OH223899   1.919   4.364  14.280  1.0078  0.0864  0.0164
  803TIP3    H123900   1.881   4.412  14.206  0.3427  0.0138  0.3124
  803TIP3    H223901   2.013   4.385  14.275  1.3882 -1.6938 -2.1943
  804TIP3   OH223902   5.844   4.356   3.891  0.1170  1.2289 -0.1600
  804TIP3    H123903   5.833   4.272   3.845  2.6065  1.0022 -0.4921
  804TIP3    H223904   5.799   4.419   3.837 -1.3475  0.2018 -0.1927
  805TIP3   OH223905   0.287   2.240   3.879  0.7356  0.1649 -0.3426
  805TIP3    H123906   0.298   2.229   3.784  0.9103  0.5241 -0.3684
  805TIP3    H223907   0.193   2.232   3.893  0.6632  0.4942 -0.6060
  806TIP3   OH223908   3.051   1.321   3.574  0.2179 -0.2252 -0.2887
  806TIP3    H123909   2.974   1.356   3.619 -0.2335 -0.4019 -0.9187
  806TIP3    H223910   3.067   1.383   3.503 -0.0034 -0.7833 -0.8246
  807TIP3   OH223911   0.807   5.268  11.856  0.2486  0.0386 -0.4534
  807TIP3    H123912   0.856   5.346  11.831 -3.1301  1.8331 -2.3121
  807TIP3    H223913   0.838   5.200  11.798  1.0224  0.9041 -1.0745
  808TIP3   OH223914   4.547   3.197  15.935 -0.1783 -0.4239  0.3087
  808TIP3    H123915   4.485   3.141  15.888  0.7421 -1.7956  0.6728
  808TIP3    H223916   4.633   3.169  15.903  0.3049  1.1839  0.0906
  809TIP3   OH223917   6.002   2.895  12.712  0.4258  0.3322 -0.0548
  809TIP3    H123918   5.912   2.913  12.741  0.3734  0.6310 -0.3880
  809TIP3    H223919   6.002   2.920  12.619  0.3654 -1.3481 -0.5440
  810TIP3   OH223920   5.143   0.315  13.217 -0.4512 -0.7009  0.0768
  810TIP3    H123921   5.052   0.331  13.195  0.2243 -0.4406 -2.9712
  810TIP3    H223922   5.187   0.398  13.199  0.2475 -0.3015  3.0716
  811TIP3   OH223923   5.166   2.671   2.557  0.0071  0.0050  0.4957
  811TIP3    H123924   5.126   2.586   2.574 -1.2819  0.6637  0.9604
  811TIP3    H223925   5.153   2.720   2.639 -0.2060  0.9861 -0.1132
  812TIP3   OH223926   0.282   3.263  15.026 -0.2709  0.4035 -0.4583
  812TIP3    H123927   0.372   3.258  15.059 -0.7121 -0.8144  0.6489
  812TIP3    H223928   0.288   3.231  14.936  0.5328  1.2312 -0.7219
  813TIP3   OH223929   4.172   4.830   2.934 -0.0553 -0.0155 -0.0591
  813TIP3    H123930   4.120   4.909   2.951  0.6287  0.5788 -0.6720
  813TIP3    H223931   4.221   4.851   2.855  0.2456 -1.0094 -0.1412
  814TIP3   OH223932   2.154   1.153  12.699 -0.0036  0.0067 -0.0647
  814TIP3    H123933   2.063   1.156  12.727 -0.5030  1.7427 -1.6726
  814TIP3    H223934   2.166   1.232  12.647  2.2563 -0.5099 -0.4512
  815TIP3   OH223935   1.989   2.505   2.896  0.0380  0.0137  0.1834
  815TIP3    H123936   1.957   2.418   2.923  0.5045 -0.0756  0.4700
  815TIP3    H223937   2.065   2.520   2.953  0.5714  0.1674 -0.5618
  816TIP3   OH223938   6.752   2.291   1.099  0.3848 -0.2523 -0.2740
  816TIP3    H123939   6.687   2.279   1.169  1.1595  2.4606  1.0485
  816TIP3    H223940   6.702   2.330   1.027 -0.0224 -1.1445 -0.4916
  817TIP3   OH223941   1.981   0.838   0.942  0.0748  0.1381  0.5756
  817TIP3    H123942   1.953   0.780   0.871  0.3375 -1.4045  1.6995
  817TIP3    H223943   1.949   0.925   0.915  2.1910  0.1044 -2.5892
  818TIP3   OH223944   2.125   0.578  16.877  0.2093 -0.2843  0.0894
  818TIP3    H123945   2.166   0.516  16.817 -1.0469 -1.7169  0.6232
  818TIP3    H223946   2.110   0.657  16.824  2.3231 -0.2019 -0.4597
  819TIP3   OH223947   2.097   5.894  13.753 -0.0110  0.2313  0.2146
  819TIP3    H123948   2.125   5.802  13.752 -0.7642 -0.0062  0.0171
  819TIP3    H223949   2.067   5.910  13.842 -1.1176 -0.1154 -0.0799
  820TIP3   OH223950   1.413   6.724  15.168  0.3652  0.5018  0.4695
  820TIP3    H123951   1.371   6.639  15.180  1.3554 -0.2683 -1.2440
  820TIP3    H223952   1.460   6.717  15.085 -0.8875  3.2925 -0.6042
  821TIP3   OH223953   0.566   2.215  11.815 -0.2139  0.0290  0.1421
  821TIP3    H123954   0.567   2.233  11.910 -0.4621  0.7261  0.0206
  821TIP3    H223955   0.585   2.300  11.775  0.6163 -0.4039 -0.4249
  822TIP3   OH223956   1.462   0.422  11.646  0.8256 -0.4262  0.3207
  822TIP3    H123957   1.428   0.384  11.727 -0.6345  1.1586  0.5063
  822TIP3    H223958   1.390   0.414  11.584  1.0145  0.6296 -0.0574
  823TIP3   OH223959   2.432   6.099  12.387  0.2967 -0.0931 -0.5114
  823TIP3    H123960   2.483   6.058  12.317 -0.1657  1.2020 -1.6625
  823TIP3    H223961   2.499   6.132  12.448  0.7623 -0.3103 -0.8955
  824TIP3   OH223962   3.493   4.212   2.499  0.2644 -0.6396 -0.3227
  824TIP3    H123963   3.539   4.162   2.432 -1.1472 -0.5260 -1.4326
  824TIP3    H223964   3.449   4.145   2.552 -0.3621 -0.6588 -0.8522
  825TIP3   OH223965   0.340   1.705   2.341  0.1779 -0.3609 -0.1544
  825TIP3    H123966   0.275   1.672   2.278  1.9295 -2.3561 -1.0034
  825TIP3    H223967   0.335   1.645   2.415 -0.7055  1.0149  0.9614
  826TIP3   OH223968   4.464   6.576   3.111 -0.0564 -0.3204 -0.2969
  826TIP3    H123969   4.478   6.614   3.197  2.1719 -2.8380  0.5993
  826TIP3    H223970   4.369   6.574   3.101 -0.3269  1.9020  1.1423
  827TIP3   OH223971   2.025   3.537   5.554 -0.7183 -0.1009 -0.0752
  827TIP3    H123972   1.990   3.448   5.548  0.4544 -0.5158 -1.6594
  827TIP3    H223973   2.113   3.525   5.592 -0.2501  0.2556 -1.0085
  828TIP3   OH223974   5.617   3.505   4.405 -0.3258  0.3223  0.5456
  828TIP3    H123975   5.635   3.421   4.449 -1.5171 -0.3585 -0.2200
  828TIP3    H223976   5.571   3.557   4.470  0.7218  0.5452  1.1436
  829TIP3   OH223977   1.019   2.095  16.852 -0.4619  0.2457 -0.4467
  829TIP3    H123978   0.932   2.132  16.865  0.2633  2.2809 -1.1077
  829TIP3    H223979   1.072   2.131  16.923 -0.7560 -3.4671  1.9312
  830TIP3   OH223980   5.255   6.015  11.248 -0.1055 -0.1584  0.1186
  830TIP3    H123981   5.252   6.074  11.172  0.7367  0.4175  0.5192
  830TIP3    H223982   5.347   5.989  11.254  0.1142  0.9150  1.7725
  831TIP3   OH223983   4.302   2.914  14.652 -0.5615  0.2775 -0.4003
  831TIP3    H123984   4.318   2.873  14.568  3.5291  1.7654 -0.5958
  831TIP3    H223985   4.251   2.992  14.631 -0.2034  0.2530 -1.4299
  832TIP3   OH223986   5.044   1.167  14.189 -0.0538 -0.1996  0.9053
  832TIP3    H123987   5.057   1.097  14.254 -1.5750  0.8984  2.4770
  832TIP3    H223988   4.994   1.125  14.119  0.5480 -1.1095  0.9980
  833TIP3   OH223989   1.430   5.180  14.992  0.4776  0.0409  0.0973
  833TIP3    H123990   1.498   5.247  14.994  2.2756 -1.6566 -0.9012
  833TIP3    H223991   1.349   5.228  14.973  1.5207  2.0281  0.4858
  834TIP3   OH223992   0.812   4.579  14.828  0.2201 -0.1831  0.3490
  834TIP3    H123993   0.813   4.675  14.825 -1.0194 -0.1797 -0.5367
  834TIP3    H223994   0.764   4.558  14.907  1.4223 -0.1010  1.1291
  835TIP3   OH223995   2.624   0.502  12.941 -0.2229 -0.6344  0.7800
  835TIP3    H123996   2.554   0.551  12.898  0.7368 -0.5447 -0.7526
  835TIP3    H223997   2.696   0.564  12.948  0.0136 -0.9835  1.5118
  836TIP3   OH223998   0.651   5.088   1.371 -1.0877  0.3423 -0.4427
  836TIP3    H123999   0.695   5.118   1.451  1.5557 -0.4270 -1.4940
  836TIP3    H224000   0.581   5.151   1.357  0.3044  2.2702  0.8268
  837TIP3   OH224001   0.207   3.230  16.092  0.4868 -0.2315  0.5009
  837TIP3    H124002   0.216   3.203  16.000  0.6389 -0.9772  0.7275
  837TIP3    H224003   0.295   3.222  16.128  0.8213  1.8570  0.2579
  838TIP3   OH224004   1.008   5.127   4.141  0.2342 -0.0707  0.1323
  838TIP3    H124005   0.950   5.186   4.189  0.3111 -0.3415  0.5647
  838TIP3    H224006   0.952   5.052   4.120  0.5941 -0.6405  1.1489
  839TIP3   OH224007   6.534   6.237   3.494  0.3391 -0.6948 -0.3992
  839TIP3    H124008   6.528   6.264   3.402  0.0242 -0.2264 -0.2429
  839TIP3    H224009   6.602   6.293   3.531 -0.8694  0.4964  0.1250
  840TIP3   OH224010   5.214   2.293   0.584  0.4418 -0.2025 -0.4179
  840TIP3    H124011   5.149   2.327   0.524 -0.3116  0.2584  0.6331
  840TIP3    H224012   5.199   2.340   0.666  0.0849 -2.2450  0.7670
  841TIP3   OH224013   6.425   0.383   6.484  0.0661 -0.6997  0.0135
  841TIP3    H124014   6.517   0.360   6.492  0.4553  0.5354 -0.6246
  841TIP3    H224015   6.394   0.388   6.575  1.4262  1.7704  0.4383
  842TIP3   OH224016   3.227   1.428  14.469  0.3451 -0.2323 -0.4867
  842TIP3    H124017   3.304   1.413  14.415  0.7925  1.0856 -0.2488
  842TIP3    H224018   3.168   1.356  14.447  1.2261 -0.6971 -1.4164
  843TIP3   OH224019   6.640   1.816   3.075 -0.2785 -0.2219  0.7437
  843TIP3    H124020   6.621   1.753   3.144 -3.3595 -0.2059  0.0729
  843TIP3    H224021   6.691   1.885   3.118  1.2630 -2.0728  1.9980
  844TIP3   OH224022   1.140   3.935  15.096  0.5182  0.3682  0.0644
  844TIP3    H124023   1.115   4.026  15.078 -0.3055  0.3407  0.9574
  844TIP3    H224024   1.114   3.887  15.017 -1.4800  0.5009  0.5827
  845TIP3   OH224025   0.735   4.092   2.141 -0.6097 -0.1480  0.2363
  845TIP3    H124026   0.673   4.114   2.072 -0.1225 -0.5834 -0.3425
  845TIP3    H224027   0.821   4.106   2.103 -0.3245  1.6716  1.4382
  846TIP3   OH224028   2.841   1.849   3.993  0.5999 -0.0737 -0.3844
  846TIP3    H124029   2.932   1.822   4.001  0.3603 -0.7115  0.3899
  846TIP3    H224030   2.834   1.888   3.906  2.3373  2.9393  0.6730
  847TIP3   OH224031   2.160   2.575   2.684 -0.3983 -0.0338  0.5318
  847TIP3    H124032   2.137   2.518   2.758 -0.6156  0.9170  1.2150
  847TIP3    H224033   2.255   2.575   2.682 -0.3019 -3.2783 -1.7518
  848TIP3   OH224034   3.942   4.124   1.101 -0.1551  0.3975 -0.7875
  848TIP3    H124035   3.941   4.218   1.121  0.2061 -0.0986  1.9629
  848TIP3    H224036   4.026   4.094   1.136 -0.2094 -0.9540 -1.7530
  849TIP3   OH224037   0.215   3.101   4.864 -0.1718 -0.3817  0.0874
  849TIP3    H124038   0.144   3.074   4.807 -0.0250  0.2616 -0.4195
  849TIP3    H224039   0.246   3.021   4.906 -1.5931 -0.5860  0.7853
  850TIP3   OH224040   0.172   2.502   0.412  0.5468  0.0353 -0.1515
  850TIP3    H124041   0.100   2.454   0.371  1.5785 -1.3830 -0.3689
  850TIP3    H224042   0.130   2.578   0.452 -1.4285 -1.7977  1.5516
  851TIP3   OH224043   3.679   6.673  13.254  0.2464  0.5616 -0.6076
  851TIP3    H124044   3.740   6.611  13.212 -0.6060 -0.2493 -0.6851
  851TIP3    H224045   3.735   6.739  13.293  1.4849 -1.9988  2.4421
  852TIP3   OH224046   0.304   3.606   2.234 -0.2909  0.1100 -0.6941
  852TIP3    H124047   0.343   3.692   2.216  0.5429 -0.5152 -2.0687
  852TIP3    H224048   0.218   3.626   2.272  0.9753  1.5354  1.6113
  853TIP3   OH224049   5.093   5.673  15.518 -0.1650  0.0379  0.2362
  853TIP3    H124050   5.036   5.597  15.505 -1.2398  0.9986 -0.7699
  853TIP3    H224051   5.127   5.692  15.430  0.6182  0.3318  0.5984
  854TIP3   OH224052   0.794   4.782  13.611  0.2889 -0.7999 -0.1307
  854TIP3    H124053   0.863   4.788  13.678 -0.7674 -1.5906  1.0771
  854TIP3    H224054   0.785   4.688  13.595 -0.8490 -0.7513  0.1259
  855TIP3   OH224055   5.507   4.432  14.445 -0.2900 -0.0461  0.2775
  855TIP3    H124056   5.454   4.376  14.502  0.9328 -0.5543  0.9403
  855TIP3    H224057   5.514   4.383  14.363 -1.5454  0.4159 -0.1321
  856TIP3   OH224058   2.352   1.701   2.785  0.3065  0.2109 -1.0230
  856TIP3    H124059   2.317   1.658   2.864  0.6619 -0.5420 -1.2649
  856TIP3    H224060   2.388   1.629   2.733 -1.6351  0.4354 -2.7808
  857TIP3   OH224061   2.993   0.638   5.027  0.2142 -0.0268  0.5361
  857TIP3    H124062   2.977   0.589   4.946  0.6813  0.4703  0.1376
  857TIP3    H224063   3.062   0.589   5.072  0.6170  0.2141  0.1816
  858TIP3   OH224064   6.590   4.160   4.094  0.0700  0.1354 -0.4026
  858TIP3    H124065   6.522   4.177   4.029 -0.6174 -1.5321 -0.1913
  858TIP3    H224066   6.667   4.135   4.043 -0.4627 -1.1553 -0.6255
  859TIP3   OH224067   5.192   5.709   3.381  0.2608  0.4821 -0.0275
  859TIP3    H124068   5.143   5.735   3.459 -1.5892  0.1962 -1.0447
  859TIP3    H224069   5.126   5.676   3.321  1.6756  0.4742 -1.6505
  860TIP3   OH224070   5.114   6.815  15.223 -0.3967 -0.3326  0.0831
  860TIP3    H124071   5.192   6.760  15.227 -0.4013 -0.4017 -0.7143
  860TIP3    H224072   5.120   6.860  15.139 -0.5448  0.6608  0.5946
  861TIP3   OH224073   1.417   3.113  13.138  0.3483  0.2642  0.0444
  861TIP3    H124074   1.342   3.111  13.079 -0.7031 -1.2252  1.3353
  861TIP3    H224075   1.474   3.181  13.103 -0.3792 -0.3176 -2.4669
  862TIP3   OH224076   0.431   4.787   3.716  0.3495  0.8786  0.6007
  862TIP3    H124077   0.343   4.754   3.693 -1.0134  4.5498 -0.0881
  862TIP3    H224078   0.484   4.768   3.639  0.6798 -2.5152  1.4825
  863TIP3   OH224079   0.821   4.829  14.916 -0.4898  0.0997  0.5544
  863TIP3    H124080   0.758   4.863  14.853  0.0505 -0.9697 -0.6177
  863TIP3    H224081   0.801   4.875  14.997 -2.0493  0.5908 -0.0618
  864TIP3   OH224082   1.732   5.475  14.297  0.0952  0.1328 -0.8859
  864TIP3    H124083   1.790   5.472  14.374  0.8727  0.4440 -1.4473
  864TIP3    H224084   1.728   5.567  14.274  2.5940 -0.2039 -3.2054
  865TIP3   OH224085   3.463   5.423  12.021 -0.0907 -0.0356 -0.8482
  865TIP3    H124086   3.477   5.465  12.106 -0.8770 -2.0615  0.3404
  865TIP3    H224087   3.533   5.457  11.966  0.7290  0.9754  0.7397
  866TIP3   OH224088   0.377   2.265   3.628 -0.7369 -0.3355 -0.0609
  866TIP3    H124089   0.376   2.208   3.551 -0.7306 -1.9426  1.0557
  866TIP3    H224090   0.465   2.254   3.665 -1.1639 -0.6685  0.9038
  867TIP3   OH224091   1.650   2.750   2.991 -0.4909 -0.3395 -0.2855
  867TIP3    H124092   1.690   2.677   3.039 -2.5466 -1.1641  0.2721
  867TIP3    H224093   1.719   2.780   2.932  2.3117  0.8754  3.2116
  868TIP3   OH224094   0.106   1.282   4.807 -0.0536  0.2086  0.0764
  868TIP3    H124095   0.156   1.330   4.741  0.3169 -1.2673 -0.7701
  868TIP3    H224096   0.029   1.336   4.824  0.5919  1.3168 -0.4707
  869TIP3   OH224097   2.068   4.971   5.274 -0.0650  0.0721  0.1102
  869TIP3    H124098   2.113   4.918   5.208 -0.6881 -1.0667  0.5603
  869TIP3    H224099   2.105   5.059   5.264  0.7046 -0.3480 -0.9434
  870TIP3   OH224100   2.805   0.096   5.956  0.1196  0.0936  0.3746
  870TIP3    H124101   2.734   0.033   5.967  0.9465 -0.7088  1.3099
  870TIP3    H224102   2.766   0.180   5.977 -0.5884 -0.3119  0.7163
  871TIP3   OH224103   6.400   5.077  17.108 -0.4028  0.4986 -0.7574
  871TIP3    H124104   6.326   5.054  17.052 -0.9589  0.7844 -0.1656
  871TIP3    H224105   6.411   5.002  17.166  1.0205 -0.3613 -2.0702
  872TIP3   OH224106   4.375   0.202   3.688  0.0859 -0.1084  0.1043
  872TIP3    H124107   4.459   0.225   3.649 -0.7789  1.6218 -0.8706
  872TIP3    H224108   4.374   0.106   3.688  2.0399 -0.1753  0.1856
  873TIP3   OH224109   0.899   4.674  13.342 -0.1972 -0.4000 -0.0720
  873TIP3    H124110   0.880   4.756  13.386 -0.3180  0.4078 -1.5520
  873TIP3    H224111   0.933   4.700  13.256  2.1963 -1.8676  0.3406
  874TIP3   OH224112   6.269   3.811  11.465 -0.2816 -0.2606  0.4639
  874TIP3    H124113   6.310   3.731  11.432 -0.4397 -1.4440  2.8440
  874TIP3    H224114   6.340   3.858  11.509 -0.4790  0.1596  0.3312
  875TIP3   OH224115   4.135   1.762   1.106  0.0208 -0.0343 -0.0573
  875TIP3    H124116   4.056   1.795   1.064  0.4518  1.2614  0.1207
  875TIP3    H224117   4.206   1.814   1.070  0.6602 -0.4070  0.6273
  876TIP3   OH224118   6.499   2.000   2.605  0.4036  0.3548 -0.4385
  876TIP3    H124119   6.442   2.043   2.669  0.0549  0.8238 -1.0517
  876TIP3    H224120   6.453   1.918   2.584  0.9087 -0.1902  0.4847
  877TIP3   OH224121   3.051   1.188   5.172  0.6810  0.0353 -0.3981
  877TIP3    H124122   2.986   1.257   5.184  2.6790  2.0525 -0.4725
  877TIP3    H224123   3.112   1.224   5.107  0.8959 -2.5267 -1.7273
  878TIP3   OH224124   0.631   2.065   2.220 -0.0645 -0.7363 -0.2200
  878TIP3    H124125   0.605   2.121   2.292  2.9852 -2.1088  2.1906
  878TIP3    H224126   0.721   2.041   2.239 -1.0936 -6.7268 -0.6828
  879TIP3   OH224127   6.213   6.570  15.723  0.2653 -0.3500  0.2128
  879TIP3    H124128   6.276   6.578  15.795  0.6161 -0.6747 -0.0577
  879TIP3    H224129   6.147   6.637  15.742 -0.2026 -1.1207  1.3989
  880TIP3   OH224130   6.446   5.893  15.445  0.6931 -0.2986  0.1131
  880TIP3    H124131   6.375   5.957  15.449  1.4813  0.5513  1.0636
  880TIP3    H224132   6.517   5.932  15.495  2.9133  0.2016 -3.0944
  881TIP3   OH224133   2.567   3.699  13.542 -0.2475  0.5982  1.0169
  881TIP3    H124134   2.581   3.618  13.590 -2.1504 -0.4258 -0.0602
  881TIP3    H224135   2.496   3.743  13.590  1.3217  2.1046  2.0922
  882TIP3   OH224136   6.635   4.135  16.987  0.3276 -0.2493  0.2129
  882TIP3    H124137   6.555   4.083  17.000 -0.2389  0.8083  1.1717
  882TIP3    H224138   6.670   4.147  17.075  0.5919  0.7697 -0.0221
  883TIP3   OH224139   4.907   5.317   1.549  0.4915  0.4623 -0.0976
  883TIP3    H124140   4.915   5.224   1.525 -0.2407  0.2667  0.3780
  883TIP3    H224141   4.997   5.350   1.549  0.7061 -0.0892 -0.8979
  884TIP3   OH224142   1.218   4.073   4.855  0.3720  0.3912 -0.2952
  884TIP3    H124143   1.168   4.009   4.804 -0.3390  0.8604 -0.2005
  884TIP3    H224144   1.216   4.153   4.802 -0.4831  0.9228  0.5119
  885TIP3   OH224145   3.859   6.578  14.933 -0.0369 -0.1587  0.4566
  885TIP3    H124146   3.784   6.527  14.903  0.7196 -0.5531 -0.8350
  885TIP3    H224147   3.867   6.649  14.870  1.3302 -0.7536 -0.0847
  886TIP3   OH224148   0.974   3.618   3.348  0.2752 -0.0540  0.7681
  886TIP3    H124149   0.889   3.634   3.388  0.0661 -1.3614  0.9018
  886TIP3    H224150   0.994   3.698   3.299  0.0145  1.1370  2.5396
  887TIP3   OH224151   2.016   6.084  11.456 -0.2992 -1.1905 -0.2094
  887TIP3    H124152   2.045   5.999  11.422  1.8623 -0.2191 -0.9837
  887TIP3    H224153   2.012   6.072  11.551  1.2646 -1.8471 -0.1879
  888TIP3   OH224154   0.860   1.785   5.130 -0.3735 -0.3703  0.0325
  888TIP3    H124155   0.770   1.760   5.109 -1.3743  2.3572  0.6932
  888TIP3    H224156   0.892   1.828   5.051 -0.5199  0.7272  0.5450
  889TIP3   OH224157   3.573   1.481  13.193  0.2012  0.6023  0.0529
  889TIP3    H124158   3.489   1.460  13.233 -0.4311  2.1427 -0.4187
  889TIP3    H224159   3.635   1.486  13.266  0.0419 -1.0643  0.3525
  890TIP3   OH224160   3.911   5.592   0.363  0.2039 -0.1257  0.0315
  890TIP3    H124161   3.990   5.645   0.379 -1.8200  3.1069  0.1710
  890TIP3    H224162   3.857   5.646   0.305 -0.7823 -3.4689 -2.4335
  891TIP3   OH224163   6.702   5.236  14.125 -0.1704  0.3803  0.1023
  891TIP3    H124164   6.661   5.165  14.174  1.5336  0.9109  2.4986
  891TIP3    H224165   6.636   5.305  14.122 -1.6382 -0.9936 -1.7532
  892TIP3   OH224166   0.321   2.570  11.171  0.1216 -0.0435  0.2169
  892TIP3    H124167   0.282   2.603  11.090 -1.1260 -3.5980 -0.8231
  892TIP3    H224168   0.413   2.557  11.150  0.1078  0.4127 -0.1365
  893TIP3   OH224169   5.005   5.254   3.673  0.1892 -0.2032  0.3891
  893TIP3    H124170   5.068   5.311   3.628 -0.2357 -0.0933 -0.0759
  893TIP3    H224171   5.031   5.165   3.649  0.2649 -0.1657  0.3318
  894TIP3   OH224172   1.027   4.531   4.809  0.1234  0.5915  0.5166
  894TIP3    H124173   0.940   4.572   4.808  0.0003  0.3643  1.4969
  894TIP3    H224174   1.054   4.533   4.900  1.1482  0.6288  0.2228
  895TIP3   OH224175   5.002   5.833  16.811 -0.0120  0.2944  0.4666
  895TIP3    H124176   5.095   5.839  16.835  0.4317 -1.8922 -0.4231
  895TIP3    H224177   4.994   5.887  16.732  0.5911  0.2735  0.3841
  896TIP3   OH224178   0.621   4.408  12.725 -0.0518  0.3803  0.3757
  896TIP3    H124179   0.695   4.407  12.786 -0.8403 -0.7948  1.3765
  896TIP3    H224180   0.555   4.460  12.770 -0.4028  0.0539  0.2409
  897TIP3   OH224181   0.160   6.023   1.910 -0.2085 -0.0386 -0.1748
  897TIP3    H124182   0.149   6.017   2.005 -0.2764 -1.3449 -0.2449
  897TIP3    H224183   0.077   6.058   1.878 -0.2154  0.3250  0.2428
  898TIP3   OH224184   1.566   6.085  11.909  0.2143  0.1635 -0.3941
  898TIP3    H124185   1.630   6.058  11.975 -1.3537 -3.0376  0.0192
  898TIP3    H224186   1.619   6.115  11.835  2.1185 -0.5123  0.6311
  899TIP3   OH224187   3.077   1.150   0.865 -0.5661 -0.4267 -0.0898
  899TIP3    H124188   3.160   1.169   0.908 -0.8726 -0.2122  0.4219
  899TIP3    H224189   3.074   1.055   0.858  0.0558 -0.3988 -0.7896
  900TIP3   OH224190   5.912   6.173  16.356  0.0578  0.3074  0.1863
  900TIP3    H124191   5.995   6.140  16.320 -0.4011 -0.9222  0.2207
  900TIP3    H224192   5.905   6.131  16.442 -1.0612 -0.3732 -0.2136
  901TIP3   OH224193   5.361   3.427   4.300  0.2532  0.4672 -0.0683
  901TIP3    H124194   5.453   3.429   4.326 -0.3459 -0.1088  2.3128
  901TIP3    H224195   5.349   3.341   4.261  0.6402  0.4303 -0.1089
  902TIP3   OH224196   1.401   0.992  14.543 -0.1627 -0.5176 -0.0503
  902TIP3    H124197   1.360   1.072  14.575 -0.7194 -0.3839 -1.0524
  902TIP3    H224198   1.480   0.982  14.597  0.4394  1.2274 -0.5303
  903TIP3   OH224199   4.848   6.721   2.295 -0.0546  0.6685  0.4180
  903TIP3    H124200   4.906   6.781   2.247 -0.1582  0.3022 -0.1769
  903TIP3    H224201   4.817   6.659   2.228 -0.8101  0.6107  0.8139
  904TIP3   OH224202   5.687   5.446  12.216  0.4210  0.4605  0.4982
  904TIP3    H124203   5.689   5.438  12.311  0.9239 -2.2956  0.3364
  904TIP3    H224204   5.770   5.410  12.187  0.3683  1.4442 -1.0104
  905TIP3   OH224205   5.199   3.077   2.567 -0.0481  0.0168 -0.7075
  905TIP3    H124206   5.216   3.012   2.499  0.6110 -1.7731  1.0708
  905TIP3    H224207   5.215   3.030   2.650 -0.2652  2.2466  0.6781
  906TIP3   OH224208   6.251   0.941   3.177 -0.4141  0.9073  0.1979
  906TIP3    H124209   6.218   1.019   3.131  0.2116  0.4420 -1.1189
  906TIP3    H224210   6.249   0.872   3.110 -1.3243 -0.3205  1.4493
  907TIP3   OH224211   2.047   2.956   3.127  0.2130 -0.5443 -0.4067
  907TIP3    H124212   2.052   2.961   3.222  0.9231 -1.5878 -0.3762
  907TIP3    H224213   2.108   2.886   3.103  0.7955  0.3733 -1.7084
  908TIP3   OH224214   0.853   4.537   5.123 -0.1072 -0.6220 -0.1385
  908TIP3    H124215   0.836   4.534   5.029 -0.9256 -2.3009  0.0216
  908TIP3    H224216   0.769   4.564   5.161  0.2653  0.2076  0.1155
  909TIP3   OH224217   3.683   5.416  11.240 -0.2900  0.0885 -0.2984
  909TIP3    H124218   3.769   5.402  11.279 -0.1636  1.4041 -0.0657
  909TIP3    H224219   3.674   5.346  11.175 -0.0673 -1.5135  1.3176
  910TIP3   OH224220   1.899   1.475  15.947  0.3847 -0.3525  0.5175
  910TIP3    H124221   1.980   1.503  15.903  0.5427 -2.4091 -0.6133
  910TIP3    H224222   1.844   1.553  15.947  1.5487  0.5231 -0.6406
  911TIP3   OH224223   6.027   6.590  13.132 -0.0800  0.4463  0.4586
  911TIP3    H124224   6.106   6.575  13.081 -1.0276  0.6218 -1.1149
  911TIP3    H224225   5.980   6.506  13.130 -0.0888  0.4234  1.1444
  912TIP3   OH224226   2.303   2.394  16.828 -0.4636 -0.0948  0.1861
  912TIP3    H124227   2.395   2.390  16.852  0.0353  2.2916 -0.9942
  912TIP3    H224228   2.256   2.373  16.909  1.1106  0.7400  1.3713
  913TIP3   OH224229   5.567   0.736   5.485 -0.2739 -0.6262  0.6137
  913TIP3    H124230   5.533   0.647   5.483 -0.5637 -0.5143  0.5681
  913TIP3    H224231   5.544   0.773   5.400  1.0593 -0.9517  0.0901
  914TIP3   OH224232   3.841   6.154   0.007 -0.3846  0.2443  0.2915
  914TIP3    H124233   3.875   6.064   0.016  1.1196  0.9255  2.0000
  914TIP3    H224234   3.754   6.150   0.046 -0.6809 -0.6275 -0.4020
  915TIP3   OH224235   2.768   0.165  11.309 -0.0961  0.0059  0.5139
  915TIP3    H124236   2.742   0.249  11.272  0.0108 -0.4383 -0.5981
  915TIP3    H224237   2.688   0.130  11.348  0.0756  1.0609  1.8966
  916TIP3   OH224238   6.461   0.248  14.225 -0.1129  0.1357  0.5097
  916TIP3    H124239   6.552   0.264  14.250 -0.3062  0.8663  0.7755
  916TIP3    H224240   6.454   0.153  14.219  0.5128  0.0464  1.0632
  917TIP3   OH224241   6.639   1.521   5.695  0.3084 -0.4057 -0.3863
  917TIP3    H124242   6.627   1.470   5.615 -1.9820 -2.2008  0.9544
  917TIP3    H224243   6.569   1.586   5.692 -1.5020 -2.1431  1.2328
  918TIP3   OH224244   6.248   4.041  14.838 -0.1430 -0.0587 -0.1588
  918TIP3    H124245   6.339   4.015  14.849 -0.7666 -2.6058 -0.3868
  918TIP3    H224246   6.223   4.080  14.922  0.5291 -1.4536  0.7202
  919TIP3   OH224247   3.335   4.643  15.945  0.2581  0.1972  0.1240
  919TIP3    H124248   3.418   4.678  15.976  0.1570 -0.4896  1.2497
  919TIP3    H224249   3.323   4.682  15.859  0.3404  2.6124  1.1133
  920TIP3   OH224250   6.729   5.716   5.620  0.9204  0.0468  0.5048
  920TIP3    H124251   6.772   5.801   5.622 -0.0291  0.5290  1.1128
  920TIP3    H224252   6.740   5.686   5.530  1.8041  0.5228  0.4444
  921TIP3   OH224253   6.614   3.186  16.101 -0.2007 -0.1111 -0.2000
  921TIP3    H124254   6.680   3.221  16.042 -0.2384 -0.7371 -0.6218
  921TIP3    H224255   6.551   3.256  16.112  1.0161  0.8599  0.9814
  922TIP3   OH224256   3.870   4.011  12.762 -0.5223 -0.2139  0.4584
  922TIP3    H124257   3.818   4.091  12.749  0.1056  0.0181 -0.8446
  922TIP3    H224258   3.879   4.003  12.857 -0.7614  1.1602  0.6185
  923TIP3   OH224259   6.420   3.647  12.273  0.0785  0.7069 -0.1680
  923TIP3    H124260   6.395   3.731  12.236 -1.3395  1.0055  1.3618
  923TIP3    H224261   6.358   3.584  12.235 -1.7544  1.1016  1.9571
  924TIP3   OH224262   5.809   3.788  16.900 -0.1678  0.4880  0.5162
  924TIP3    H124263   5.841   3.861  16.848  0.6076 -0.3470 -0.2258
  924TIP3    H224264   5.767   3.828  16.975  0.8939  1.6770  0.5048
  925TIP3   OH224265   5.496   1.803  15.373  0.0438 -0.0668 -0.1125
  925TIP3    H124266   5.562   1.868  15.352 -0.9864  1.5198  1.2885
  925TIP3    H224267   5.527   1.761  15.453  0.9699 -1.7618 -1.2955
  926TIP3   OH224268   5.773   2.930  14.174 -0.1488 -0.5211 -0.3975
  926TIP3    H124269   5.832   2.995  14.136  0.0745 -0.6395 -0.2546
  926TIP3    H224270   5.792   2.850  14.125 -0.5634 -0.4327 -0.7082
  927TIP3   OH224271   0.753   4.756  13.986 -0.2552  0.1294  0.0605
  927TIP3    H124272   0.683   4.815  14.014  0.4181  1.0766 -0.1833
  927TIP3    H224273   0.802   4.806  13.921  0.4851 -0.6071  0.0306
  928TIP3   OH224274   1.682   6.451   6.236  0.7637 -0.0132 -0.5080
  928TIP3    H124275   1.655   6.495   6.317 -0.1963  0.7207 -1.2077
  928TIP3    H224276   1.672   6.358   6.256  0.8708  0.1406  0.3286
  929TIP3   OH224277   5.549   6.095  14.243 -0.7998  0.1734  0.0578
  929TIP3    H124278   5.620   6.091  14.308  1.0303 -1.4979 -1.8624
  929TIP3    H224279   5.497   6.171  14.268  1.2624  1.0653  2.0029
  930TIP3   OH224280   2.976   2.674   4.675 -0.1433 -0.3512 -0.7915
  930TIP3    H124281   3.048   2.619   4.645  0.2531 -0.8171  0.8702
  930TIP3    H224282   2.913   2.675   4.603  0.8059 -1.2453 -1.6547
  931TIP3   OH224283   3.624   1.619  15.054  1.3082  0.1434 -0.7715
  931TIP3    H124284   3.617   1.563  14.977  1.7303 -1.2198  0.1403
  931TIP3    H224285   3.538   1.659  15.062  1.5661  1.1423 -2.5329
  932TIP3   OH224286   0.865   4.741  14.342 -0.5360 -0.0879  0.5084
  932TIP3    H124287   0.859   4.764  14.250  0.0336 -2.0870 -0.0788
  932TIP3    H224288   0.781   4.698  14.362 -1.1704  1.4400  1.2940
  933TIP3   OH224289   2.295   4.563   3.453 -0.6928  0.2774  0.1473
  933TIP3    H124290   2.264   4.610   3.531  0.9691  2.0026 -0.1877
  933TIP3    H224291   2.223   4.571   3.391 -0.9204  1.3516  0.5268
  934TIP3   OH224292   0.271   3.150  13.136 -0.0278  0.2696  0.3534
  934TIP3    H124293   0.275   3.227  13.080 -1.0806  0.6727  0.7947
  934TIP3    H224294   0.296   3.077  13.080 -1.1008  0.6557 -0.6718
  935TIP3   OH224295   3.024   3.443  11.445  0.3261 -0.1899 -0.1857
  935TIP3    H124296   3.107   3.427  11.490 -0.4717 -2.4290  0.6208
  935TIP3    H224297   3.036   3.407  11.357  0.2432 -0.4081 -0.1076
  936TIP3   OH224298   2.159   1.898  15.795 -0.6822 -0.4222 -0.2206
  936TIP3    H124299   2.234   1.954  15.813  0.5097 -1.8495 -0.4649
  936TIP3    H224300   2.133   1.920  15.705  0.8840 -1.3979 -0.9595
  937TIP3   OH224301   3.611   4.005   5.085  0.7898  0.1288 -0.3121
  937TIP3    H124302   3.573   3.922   5.056  2.6914 -1.2691  1.0221
  937TIP3    H224303   3.639   4.048   5.004 -1.3410  0.1079 -1.1203
  938TIP3   OH224304   4.013   5.211  15.433 -0.2255 -0.5258 -0.2729
  938TIP3    H124305   4.070   5.246  15.364 -1.0870 -0.0143 -0.7365
  938TIP3    H224306   3.938   5.174  15.386 -0.0139 -1.7468  0.2920
  939TIP3   OH224307   3.080   6.167  13.506  0.8524 -0.1915  0.4164
  939TIP3    H124308   3.120   6.130  13.427 -0.0202  0.1280 -0.1819
  939TIP3    H224309   3.090   6.098  13.572  0.4667 -0.9635 -0.3111
  940TIP3   OH224310   4.399   3.001  11.360  0.1590 -0.2064 -0.0321
  940TIP3    H124311   4.393   3.013  11.265  0.5805  1.0093  0.0775
  940TIP3    H224312   4.330   2.938  11.380 -0.9944  0.7012 -0.9652
  941TIP3   OH224313   6.410   2.058  16.562 -0.3941 -0.4165 -0.3002
  941TIP3    H124314   6.418   2.152  16.545 -0.9082 -0.6148 -1.7871
  941TIP3    H224315   6.317   2.045  16.578 -0.2119 -0.5710  0.6982
  942TIP3   OH224316   4.847   6.202   2.277 -0.2491 -0.3065  0.4444
  942TIP3    H124317   4.815   6.143   2.344 -0.5719 -0.3543  0.2505
  942TIP3    H224318   4.870   6.145   2.203 -1.2870 -0.1400 -0.0320
  943TIP3   OH224319   6.598   1.693   0.465  0.3627  0.0591 -0.1982
  943TIP3    H124320   6.549   1.611   0.473  0.2924 -0.0918 -1.7934
  943TIP3    H224321   6.658   1.693   0.540  0.0033 -1.1967  0.1058
  944TIP3   OH224322   5.157   0.338  15.809  1.0042  0.2430 -0.1556
  944TIP3    H124323   5.197   0.344  15.895  1.9610  0.4881 -0.6049
  944TIP3    H224324   5.224   0.370  15.749 -0.2947  1.8117 -0.8312
  945TIP3   OH224325   2.425   0.506   3.410 -0.6442  0.2782 -0.2633
  945TIP3    H124326   2.361   0.534   3.476 -1.4529 -1.1995 -0.3822
  945TIP3    H224327   2.413   0.569   3.338 -0.1858  1.5207  0.7094
  946TIP3   OH224328   3.077   5.882   1.060 -0.1009  0.1008  0.1461
  946TIP3    H124329   2.987   5.894   1.029 -0.4466  0.0034  1.1019
  946TIP3    H224330   3.080   5.792   1.092 -0.5886  1.0334  3.0407
  947TIP3   OH224331   5.883   2.305  14.016 -0.2069  0.2491 -0.4313
  947TIP3    H124332   5.926   2.246  14.078 -0.7419  1.1008  0.7941
  947TIP3    H224333   5.790   2.290  14.030 -0.3877  1.9591  0.5463
  948TIP3   OH224334   2.965   4.274   2.820 -0.3688 -0.0492 -0.6303
  948TIP3    H124335   2.998   4.307   2.737 -0.0954 -1.8030 -1.2740
  948TIP3    H224336   3.029   4.207   2.846 -0.4877  0.4159  0.9612
  949TIP3   OH224337   4.136   5.800   2.852 -0.3170  0.1541 -0.1989
  949TIP3    H124338   4.197   5.726   2.858 -0.9276 -0.3983 -0.5944
  949TIP3    H224339   4.053   5.760   2.825 -1.1446  0.7434  1.3369
  950TIP3   OH224340   5.952   6.276   3.875 -0.1635  0.6123  0.0734
  950TIP3    H124341   5.931   6.339   3.944 -1.3618  1.7986 -1.3093
  950TIP3    H224342   5.873   6.270   3.822  0.7229 -0.2028 -1.2391
  951TIP3   OH224343   4.141   1.869  17.023 -0.1087  0.3046 -0.1623
  951TIP3    H124344   4.165   1.864  16.931  0.5675  1.3703 -0.0602
  951TIP3    H224345   4.092   1.788  17.040 -1.1507  0.5799 -1.7040
  952TIP3   OH224346   4.448   1.072   4.791 -0.2244  0.0609 -0.0078
  952TIP3    H124347   4.403   1.127   4.855  0.3193 -1.2153  1.5217
  952TIP3    H224348   4.399   0.989   4.791  0.5783 -0.4251 -0.2574
  953TIP3   OH224349   1.620   3.849   3.660  0.2358 -0.7669 -0.0433
  953TIP3    H124350   1.660   3.875   3.743  1.3122  1.1760 -1.0948
  953TIP3    H224351   1.680   3.785   3.624  1.0927  0.2101 -0.4129
  954TIP3   OH224352   3.792   6.807   3.685 -0.1232  0.3751 -0.2069
  954TIP3    H124353   3.701   6.834   3.674  0.2387  1.6234 -0.2857
  954TIP3    H224354   3.824   6.792   3.596 -0.8391 -2.2307 -0.0983
  955TIP3   OH224355   6.148   3.122  11.879  0.4746  0.3086  0.0161
  955TIP3    H124356   6.115   3.033  11.890  1.5749 -0.3918 -1.9680
  955TIP3    H224357   6.100   3.173  11.945  0.2332 -1.8121  1.5852
  956TIP3   OH224358   4.967   2.678  12.508  1.0141  0.3502  0.2127
  956TIP3    H124359   4.971   2.590  12.545  1.7850 -0.5808 -1.9301
  956TIP3    H224360   4.875   2.690  12.485  0.8795  0.1880  0.6465
  957TIP3   OH224361   2.952   6.469  12.899  0.1579 -0.3868  0.0195
  957TIP3    H124362   2.997   6.478  12.815 -2.0030  0.3035 -1.1465
  957TIP3    H224363   3.019   6.489  12.964  1.6995 -0.1225 -1.5719
  958TIP3   OH224364   5.910   1.062   3.849 -0.4188 -0.3324  0.1355
  958TIP3    H124365   5.827   1.016   3.839 -1.6849  1.8379 -0.0216
  958TIP3    H224366   5.950   1.060   3.762 -2.2682  1.9890 -0.8716
  959TIP3   OH224367   0.241   1.705  15.746  0.1696 -0.2761 -0.3550
  959TIP3    H124368   0.263   1.759  15.822 -2.5619 -1.1324  1.1558
  959TIP3    H224369   0.304   1.633  15.748 -0.0262 -0.4273  1.2807
  960TIP3   OH224370   0.045   3.824   1.877 -0.8821 -0.0220 -0.1845
  960TIP3    H124371   0.025   3.913   1.904 -0.6932 -1.2059  4.8969
  960TIP3    H224372  -0.041   3.782   1.866 -1.0028  0.2030 -0.1036
  961TIP3   OH224373   4.948   2.743   4.231  0.5778 -0.4896 -0.3281
  961TIP3    H124374   4.993   2.747   4.316 -0.3946  0.5078  0.1674
  961TIP3    H224375   5.018   2.750   4.166  1.2898 -0.7535  0.3877
  962TIP3   OH224376   3.480   4.437  13.868 -0.6367 -0.8627 -0.5789
  962TIP3    H124377   3.424   4.367  13.900  0.8074 -1.2255  1.3122
  962TIP3    H224378   3.561   4.428  13.917  0.1782  1.1869 -1.4094
  963TIP3   OH224379   2.155   1.367   5.159  0.2433  0.1972  0.1621
  963TIP3    H124380   2.072   1.323   5.179  0.1226  0.4184  0.1525
  963TIP3    H224381   2.182   1.405   5.243  0.4941 -0.1390  0.2349
  964TIP3   OH224382   6.285   5.020   3.583 -0.2149  0.0640 -0.3781
  964TIP3    H124383   6.284   5.039   3.677  1.1914 -1.0131 -0.1221
  964TIP3    H224384   6.283   5.106   3.541  1.5575  0.6641  0.6727
  965TIP3   OH224385   5.545   2.302  16.462  0.2036 -0.4174 -0.0551
  965TIP3    H124386   5.616   2.237  16.468  1.6956  1.2307  2.6151
  965TIP3    H224387   5.473   2.263  16.511  0.4660 -0.7851  0.0451
  966TIP3   OH224388   5.013   2.355  16.971 -0.8215 -0.5929 -0.0593
  966TIP3    H124389   5.043   2.433  16.924 -0.6256 -1.8330 -2.1249
  966TIP3    H224390   5.011   2.381  17.063  1.1243  1.2618 -0.4727
  967TIP3   OH224391   5.447   6.244   4.014  0.6883  0.1837  0.2405
  967TIP3    H124392   5.400   6.198   4.084 -1.3303  0.9318 -0.5442
  967TIP3    H224393   5.539   6.236   4.038  0.1805 -1.1855  1.9821
  968TIP3   OH224394   2.560   5.094  13.025 -0.0430  0.5861  0.2554
  968TIP3    H124395   2.639   5.096  13.079 -0.1230  0.8938  0.3625
  968TIP3    H224396   2.586   5.135  12.943  0.8670 -2.3270 -1.0320
  969TIP3   OH224397   2.738   6.822  16.137 -0.1053 -0.3410 -0.1081
  969TIP3    H124398   2.767   6.752  16.079  0.3230 -1.0426  0.9127
  969TIP3    H224399   2.774   6.902  16.098 -0.5375 -0.6922 -1.2460
  970TIP3   OH224400   6.060   0.611   0.625 -0.1648 -0.2213  0.1173
  970TIP3    H124401   6.095   0.624   0.713  0.6813 -0.0353 -0.2384
  970TIP3    H224402   6.119   0.548   0.584  0.9167  1.5140 -1.1346
  971TIP3   OH224403   6.168   3.882   2.053  0.2726 -0.4257 -0.1051
  971TIP3    H124404   6.093   3.862   1.998  1.1365 -1.7121 -0.8645
  971TIP3    H224405   6.235   3.913   1.992  0.2853  1.0576  0.6006
  972TIP3   OH224406   2.783   1.284   1.930  0.1046 -0.6146 -0.0497
  972TIP3    H124407   2.690   1.273   1.910  0.1703 -2.8885  0.6790
  972TIP3    H224408   2.789   1.374   1.964 -1.6605 -0.1326 -0.8797
  973TIP3   OH224409   3.303   6.586  12.322  0.0404 -0.2456  0.4385
  973TIP3    H124410   3.313   6.679  12.299 -1.4108  0.4107  2.1737
  973TIP3    H224411   3.371   6.570  12.386  0.0865 -0.2761  0.3813
  974TIP3   OH224412   1.946   4.787  11.565  0.8862 -0.1778 -0.2225
  974TIP3    H124413   1.863   4.777  11.611  1.0707  1.2574  0.4787
  974TIP3    H224414   2.007   4.822  11.631  0.9408  2.8009 -1.6445
  975TIP3   OH224415   5.948   0.966  16.261  0.2359 -0.2592  0.3699
  975TIP3    H124416   5.899   0.911  16.322 -0.6314 -0.6985 -0.6934
  975TIP3    H224417   5.897   1.047  16.255  1.6505  0.8630  2.1491
  976TIP3   OH224418   3.685   0.500   0.650  0.2007  0.0404 -0.5405
  976TIP3    H124419   3.732   0.458   0.578 -0.9093 -0.6810 -0.8601
  976TIP3    H224420   3.635   0.430   0.691  0.1693  0.6057  0.4120
  977TIP3   OH224421   1.715   5.247  15.950 -0.0428 -0.3106  0.2504
  977TIP3    H124422   1.705   5.205  15.864  1.3502  0.9294 -0.5605
  977TIP3    H224423   1.808   5.238  15.969 -0.0396  0.9059  0.8510
  978TIP3   OH224424   6.734   3.529  13.273  0.4093  0.0818 -0.2479
  978TIP3    H124425   6.816   3.480  13.264  0.4220 -0.2850  1.4088
  978TIP3    H224426   6.719   3.533  13.368 -1.7577 -0.2646 -0.5272
  979TIP3   OH224427   2.463   5.260   6.707 -0.1441 -0.8699  0.5235
  979TIP3    H124428   2.508   5.191   6.658  1.8028 -0.6660  1.9044
  979TIP3    H224429   2.475   5.338   6.653 -0.4758 -1.1770 -0.0075
  980TIP3   OH224430   6.111   3.237  12.622 -0.3562 -0.6390  0.2776
  980TIP3    H124431   6.131   3.245  12.716 -1.2225  2.6340  0.2906
  980TIP3    H224432   6.164   3.305  12.580 -1.0286 -1.1200 -1.4390
  981TIP3   OH224433   0.667   3.364   3.661 -0.0535 -0.2503 -0.0443
  981TIP3    H124434   0.705   3.346   3.575  0.9617  2.6303 -0.2988
  981TIP3    H224435   0.727   3.323   3.723  0.8565  0.1762 -0.6253
  982TIP3   OH224436   0.114   2.063  15.109  0.1911  0.0179 -0.2873
  982TIP3    H124437   0.146   2.099  15.026  1.4464  0.6063  0.4174
  982TIP3    H224438   0.086   2.140  15.159  1.1068 -0.1479  0.5060
  983TIP3   OH224439   6.666   0.824  15.371 -0.2822  0.4498  0.2166
  983TIP3    H124440   6.571   0.836  15.362 -0.3383  0.5614  0.9292
  983TIP3    H224441   6.694   0.894  15.430  0.3925  0.9703 -0.6968
  984TIP3   OH224442   0.823   4.258  15.251 -0.5609 -0.4828 -0.3592
  984TIP3    H124443   0.729   4.240  15.241 -0.7461  0.5626 -0.5808
  984TIP3    H224444   0.826   4.336  15.307  0.1948 -0.7465 -0.0196
  985TIP3   OH224445   1.954   1.564  13.284  0.1279 -0.3217  0.5423
  985TIP3    H124446   2.030   1.620  13.297  0.0637 -0.3819  1.1906
  985TIP3    H224447   1.964   1.530  13.195  0.0159  0.9338  0.0352
  986TIP3   OH224448   1.299   1.770   5.437 -0.1099  0.7281 -0.0437
  986TIP3    H124449   1.210   1.784   5.403 -0.7563 -0.3536  1.0895
  986TIP3    H224450   1.285   1.736   5.525  1.3894 -1.0431 -0.4293
  987TIP3   OH224451   2.647   0.631   4.464 -0.0048  0.1629 -0.1333
  987TIP3    H124452   2.736   0.665   4.480  0.5716 -1.3331 -0.0347
  987TIP3    H224453   2.647   0.606   4.372  0.2223 -1.3266  0.2469
  988TIP3   OH224454   3.324   5.025   3.223 -0.2607 -0.8110 -0.4552
  988TIP3    H124455   3.340   5.071   3.305 -1.8023  0.8859 -1.0498
  988TIP3    H224456   3.241   5.060   3.191 -1.2435 -3.5924 -1.2775
  989TIP3   OH224457   6.535   6.747   1.317  0.1566 -0.0326 -0.0883
  989TIP3    H124458   6.482   6.800   1.376  0.7994  0.0479  0.4313
  989TIP3    H224459   6.624   6.754   1.352  0.0268 -2.7778  0.9983
  990TIP3   OH224460   1.997   5.765   2.035  0.8459  0.0517  0.0273
  990TIP3    H124461   2.081   5.810   2.042  1.0787 -0.1853 -1.0498
  990TIP3    H224462   2.020   5.672   2.031  0.4229 -0.1280  1.2951
  991TIP3   OH224463   3.104   2.508   3.864  0.2267  0.2475 -0.3018
  991TIP3    H124464   3.146   2.502   3.949 -0.5122  1.7064  0.2129
  991TIP3    H224465   3.140   2.436   3.813  1.2649 -0.1732  0.9921
  992TIP3   OH224466   2.313   4.134  15.402  0.2283  0.4443  0.2031
  992TIP3    H124467   2.340   4.042  15.398  1.0513  0.6811  0.1451
  992TIP3    H224468   2.287   4.147  15.493 -0.7553 -0.0746  0.0116
  993TIP3   OH224469   5.385   4.350   0.235  0.2593  0.1508 -0.5840
  993TIP3    H124470   5.466   4.310   0.204 -0.3061 -2.6194  1.1601
  993TIP3    H224471   5.340   4.280   0.283 -1.0876  2.7535  2.3241
  994TIP3   OH224472   0.675   4.304   1.703 -0.1253 -0.2713  0.0104
  994TIP3    H124473   0.770   4.309   1.695 -0.3115  1.6064 -3.0074
  994TIP3    H224474   0.648   4.249   1.629 -1.3969 -1.2286  1.1425
  995TIP3   OH224475   2.605   2.151   3.102 -0.2033  0.4906  0.4141
  995TIP3    H124476   2.557   2.090   3.158  0.5124  1.3472  2.0230
  995TIP3    H224477   2.585   2.238   3.138 -0.2598  1.1301 -1.0996
  996TIP3   OH224478   6.799   3.226  10.656 -0.1057  0.4469 -0.7119
  996TIP3    H124479   6.830   3.307  10.695  0.8937 -0.1258 -0.2748
  996TIP3    H224480   6.878   3.172  10.646 -0.8035 -0.6335 -0.5885
  997TIP3   OH224481   4.517   0.527  14.299  0.7259  0.4185 -0.2544
  997TIP3    H124482   4.523   0.585  14.223  2.1143 -0.4700 -0.8584
  997TIP3    H224483   4.487   0.444  14.264 -0.0230  0.3929  0.4134
  998TIP3   OH224484   5.895   4.807  14.006 -0.3029  0.5185 -0.8623
  998TIP3    H124485   5.889   4.729  13.951  2.0862 -0.6488  0.4024
  998TIP3    H224486   5.923   4.877  13.947 -0.5467 -0.0273 -1.6377
  999TIP3   OH224487   3.034   5.229   3.766 -0.4559  0.4073 -0.0252
  999TIP3    H124488   3.092   5.303   3.748 -1.4898  1.4187  0.6713
  999TIP3    H224489   3.041   5.216   3.860  0.6136 -1.1892 -0.2787
 1000TIP3   OH224490   5.265   0.829   1.733 -0.3912 -0.3078 -0.2925
 1000TIP3    H124491   5.295   0.869   1.651  4.1444 -0.1440  1.1498
 1000TIP3    H224492   5.315   0.748   1.740 -1.9499 -1.1845  1.5713
 1001TIP3   OH224493   4.242   5.824  15.272 -0.4472 -0.6602  0.2703
 1001TIP3    H124494   4.212   5.913  15.256  0.6679 -0.1040  1.1303
 1001TIP3    H224495   4.281   5.796  15.189  0.3345  0.1316  0.3595
 1002TIP3   OH224496   0.977   3.904   3.477  0.5045 -0.3021 -0.1911
 1002TIP3    H124497   1.009   3.903   3.386  0.4594  0.8766 -0.2312
 1002TIP3    H224498   0.890   3.864   3.471 -0.8436  2.5046 -1.2406
 1003TIP3   OH224499   6.804   0.998  10.376 -0.3890  0.2874 -0.2286
 1003TIP3    H124500   6.886   0.980  10.331 -0.7540  1.3515 -1.3689
 1003TIP3    H224501   6.775   0.913  10.409  0.7951 -0.2079 -0.4500
 1004TIP3   OH224502   5.435   1.942   5.359  0.2699 -0.6280 -0.0121
 1004TIP3    H124503   5.429   2.035   5.340 -0.1478 -0.5978  0.2510
 1004TIP3    H224504   5.529   1.923   5.360  0.3371 -0.4880 -1.3657
 1005TIP3   OH224505   2.394   6.062   1.719  0.0813  0.1358  0.4692
 1005TIP3    H124506   2.444   6.138   1.689 -0.2947  0.4151  0.5406
 1005TIP3    H224507   2.379   6.010   1.640 -0.4988  0.6307  0.2465
 1006TIP3   OH224508   2.822   2.166   4.316  0.7507  0.0582 -0.0713
 1006TIP3    H124509   2.741   2.156   4.265  0.8797 -1.4551 -0.0410
 1006TIP3    H224510   2.860   2.078   4.317  1.5161  0.3841  1.3804
 1007TIP3   OH224511   2.068   4.420  12.326 -0.2166 -0.2914 -0.5561
 1007TIP3    H124512   2.096   4.349  12.269 -1.2349  1.3606 -3.2676
 1007TIP3    H224513   2.147   4.446  12.373  0.4638 -2.2607 -0.5163
 1008TIP3   OH224514   0.491   0.184  14.235  0.1287 -0.3060 -0.1434
 1008TIP3    H124515   0.529   0.128  14.168  0.3960  0.1552 -0.3825
 1008TIP3    H224516   0.452   0.123  14.298 -0.2135 -0.7394 -0.7641
 1009TIP3   OH224517   5.885   0.740  10.697  0.4932  0.5548  0.1065
 1009TIP3    H124518   5.976   0.769  10.702  0.5445  0.4830 -0.4339
 1009TIP3    H224519   5.874   0.682  10.772  1.2235 -0.3658 -0.4833
 1010TIP3   OH224520   0.258   4.417  10.359 -0.0508 -0.3205  0.1731
 1010TIP3    H124521   0.322   4.483  10.334  0.8504 -1.6149 -1.0567
 1010TIP3    H224522   0.173   4.462  10.352  0.5824  0.8871  0.0555
 1011TIP3   OH224523   3.830   0.460  11.822 -0.2501  0.0375 -0.2765
 1011TIP3    H124524   3.898   0.519  11.791  1.6564 -1.0026  1.6707
 1011TIP3    H224525   3.871   0.373  11.823 -1.9145 -0.7947  0.0442
 1012TIP3   OH224526   1.427   3.500  12.909 -0.3008 -0.2932 -0.3104
 1012TIP3    H124527   1.504   3.552  12.933 -0.3102 -0.5901  0.4039
 1012TIP3    H224528   1.417   3.514  12.815  0.2656  0.2314 -0.3043
 1013TIP3   OH224529   2.560   3.790  14.337 -0.6745  0.2772  0.1894
 1013TIP3    H124530   2.560   3.746  14.422  0.4517 -0.8308 -0.3485
 1013TIP3    H224531   2.653   3.799  14.315 -0.9345  1.3156 -0.5476
 1014TIP3   OH224532   6.258   1.636   2.777  1.0415  0.0350  0.2027
 1014TIP3    H124533   6.250   1.713   2.720 -0.9983  0.2777  0.7562
 1014TIP3    H224534   6.328   1.659   2.839  1.5681  0.7658 -0.6323
 1015TIP3   OH224535   5.547   4.032  13.909  0.1422  0.2642  0.5392
 1015TIP3    H124536   5.556   3.966  13.978 -3.1915 -0.1461  0.7409
 1015TIP3    H224537   5.554   3.984  13.827 -0.5646 -0.0674  0.6686
 1016TIP3   OH224538   4.018   4.653  10.983 -0.3954 -0.3423 -0.3558
 1016TIP3    H124539   3.978   4.738  10.969  0.2021 -0.1024 -0.6673
 1016TIP3    H224540   4.093   4.652  10.923  1.2010  0.0084  1.5518
 1017TIP3   OH224541   2.788   2.030   2.938 -0.0459  0.4451  0.6838
 1017TIP3    H124542   2.713   2.067   2.985  0.1016 -0.7744  1.9339
 1017TIP3    H224543   2.752   1.952   2.895  0.2933  0.4147  0.4538
 1018TIP3   OH224544   3.954   5.932   1.598 -0.1229 -0.2320 -0.4795
 1018TIP3    H124545   3.874   5.968   1.637 -0.2787 -1.3109  0.2410
 1018TIP3    H224546   4.017   6.003   1.603 -0.5457  0.0946  0.5076
 1019TIP3   OH224547   2.978   3.241  14.750 -0.4355 -0.1539  0.3436
 1019TIP3    H124548   3.068   3.245  14.717 -1.2555  1.0688 -2.0325
 1019TIP3    H224549   2.964   3.149  14.772  1.3206 -0.3971  0.5964
 1020TIP3   OH224550   2.994   1.856  12.042 -0.3491 -0.2122  0.5210
 1020TIP3    H124551   2.944   1.881  12.119  0.0074  0.0566  0.6669
 1020TIP3    H224552   2.959   1.909  11.971 -1.4937 -1.3039  0.2294
 1021TIP3   OH224553   6.493   1.584   1.025 -0.2908  0.2184  0.4432
 1021TIP3    H124554   6.432   1.514   1.000 -0.2157  0.3293 -0.0626
 1021TIP3    H224555   6.448   1.664   0.998 -0.7172  0.4223  1.7158
 1022TIP3   OH224556   6.335   1.780  14.859  0.6012 -0.2657 -0.9272
 1022TIP3    H124557   6.309   1.867  14.887  0.7352 -0.2321 -0.9076
 1022TIP3    H224558   6.344   1.730  14.940 -0.7721 -0.6693 -0.9912
 1023TIP3   OH224559   3.756   0.877  17.135  0.5612  0.3931  0.0717
 1023TIP3    H124560   3.723   0.965  17.154 -1.1250  0.1923 -1.6559
 1023TIP3    H224561   3.804   0.886  17.052 -0.6574 -0.5029 -0.7645
 1024TIP3   OH224562   2.179   5.248   5.774  0.6700 -0.1439 -0.6007
 1024TIP3    H124563   2.195   5.327   5.723 -1.6328 -0.5170 -2.0367
 1024TIP3    H224564   2.084   5.234   5.769  0.5958 -1.3037  2.2149
 1025TIP3   OH224565   2.495   0.153   1.505 -0.1352  0.0416  0.3565
 1025TIP3    H124566   2.565   0.214   1.529 -0.4331 -0.0297  1.4952
 1025TIP3    H224567   2.472   0.177   1.416  0.6088  0.7704  0.3434
 1026TIP3   OH224568   3.796   2.910   1.642 -0.3476 -0.3981  0.1152
 1026TIP3    H124569   3.767   2.917   1.733  0.2578  0.8224  0.2294
 1026TIP3    H224570   3.861   2.980   1.632 -0.9158 -0.0653 -1.4497
 1027TIP3   OH224571   5.858   0.471   1.979  0.2733 -0.2611  0.3584
 1027TIP3    H124572   5.882   0.381   1.958  0.1502 -0.5573  1.4731
 1027TIP3    H224573   5.942   0.515   1.993  0.3110 -0.3093  0.2876
 1028TIP3   OH224574   2.809   1.359  15.426  0.2102  0.1938 -0.3311
 1028TIP3    H124575   2.865   1.413  15.370 -0.5199  1.0048 -0.3007
 1028TIP3    H224576   2.802   1.276  15.378  0.6363  0.4293 -0.8183
 1029TIP3   OH224577   5.163   0.031  12.024  0.3967 -0.5088  0.6437
 1029TIP3    H124578   5.098   0.053  12.091  1.7497 -0.6504  2.0525
 1029TIP3    H224579   5.111  -0.002  11.951 -1.1003 -1.0633  1.8856
 1030TIP3   OH224580   6.454   5.839  11.657  0.3184  0.3370  0.6436
 1030TIP3    H124581   6.546   5.863  11.666  0.2986  0.8481 -0.3892
 1030TIP3    H224582   6.454   5.745  11.641  0.6953  0.4039  0.2427
 1031TIP3   OH224583   1.220   0.905  12.179 -0.4128 -0.0778 -0.0995
 1031TIP3    H124584   1.195   0.994  12.206 -0.9550  0.3700 -1.9496
 1031TIP3    H224585   1.282   0.877  12.246  0.0277  1.8298  0.3638
 1032TIP3   OH224586   2.652   2.511  16.737 -0.2914 -0.2995 -0.0205
 1032TIP3    H124587   2.599   2.586  16.709  1.8138  0.7018 -1.5419
 1032TIP3    H224588   2.714   2.548  16.800 -0.2340 -1.0901  0.4032
 1033TIP3   OH224589   1.305   4.521  10.768 -0.0075  0.3101  0.7761
 1033TIP3    H124590   1.293   4.435  10.728  0.4172  0.1028  1.0880
 1033TIP3    H224591   1.229   4.571  10.738 -1.8286 -1.0123  2.8288
 1034TIP3   OH224592   5.819   6.221   4.425 -0.9500  0.6520  0.2692
 1034TIP3    H124593   5.796   6.130   4.406 -1.3224  0.9896 -0.9765
 1034TIP3    H224594   5.894   6.239   4.369 -1.6814  1.4924 -0.4658
 1035TIP3   OH224595   0.219   2.536   1.139  0.1080  0.6093 -0.3401
 1035TIP3    H124596   0.299   2.539   1.192  0.5100  1.8494 -0.9795
 1035TIP3    H224597   0.216   2.446   1.106  0.0547 -0.0739  1.4387
 1036TIP3   OH224598   5.191   3.685  16.516  0.6108  0.9219 -0.3765
 1036TIP3    H124599   5.203   3.780  16.516 -0.1978  1.0699 -2.0936
 1036TIP3    H224600   5.219   3.657  16.429  0.3385 -0.3439 -0.0824
 1037TIP3   OH224601   6.592   2.781  15.560  0.1931  0.4297  0.4487
 1037TIP3    H124602   6.504   2.819  15.561 -0.5400 -1.1685  1.0083
 1037TIP3    H224603   6.634   2.815  15.638 -0.3607  0.2969  0.8104
 1038TIP3   OH224604   3.672   5.507   5.445 -0.2767  0.4764  0.3151
 1038TIP3    H124605   3.723   5.471   5.373 -0.8021 -1.6539  0.9122
 1038TIP3    H224606   3.603   5.442   5.460  0.3421  0.3260  3.2824
 1039TIP3   OH224607   6.497   3.012  12.158  0.6158 -0.0592  0.3447
 1039TIP3    H124608   6.413   2.989  12.198  0.9640 -2.7590 -0.3022
 1039TIP3    H224609   6.532   3.082  12.214 -2.5114  1.9692 -0.0250
 1040TIP3   OH224610   3.528   3.533   4.812 -0.0999  0.2221 -0.1664
 1040TIP3    H124611   3.458   3.579   4.766  0.8687  2.6522  0.6400
 1040TIP3    H224612   3.605   3.543   4.756  0.5139  1.1118  0.7862
 1041TIP3   OH224613   2.646   4.910  14.968  0.1904  0.5405  0.3430
 1041TIP3    H124614   2.651   4.839  14.904  0.3215  1.3354 -0.5528
 1041TIP3    H224615   2.734   4.948  14.968  0.3938  0.0952  1.5416
 1042TIP3   OH224616   1.231   6.404  11.722  0.3983  0.0827 -0.6240
 1042TIP3    H124617   1.186   6.399  11.806  0.4300  2.5484 -0.3741
 1042TIP3    H224618   1.320   6.375  11.740  0.7083  1.6023  0.5072
 1043TIP3   OH224619   5.266   0.350  16.062 -0.1864 -0.5283  0.5367
 1043TIP3    H124620   5.192   0.380  16.115 -1.7470  1.1309 -2.3273
 1043TIP3    H224621   5.335   0.413  16.079 -0.6094 -0.1051  0.7103
 1044TIP3   OH224622   6.434   6.651   2.402 -0.2308  0.1587 -0.5813
 1044TIP3    H124623   6.443   6.733   2.354  1.5200 -0.3113 -1.1017
 1044TIP3    H224624   6.485   6.664   2.482 -2.5353  0.6769  0.9250
 1045TIP3   OH224625   0.216   2.232   5.065 -0.4115  0.3580  0.1086
 1045TIP3    H124626   0.187   2.178   5.138  0.1052  0.4276  0.3670
 1045TIP3    H224627   0.156   2.307   5.065 -2.6913 -1.2774 -1.6960
 1046TIP3   OH224628   6.528   1.637   0.040 -0.4598  0.6264 -0.4590
 1046TIP3    H124629   6.555   1.598  -0.043 -1.1499 -0.5352 -0.1606
 1046TIP3    H224630   6.537   1.566   0.104 -1.9543  0.8646  0.0595
 1047TIP3   OH224631   1.534   0.755   5.654 -0.2380 -0.2332 -0.5310
 1047TIP3    H124632   1.463   0.717   5.705 -0.0742  1.1705  0.7960
 1047TIP3    H224633   1.614   0.723   5.696 -0.0902  1.9534  0.9928
 1048TIP3   OH224634   4.018   3.040  11.836 -0.4347 -0.1068 -0.3521
 1048TIP3    H124635   4.026   2.953  11.875 -0.7421 -0.4784 -1.1045
 1048TIP3    H224636   3.924   3.051  11.823 -0.5789  1.0338  1.2657
 1049TIP3   OH224637   0.985   5.248  12.962  0.0140  0.1863  0.5642
 1049TIP3    H124638   1.044   5.282  12.895 -0.2418  2.3045  1.3631
 1049TIP3    H224639   0.941   5.325  12.998 -2.3785 -1.2013  0.8440
 1050TIP3   OH224640   3.617   1.879   0.175 -0.4533 -0.5003 -0.3966
 1050TIP3    H124641   3.694   1.928   0.146 -1.0973 -1.0818 -3.3966
 1050TIP3    H224642   3.553   1.946   0.198  0.1150 -0.0008 -0.2481
 1051TIP3   OH224643   1.250   3.364  12.478  0.3190  0.0526  0.5561
 1051TIP3    H124644   1.209   3.378  12.563 -1.5534  0.1651 -0.3111
 1051TIP3    H224645   1.186   3.311  12.429  0.9447  0.7252 -1.0686
 1052TIP3   OH224646   5.030   0.512  10.259 -0.1019 -0.0145 -0.1104
 1052TIP3    H124647   5.007   0.420  10.275  0.0417  0.2795  1.9280
 1052TIP3    H224648   5.124   0.510  10.241  0.2416 -0.1053  1.5995
 1053TIP3   OH224649   5.712   3.606   2.225 -0.3421 -0.3273 -0.1965
 1053TIP3    H124650   5.766   3.641   2.296  0.1856 -2.1456  0.3549
 1053TIP3    H224651   5.774   3.592   2.152 -0.1562 -1.7195  0.1904
 1054TIP3   OH224652   1.471   5.905  16.273 -1.0176 -0.4419 -0.7611
 1054TIP3    H124653   1.416   5.921  16.196 -0.4192  0.9932 -0.9287
 1054TIP3    H224654   1.409   5.890  16.344 -1.6368  0.6019 -1.0623
 1055TIP3   OH224655   4.047   6.813  14.576 -0.8526 -0.3059 -0.7558
 1055TIP3    H124656   4.000   6.876  14.521 -2.9284 -1.1055  0.0289
 1055TIP3    H224657   4.052   6.734  14.522  0.2524 -0.0292 -1.0913
 1056TIP3   OH224658   6.650   2.075  12.886  0.2012  0.0332  0.4411
 1056TIP3    H124659   6.632   2.084  12.793  2.9373  1.9127 -0.0277
 1056TIP3    H224660   6.606   2.150  12.926 -1.2391 -0.9474  0.7609
 1057TIP3   OH224661   3.319   5.623   1.610 -0.1544  0.2448  0.1202
 1057TIP3    H124662   3.369   5.610   1.690  1.2675  0.0025 -0.7775
 1057TIP3    H224663   3.384   5.648   1.545 -1.1916 -0.1267 -1.0999
 1058TIP3   OH224664   1.472   4.861  11.719 -0.3328  0.2049 -0.1866
 1058TIP3    H124665   1.380   4.879  11.698 -0.1803  0.2440 -0.8163
 1058TIP3    H224666   1.468   4.787  11.780 -0.6249 -2.3424 -3.0862
 1059TIP3   OH224667   2.674   3.504   6.339  0.5685  0.4197  0.1603
 1059TIP3    H124668   2.650   3.578   6.282 -0.3384 -0.9321 -1.3128
 1059TIP3    H224669   2.770   3.503   6.338  0.6441  2.2050  1.1121
 1060TIP3   OH224670   5.582   4.955  13.190 -0.1969 -0.1811  0.6101
 1060TIP3    H124671   5.517   4.992  13.248  0.9736  1.5774  0.8849
 1060TIP3    H224672   5.665   4.966  13.237  0.5613 -0.2649 -0.6572
 1061TIP3   OH224673   1.635   6.269   1.265  0.2741 -0.2514  0.2878
 1061TIP3    H124674   1.669   6.263   1.176  0.5524 -0.6333  0.4183
 1061TIP3    H224675   1.712   6.262   1.321  0.1084  0.0541  0.5588
 1062TIP3   OH224676   3.954   0.921  11.792  0.5493 -0.1425  0.1992
 1062TIP3    H124677   3.892   0.851  11.777  0.2608 -0.3062  2.0025
 1062TIP3    H224678   3.927   0.991  11.731 -0.1420 -0.9590 -0.4520
 1063TIP3   OH224679   2.759   1.651   5.217 -0.6758 -0.3271 -0.3352
 1063TIP3    H124680   2.721   1.698   5.291  0.0786 -0.4811  0.1640
 1063TIP3    H224681   2.750   1.559   5.241 -0.2347 -0.3714 -0.3353
 1064TIP3   OH224682   5.839   3.043   3.650  0.3917  0.3659 -0.1276
 1064TIP3    H124683   5.923   3.085   3.627  0.9488  0.2801  1.6165
 1064TIP3    H224684   5.865   2.963   3.697 -0.6776 -0.6304 -1.1855
 1065TIP3   OH224685   1.898   1.815   1.203  0.1229  0.0076  0.1503
 1065TIP3    H124686   1.880   1.905   1.177 -0.5297 -0.0372  0.4441
 1065TIP3    H224687   1.892   1.816   1.299 -0.8500 -0.5458  0.1070
 1066TIP3   OH224688   4.616   5.570  12.242 -0.1764 -0.2294 -0.0816
 1066TIP3    H124689   4.641   5.513  12.169 -0.5460 -0.9864  0.3729
 1066TIP3    H224690   4.699   5.592  12.285  0.0303  0.1205 -0.6571
 1067TIP3   OH224691   5.500   1.707   3.638 -0.1677  0.0187 -0.3167
 1067TIP3    H124692   5.479   1.786   3.687  0.4200 -0.5877  0.9653
 1067TIP3    H224693   5.428   1.647   3.656 -0.3776  0.0858 -0.9032
 1068TIP3   OH224694   1.368   1.272   4.146 -0.4017 -0.1413  0.0442
 1068TIP3    H124695   1.275   1.295   4.153  0.0403  1.4383  1.0684
 1068TIP3    H224696   1.412   1.330   4.208  1.2251 -1.2202 -0.0490
 1069TIP3   OH224697   5.386   4.297  15.060 -0.4084  0.0656 -0.1299
 1069TIP3    H124698   5.340   4.243  14.996 -0.7556 -0.2638  0.3920
 1069TIP3    H224699   5.433   4.234  15.115  2.2153  0.4393 -1.7755
 1070TIP3   OH224700   5.471   0.760   5.204 -0.2916 -0.0341 -0.1331
 1070TIP3    H124701   5.398   0.821   5.203  1.0099  1.7197 -3.4015
 1070TIP3    H224702   5.449   0.694   5.138  1.1926  0.8375 -1.5873
 1071TIP3   OH224703   2.074   1.103  16.082 -0.3324 -0.5969  0.0094
 1071TIP3    H124704   2.106   1.193  16.086 -0.4622 -0.4993 -0.9157
 1071TIP3    H224705   2.145   1.054  16.039 -0.5964 -0.7686 -0.2388
 1072TIP3   OH224706   6.522   4.029   1.389 -1.0336 -0.0298  0.6585
 1072TIP3    H124707   6.491   3.951   1.343 -0.4685 -0.2794  0.6991
 1072TIP3    H224708   6.533   4.001   1.480 -1.9360  0.4049  0.9206
 1073TIP3   OH224709   0.004   4.679   4.414 -0.3405  0.7019  0.5165
 1073TIP3    H124710  -0.019   4.625   4.339  0.1518 -0.6328  1.2935
 1073TIP3    H224711  -0.028   4.630   4.490 -0.5298  1.8633  1.2110
 1074TIP3   OH224712   3.528   5.691   3.805  0.3168 -0.0547 -0.1912
 1074TIP3    H124713   3.566   5.606   3.786 -0.5938 -1.4159  3.2830
 1074TIP3    H224714   3.436   5.673   3.825  0.1794  1.6503  1.0073
 1075TIP3   OH224715   6.520   6.649  15.011  0.1380 -0.1588  0.7178
 1075TIP3    H124716   6.588   6.716  15.015  0.7674 -0.5341 -1.8107
 1075TIP3    H224717   6.544   6.587  15.080  1.8963  0.1624  0.4416
 1076TIP3   OH224718   4.674   5.790   5.533  0.0176 -0.3954 -0.1067
 1076TIP3    H124719   4.712   5.797   5.620  0.6810 -1.0501 -0.3371
 1076TIP3    H224720   4.579   5.794   5.548  0.1374  0.1507  0.5721
 1077TIP3   OH224721   6.405   4.638  14.405 -0.1144 -0.0895  0.3921
 1077TIP3    H124722   6.371   4.558  14.365  2.5523 -1.4564  0.6427
 1077TIP3    H224723   6.358   4.645  14.488 -0.5365 -1.3108  0.2840
 1078TIP3   OH224724   0.607   4.986  14.820 -0.6182  0.4020 -0.5119
 1078TIP3    H124725   0.519   4.950  14.834 -0.0798 -0.8072 -0.0142
 1078TIP3    H224726   0.618   5.050  14.890 -0.4068 -0.8474  0.6444
 1079TIP3   OH224727   3.296   3.057   5.090  0.8457 -0.7482 -0.1967
 1079TIP3    H124728   3.246   3.092   5.016  0.8956 -1.7362 -0.7116
 1079TIP3    H224729   3.378   3.027   5.052  0.8374 -1.3437  0.2425
 1080TIP3   OH224730   0.605   5.969   2.554 -0.2700  0.0927  0.3507
 1080TIP3    H124731   0.545   5.961   2.629  0.9240  0.6994  1.4069
 1080TIP3    H224732   0.548   5.993   2.481 -1.2418  1.4463  1.4892
 1081TIP3   OH224733   0.323   1.516   2.545  0.1516  0.5641 -0.0828
 1081TIP3    H124734   0.354   1.470   2.623  2.2942  1.7588 -0.1516
 1081TIP3    H224735   0.234   1.544   2.568  0.7428  0.9244  1.9544
 1082TIP3   OH224736   5.408   3.319   2.709 -0.1505  0.6745  0.0723
 1082TIP3    H124737   5.364   3.266   2.776 -1.5426  1.9485  0.2060
 1082TIP3    H224738   5.453   3.388   2.759  1.8307 -0.4186 -0.0851
 1083TIP3   OH224739   1.331   0.288   4.769  0.3455  0.5160  0.2582
 1083TIP3    H124740   1.273   0.255   4.701 -1.1076  0.3744  1.5293
 1083TIP3    H224741   1.312   0.382   4.773  2.2894  1.0622 -1.2438
 1084TIP3   OH224742   4.797   1.103  10.464  0.1080  0.7816 -0.5732
 1084TIP3    H124743   4.793   1.045  10.540  0.8716  1.2577 -0.1581
 1084TIP3    H224744   4.718   1.157  10.471 -1.5414 -1.2750 -1.8910
 1085TIP3   OH224745   0.554   4.151  12.988  0.0953 -0.3551  0.0272
 1085TIP3    H124746   0.572   4.238  12.953 -0.2734  0.5300  1.9535
 1085TIP3    H224747   0.635   4.102  12.975  1.0453  0.9479  0.8708
 1086TIP3   OH224748   0.583   2.181   6.345 -0.1666  0.4410  0.7185
 1086TIP3    H124749   0.658   2.197   6.288 -0.6664  0.0040 -0.0807
 1086TIP3    H224750   0.588   2.088   6.366 -0.1436  0.5417  1.1561
 1087TIP3   OH224751   0.635   0.687   1.702 -0.2304  0.6080  0.1116
 1087TIP3    H124752   0.709   0.673   1.761 -1.2871 -0.8603  1.1549
 1087TIP3    H224753   0.575   0.743   1.751 -0.9257 -0.2726  0.2869
 1088TIP3   OH224754   4.668   3.379  13.290 -0.4429  0.2642  0.3660
 1088TIP3    H124755   4.572   3.375  13.289 -0.4854 -1.4041  2.7141
 1088TIP3    H224756   4.689   3.418  13.375  0.9990  0.7389 -0.1732
 1089TIP3   OH224757   5.763   0.964  10.753 -0.3915  0.4048 -0.4138
 1089TIP3    H124758   5.799   0.882  10.718 -1.6922 -0.6426  0.5893
 1089TIP3    H224759   5.752   1.020  10.677 -0.6157 -0.7981 -1.2993
 1090TIP3   OH224760   6.219   5.508  11.229  0.1523 -0.0895 -0.4732
 1090TIP3    H124761   6.166   5.550  11.162 -0.1661  0.2716 -0.0024
 1090TIP3    H224762   6.161   5.444  11.270 -0.3601  1.1935  0.9072
 1091TIP3   OH224763   1.901   6.820  10.368  0.2075 -0.0200  0.0469
 1091TIP3    H124764   1.905   6.762  10.444  1.9753 -0.3204 -0.2251
 1091TIP3    H224765   1.916   6.907  10.405  2.4787 -0.3117 -0.0495
 1092TIP3   OH224766   1.951   3.464   3.411 -0.4424 -0.4917  0.1549
 1092TIP3    H124767   1.952   3.548   3.366 -0.6497  0.5174  1.9664
 1092TIP3    H224768   2.031   3.421   3.382 -0.6806  0.0135 -1.3326
 1093TIP3   OH224769   5.586   4.918   2.950 -0.0630 -0.3340  0.0080
 1093TIP3    H124770   5.535   4.884   2.877 -0.2252  0.2454 -0.1512
 1093TIP3    H224771   5.597   5.011   2.931  0.6328 -0.3481  0.2837
 1094TIP3   OH224772   4.064   2.856  15.112 -0.4326  0.7556 -0.0220
 1094TIP3    H124773   4.103   2.841  15.026 -0.9583 -1.4842  0.0665
 1094TIP3    H224774   3.976   2.819  15.105 -0.5738  0.7797  1.3846
 1095TIP3   OH224775   4.588   4.737   0.078  0.1288  0.4667  0.5174
 1095TIP3    H124776   4.667   4.771   0.037 -0.0781 -0.6537 -0.9059
 1095TIP3    H224777   4.536   4.702   0.005 -1.3009  0.4351  1.5065
 1096TIP3   OH224778   1.758   5.710  12.111 -0.0849  0.9083  0.7799
 1096TIP3    H124779   1.798   5.649  12.173  0.2832  1.0901  0.7239
 1096TIP3    H224780   1.703   5.656  12.056  1.0893  0.4585  0.0220
 1097TIP3   OH224781   5.833   5.808   0.070 -0.3379 -0.4087 -0.4410
 1097TIP3    H124782   5.823   5.716   0.047 -2.3349 -0.1350 -0.9113
 1097TIP3    H224783   5.753   5.829   0.118  1.2388  0.4687  1.9925
 1098TIP3   OH224784   3.059   1.852   4.997  0.5511  0.0847  0.4230
 1098TIP3    H124785   3.084   1.930   5.047  2.8408  0.2003 -0.7650
 1098TIP3    H224786   2.971   1.872   4.964  1.1070  2.2298  0.0821
 1099TIP3   OH224787   4.539   5.319   5.625  0.8963  0.4041  0.7693
 1099TIP3    H124788   4.574   5.253   5.566 -0.1135  1.5150 -1.1687
 1099TIP3    H224789   4.599   5.318   5.700  2.8040 -0.3987 -0.6761
 1100TIP3   OH224790   2.182   4.257  12.916 -0.0698 -0.0404 -0.3989
 1100TIP3    H124791   2.099   4.248  12.870  0.3602 -0.2048 -1.1562
 1100TIP3    H224792   2.163   4.228  13.005 -1.1810  1.3073 -0.1677
 1101TIP3   OH224793   5.750   1.967  11.972  0.0220 -0.2004 -0.1945
 1101TIP3    H124794   5.711   2.007  12.050 -0.6139  2.1867 -1.6297
 1101TIP3    H224795   5.752   2.038  11.908  2.1559 -1.6184 -1.8033
 1102TIP3   OH224796   3.003   6.118   1.463 -0.0680  0.2785 -0.2219
 1102TIP3    H124797   2.948   6.045   1.435 -0.2988  0.2805  0.2215
 1102TIP3    H224798   2.983   6.189   1.401  1.1590 -0.4384 -1.5154
 1103TIP3   OH224799   5.383   3.417   6.170  0.1873  0.6230 -0.5096
 1103TIP3    H124800   5.443   3.480   6.211 -0.2221  0.2388  0.7221
 1103TIP3    H224801   5.360   3.357   6.241  0.2872 -0.7166 -1.5767
 1104TIP3   OH224802   1.969   2.647  16.231 -0.7226 -0.6690 -0.1331
 1104TIP3    H124803   1.952   2.740  16.249 -1.6798 -1.0442  1.0202
 1104TIP3    H224804   2.000   2.646  16.141  0.6670  0.9171  0.2832
 1105TIP3   OH224805   1.424   3.255  15.864 -0.3557  0.4285  0.4839
 1105TIP3    H124806   1.345   3.243  15.812 -0.3954 -1.1938  0.8880
 1105TIP3    H224807   1.491   3.202  15.819  0.0242  0.3158  1.1653
 1106TIP3   OH224808   4.778   3.250  13.043 -0.1053  0.1597  0.1572
 1106TIP3    H124809   4.722   3.256  12.966  2.2224  1.5723 -1.5685
 1106TIP3    H224810   4.739   3.311  13.106 -0.6631  0.9004 -0.8832
 1107TIP3   OH224811   2.584   5.065  17.077  0.4415  0.4668 -0.3339
 1107TIP3    H124812   2.592   5.038  16.986  0.7616  1.3815 -0.5829
 1107TIP3    H224813   2.674   5.079  17.106  0.3456  0.1243  0.1411
 1108TIP3   OH224814   3.476   0.587   0.229 -0.8237  0.3337 -0.6726
 1108TIP3    H124815   3.551   0.628   0.271 -0.4954 -0.9191  0.0184
 1108TIP3    H224816   3.510   0.552   0.147 -1.3004  2.1343 -1.6970
 1109TIP3   OH224817   1.515   5.180  16.381 -0.1714 -0.1528  0.2207
 1109TIP3    H124818   1.564   5.233  16.445 -1.0712 -0.1488  0.9224
 1109TIP3    H224819   1.486   5.103  16.431 -0.9164 -0.1311 -0.1726
 1110TIP3   OH224820   5.642   5.138   0.849  1.0214  0.4293  0.2811
 1110TIP3    H124821   5.575   5.155   0.915  2.2823  0.9362  1.4783
 1110TIP3    H224822   5.705   5.081   0.893  2.4355  1.6436 -0.0809
 1111TIP3   OH224823   0.510   6.650  11.819  0.8353  0.0389 -0.0834
 1111TIP3    H124824   0.553   6.645  11.734 -0.2403  0.1981 -0.6450
 1111TIP3    H224825   0.497   6.559  11.845  0.8956 -0.0090 -0.2244
 1112TIP3   OH224826   5.674   2.482  15.252  0.0030  0.0899  0.4165
 1112TIP3    H124827   5.672   2.563  15.303 -1.4244 -0.1934  0.8581
 1112TIP3    H224828   5.601   2.431  15.286  0.2695 -0.9667 -0.5459
 1113TIP3   OH224829   4.879   0.162  10.896 -0.0758 -0.1549 -0.2011
 1113TIP3    H124830   4.942   0.171  10.825 -0.9576 -0.8097 -1.0931
 1113TIP3    H224831   4.849   0.251  10.914 -0.0696 -0.0180 -0.8596
 1114TIP3   OH224832   6.482   1.182  16.326  0.0777 -0.0252 -0.0651
 1114TIP3    H124833   6.467   1.199  16.233 -0.3970 -1.5594 -0.2981
 1114TIP3    H224834   6.423   1.110  16.347 -0.4837  0.8886  1.6699
 1115TIP3   OH224835   0.801   2.028   1.771  0.0674 -0.4727  0.6301
 1115TIP3    H124836   0.843   2.032   1.685 -2.6534 -0.2811 -0.8132
 1115TIP3    H224837   0.809   2.117   1.806 -0.7007  0.0449 -0.4571
 1116TIP3   OH224838   3.464   3.597  12.744 -0.2896 -0.0384  0.1307
 1116TIP3    H124839   3.528   3.532  12.716 -0.7068 -0.3934 -0.0260
 1116TIP3    H224840   3.490   3.678  12.701 -0.1871 -0.2771 -0.2642
 1117TIP3   OH224841   3.029   1.154   3.115  0.4581  0.0398 -0.3071
 1117TIP3    H124842   3.049   1.154   3.209 -1.5178  1.6139  0.1862
 1117TIP3    H224843   2.944   1.197   3.109 -0.2928 -1.5839 -2.6893
 1118TIP3   OH224844   1.676   1.970   6.380  0.0506  0.2679 -0.1146
 1118TIP3    H124845   1.662   2.045   6.321  0.4148  1.6933  1.5246
 1118TIP3    H224846   1.656   1.893   6.326  0.5040  1.4782 -2.1181
 1119TIP3   OH224847   1.996   3.197  13.568 -0.2554 -0.0428  0.5738
 1119TIP3    H124848   2.088   3.174  13.581  0.4819  0.6758 -2.4651
 1119TIP3    H224849   1.985   3.281  13.614  0.8634  0.2648  0.3142
 1120TIP3   OH224850   0.255   5.199  14.969 -0.0329  0.1040 -0.1630
 1120TIP3    H124851   0.267   5.181  15.062 -2.4131  0.2304  0.2432
 1120TIP3    H224852   0.232   5.114  14.931 -2.4341  0.5808  0.0670
 1121TIP3   OH224853   5.705   0.532   4.321 -0.4099  0.3056 -0.5263
 1121TIP3    H124854   5.721   0.514   4.228  0.9347  0.0342 -0.2557
 1121TIP3    H224855   5.771   0.481   4.367 -0.8140  0.7518  0.5711
 1122TIP3   OH224856   6.030   6.774   5.424 -0.8572 -0.4938  0.4180
 1122TIP3    H124857   6.050   6.698   5.478 -2.0351 -1.8919 -1.0126
 1122TIP3    H224858   6.101   6.778   5.360 -0.8193 -0.3921  0.4651
 1123TIP3   OH224859   0.054   0.727  13.295  0.0875 -0.3682  0.1091
 1123TIP3    H124860   0.129   0.684  13.255  0.1235 -2.2308  2.0184
 1123TIP3    H224861  -0.001   0.752  13.220  1.4898 -1.0363 -1.2157
 1124TIP3   OH224862   0.710   6.245   5.454 -0.3939  0.4121 -0.1760
 1124TIP3    H124863   0.681   6.285   5.535  0.4538 -1.4424  1.1008
 1124TIP3    H224864   0.725   6.153   5.476  2.4310  0.3777 -1.7288
 1125TIP3   OH224865   5.534   6.616   3.022  0.4935  0.2192  0.3662
 1125TIP3    H124866   5.622   6.578   3.022 -0.1831 -1.5080  2.0274
 1125TIP3    H224867   5.479   6.547   2.985 -0.7935 -0.6590  3.5987
 1126TIP3   OH224868   5.556   2.952   5.155  0.3483  0.4626 -0.3685
 1126TIP3    H124869   5.479   2.896   5.163 -0.0269  1.1103  0.7452
 1126TIP3    H224870   5.626   2.892   5.127  0.3716 -0.9587  2.3701
 1127TIP3   OH224871   4.316   0.040  16.148  0.5639 -0.6785 -0.5053
 1127TIP3    H124872   4.374   0.115  16.140 -0.7790  0.2764 -1.6576
 1127TIP3    H224873   4.299   0.013  16.058 -1.8942 -0.0163 -0.3022
 1128TIP3   OH224874   4.231   5.892  14.482 -0.0549 -0.1278 -0.2963
 1128TIP3    H124875   4.157   5.946  14.454 -0.9768 -1.3301 -0.2577
 1128TIP3    H224876   4.308   5.937  14.445 -0.7975  1.0504 -0.4834
 1129TIP3   OH224877   4.151   5.739   1.510 -0.1480  0.6908  0.6282
 1129TIP3    H124878   4.123   5.693   1.431  2.1745 -1.7868  1.0669
 1129TIP3    H224879   4.070   5.767   1.552 -1.7113 -1.7630 -0.4942
 1130TIP3   OH224880   1.161   2.823   0.415  0.7325  0.7297  0.7748
 1130TIP3    H124881   1.095   2.886   0.444  0.4408  0.0386  1.6205
 1130TIP3    H224882   1.233   2.878   0.383  0.4284  1.4896  1.3640
 1131TIP3   OH224883   0.456   6.383   1.938  0.1266  0.0100  0.8930
 1131TIP3    H124884   0.421   6.350   1.856  0.2088 -1.9508  1.5958
 1131TIP3    H224885   0.536   6.430   1.913  0.0594 -0.4017 -0.1470
 1132TIP3   OH224886   3.408   0.238   2.242  0.3151  0.0914  0.3903
 1132TIP3    H124887   3.380   0.256   2.153 -1.6472  0.3009  0.9941
 1132TIP3    H224888   3.431   0.145   2.242 -0.5340 -0.1309 -0.1389
 1133TIP3   OH224889   0.522   0.555  13.757 -0.3102  0.0146  0.4842
 1133TIP3    H124890   0.575   0.560  13.678 -1.0857  0.5979 -0.0171
 1133TIP3    H224891   0.446   0.503  13.732 -0.6077  0.2823  0.8172
 1134TIP3   OH224892   3.697   4.615   5.893 -0.2825  0.1888  0.3189
 1134TIP3    H124893   3.609   4.614   5.856 -0.0028 -1.9135 -0.4282
 1134TIP3    H224894   3.692   4.677   5.965 -2.4721 -0.1340  0.5258
 1135TIP3   OH224895   5.139   4.219   0.489  0.1249  0.0992 -0.7906
 1135TIP3    H124896   5.088   4.157   0.542  1.8157 -0.8952 -0.2443
 1135TIP3    H224897   5.176   4.166   0.419  0.7513  0.6930 -0.9243
 1136TIP3   OH224898   5.401   4.625  13.742  0.4085 -1.2470  0.4191
 1136TIP3    H124899   5.324   4.568  13.742 -0.7008  0.0571 -1.7841
 1136TIP3    H224900   5.467   4.577  13.692  0.5135 -1.7816  1.0698
 1137TIP3   OH224901   6.264   0.407  11.344 -0.0463  0.4193  0.3158
 1137TIP3    H124902   6.260   0.440  11.434 -0.9617 -1.3226  0.9507
 1137TIP3    H224903   6.192   0.452  11.300 -0.6011  0.1018  0.8796
 1138TIP3   OH224904   5.058   1.528  12.534 -0.3700  0.0830 -0.4477
 1138TIP3    H124905   5.000   1.602  12.518 -0.9457 -0.5591 -1.4105
 1138TIP3    H224906   5.062   1.520  12.629 -1.6969  0.2551 -0.3692
 1139TIP3   OH224907   4.714   0.042   3.860 -0.7687 -0.5142 -0.1266
 1139TIP3    H124908   4.659   0.103   3.812 -0.8239  0.5404  1.2397
 1139TIP3    H224909   4.675   0.036   3.947 -0.3526 -1.9540 -0.0029
 1140TIP3   OH224910   5.695   3.537  12.133  0.3512  0.0253  0.0345
 1140TIP3    H124911   5.665   3.596  12.064  1.4629  1.3607  0.6415
 1140TIP3    H224912   5.697   3.591  12.212  0.8466 -0.9832  0.7392
 1141TIP3   OH224913   0.365   5.268  13.512 -0.3049  0.5952  0.3743
 1141TIP3    H124914   0.342   5.340  13.453 -0.6028  0.2510  0.0619
 1141TIP3    H224915   0.328   5.294  13.597 -1.2817  0.3731  0.0370
 1142TIP3   OH224916   0.287   0.189   4.806  0.4337  0.0418  0.2113
 1142TIP3    H124917   0.358   0.249   4.783  0.3460 -0.4161 -1.3265
 1142TIP3    H224918   0.329   0.104   4.815  0.3305  0.0637  0.9908
 1143TIP3   OH224919   4.253   0.306   2.177 -0.4885 -0.0887  0.7523
 1143TIP3    H124920   4.222   0.296   2.087 -0.2013 -0.0983  0.6506
 1143TIP3    H224921   4.306   0.228   2.193 -0.5515 -0.0940  0.9355
 1144TIP3   OH224922   1.027   5.617  12.472 -0.1047  0.3835 -0.0560
 1144TIP3    H124923   0.952   5.627  12.413  2.0005 -1.5056 -3.3608
 1144TIP3    H224924   1.068   5.703  12.473 -1.6421  1.1728  1.0102
 1145TIP3   OH224925   0.898   0.790  16.145 -0.2502 -0.1903  0.2887
 1145TIP3    H124926   0.878   0.722  16.080 -0.2387  0.3592 -0.2922
 1145TIP3    H224927   0.975   0.756  16.191 -1.9249 -1.9377  1.9908
 1146TIP3   OH224928   5.624   1.418   1.419  0.0737 -0.4433  0.5515
 1146TIP3    H124929   5.637   1.511   1.438 -0.0637 -0.3720  0.2904
 1146TIP3    H224930   5.682   1.373   1.481  0.3518 -0.1778  0.4825
 1147TIP3   OH224931   5.687   1.548  14.668 -0.6215  0.0420 -0.7795
 1147TIP3    H124932   5.695   1.642  14.654  0.8435  0.2483  1.0130
 1147TIP3    H224933   5.594   1.535  14.689 -0.4323  1.4990  1.2864
 1148TIP3   OH224934   0.552   2.910   1.567  0.3229  0.5592 -0.0231
 1148TIP3    H124935   0.478   2.858   1.599  0.4380  0.7015  0.4807
 1148TIP3    H224936   0.604   2.929   1.645  1.3649 -0.2749 -0.4785
 1149TIP3   OH224937   3.627   6.629   0.663 -0.0307 -0.3539 -0.0201
 1149TIP3    H124938   3.608   6.622   0.757 -0.1652 -0.5471 -0.0601
 1149TIP3    H224939   3.580   6.555   0.624  0.0603 -0.2987 -0.2345
 1150TIP3   OH224940   3.982   1.222   5.020  0.0070 -0.3461  0.0361
 1150TIP3    H124941   4.045   1.170   5.070  1.1465 -0.2031 -1.1972
 1150TIP3    H224942   4.020   1.228   4.932 -2.5500 -1.7036 -1.2695
 1151TIP3   OH224943   0.994   4.646  16.838  0.3602  0.4333  0.7577
 1151TIP3    H124944   1.068   4.595  16.871  0.3149 -1.1796 -1.4275
 1151TIP3    H224945   1.001   4.640  16.743 -3.2160 -0.8277  0.4056
 1152TIP3   OH224946   0.102   0.874  16.724 -0.0471  0.6380 -1.1511
 1152TIP3    H124947   0.055   0.822  16.789 -0.4888  2.5692  0.1418
 1152TIP3    H224948   0.195   0.861  16.745 -0.1666  0.7251 -0.5703
 1153TIP3   OH224949   5.325   3.415  15.064  0.5160 -0.5796 -0.3003
 1153TIP3    H124950   5.417   3.404  15.043  0.2290 -1.5215 -1.1055
 1153TIP3    H224951   5.308   3.508  15.048  1.2601 -0.4512 -0.3813
 1154TIP3   OH224952   1.534   1.820  11.404 -0.3813  0.2235  0.0201
 1154TIP3    H124953   1.629   1.826  11.407 -0.3841  0.0766  0.5310
 1154TIP3    H224954   1.516   1.738  11.359 -0.2072 -1.6309  3.0664
 1155TIP3   OH224955   1.841   5.747   2.521 -0.3205  0.2475  0.0642
 1155TIP3    H124956   1.919   5.701   2.493  0.1796  1.4367 -0.5856
 1155TIP3    H224957   1.798   5.688   2.583  1.1951 -0.3426  0.5891
 1156TIP3   OH224958   0.356   3.427   4.019 -0.2667  0.6368 -0.8820
 1156TIP3    H124959   0.423   3.494   4.013 -0.0737  0.5888  0.5172
 1156TIP3    H224960   0.402   3.345   4.000  0.3539  0.4716  1.0972
 1157TIP3   OH224961   0.836   5.686   3.698  0.1260 -0.0652  0.3287
 1157TIP3    H124962   0.889   5.663   3.621  1.2746  0.2013  1.0211
 1157TIP3    H224963   0.795   5.769   3.676  0.8321  0.2465  0.1899
 1158TIP3   OH224964   0.128   1.748  15.056  0.0250  0.0720 -0.6418
 1158TIP3    H124965   0.131   1.696  15.136  0.2693  1.3487  0.1987
 1158TIP3    H224966   0.040   1.786  15.055 -0.5113 -1.1004 -1.7754
 1159TIP3   OH224967   0.252   0.961   1.032 -0.6402  0.0304  0.0495
 1159TIP3    H124968   0.328   0.903   1.038 -0.9629 -0.3902  0.1534
 1159TIP3    H224969   0.288   1.049   1.036 -0.0607 -0.1465 -0.9276
 1160TIP3   OH224970   0.920   2.785  11.474  0.2789 -0.4593 -0.3637
 1160TIP3    H124971   0.965   2.821  11.550 -1.6802 -0.9582  1.0919
 1160TIP3    H224972   0.979   2.717  11.441  1.6562  0.5207 -0.0045
 1161TIP3   OH224973   0.546   1.292  10.692 -0.0712 -0.5939 -0.6751
 1161TIP3    H124974   0.517   1.291  10.601  2.0181  2.2778 -1.4900
 1161TIP3    H224975   0.636   1.261  10.689  0.9036  1.9429 -0.0546
 1162TIP3   OH224976   4.178   0.093  11.009 -0.5147  0.5130 -0.5206
 1162TIP3    H124977   4.128   0.136  10.940 -0.3798  1.6897  0.0855
 1162TIP3    H224978   4.137   0.008  11.020 -1.5507  0.9455 -0.9469
 1163TIP3   OH224979   3.523   1.140   5.630 -0.0256 -0.5303  0.4535
 1163TIP3    H124980   3.471   1.083   5.573  0.4451 -0.3364 -0.1809
 1163TIP3    H224981   3.489   1.124   5.718 -0.4232 -1.2130  0.1801
 1164TIP3   OH224982   2.980   1.338  12.012 -0.1655  0.5794 -0.1373
 1164TIP3    H124983   2.918   1.371  11.946  0.7256  0.5800 -1.0072
 1164TIP3    H224984   2.951   1.249  12.031  1.3775 -0.6889 -3.0121
 1165TIP3   OH224985   2.909   0.986  14.551 -0.1498  0.0592  0.0162
 1165TIP3    H124986   2.960   1.034  14.485 -1.2042  1.4335  0.1444
 1165TIP3    H224987   2.860   0.921  14.501  0.0150  0.2562 -0.4078
 1166TIP3   OH224988   5.704   0.769   4.920 -0.5871 -0.3517 -0.0601
 1166TIP3    H124989   5.690   0.686   4.967  0.0989 -1.4854 -1.7753
 1166TIP3    H224990   5.707   0.835   4.989 -1.5550 -1.6899  1.3358
 1167TIP3   OH224991   6.438   1.702   5.712  0.3734  0.2211  0.3819
 1167TIP3    H124992   6.378   1.663   5.776 -0.9629  1.1917 -0.2316
 1167TIP3    H224993   6.384   1.763   5.662  0.9387 -1.5988 -2.7208
 1168TIP3   OH224994   5.002   5.068  16.877  1.0236 -0.4172  0.3558
 1168TIP3    H124995   5.093   5.045  16.857  0.0604 -1.9873 -2.7709
 1168TIP3    H224996   4.995   5.161  16.854  1.4594 -0.7066 -1.0094
 1169TIP3   OH224997   4.488   4.251  13.827 -0.3231  0.1776  0.2639
 1169TIP3    H124998   4.553   4.209  13.884 -1.0700 -1.7547 -0.2374
 1169TIP3    H224999   4.484   4.342  13.858  0.8674 -0.2725  1.8516
 1170TIP3   OH225000   3.705   4.874  13.509 -0.0346 -0.4048 -0.4920
 1170TIP3    H125001   3.654   4.942  13.464  0.0708 -0.6230 -0.9539
 1170TIP3    H225002   3.759   4.922  13.571 -2.0167 -0.2857  1.2636
 1171TIP3   OH225003   0.921   2.034   2.886  0.1868 -0.0753  0.0519
 1171TIP3    H125004   0.964   2.037   2.972 -0.6285  1.2996  0.4519
 1171TIP3    H225005   0.992   2.022   2.824  1.0126  0.7043  0.8096
 1172TIP3   OH225006   6.801   2.716  11.195  0.0459 -0.3129 -0.7286
 1172TIP3    H125007   6.784   2.660  11.119 -1.6670  0.3452 -0.8681
 1172TIP3    H225008   6.793   2.805  11.162 -1.8618 -0.0056  0.4060
 1173TIP3   OH225009   3.983   1.231  15.948 -0.0388  0.1033 -0.2572
 1173TIP3    H125010   3.940   1.211  16.031  1.0763 -2.1162 -0.1495
 1173TIP3    H225011   3.991   1.147  15.904  0.8792  1.0043 -1.9057
 1174TIP3   OH225012   2.750   3.392   1.582 -0.2839 -0.3680 -0.1327
 1174TIP3    H125013   2.707   3.477   1.596  0.2482 -0.1685  0.3067
 1174TIP3    H225014   2.844   3.411   1.588 -0.1597 -0.9795 -0.1029
 1175TIP3   OH225015   3.681   5.759  12.162  0.5252 -0.3373 -0.2971
 1175TIP3    H125016   3.608   5.811  12.195 -0.1100 -1.2599 -0.1967
 1175TIP3    H225017   3.698   5.794  12.075 -2.0349 -1.9843 -1.5825
 1176TIP3   OH225018   4.106   0.364  11.506  0.1408  0.0377 -0.2534
 1176TIP3    H125019   4.111   0.366  11.410  1.9950  1.4422 -0.1909
 1176TIP3    H225020   4.188   0.321  11.533 -0.0695  0.2173  0.7069
 1177TIP3   OH225021   2.725   6.157   0.066 -0.0042  0.0150 -0.5191
 1177TIP3    H125022   2.672   6.198  -0.002 -1.4329 -1.5684 -0.4358
 1177TIP3    H225023   2.730   6.223   0.135 -1.5080  0.4055 -0.7347
 1178TIP3   OH225024   3.604   5.248  11.060  0.4681 -0.0384  0.3294
 1178TIP3    H125025   3.650   5.299  10.993  0.4108 -0.3403  0.0595
 1178TIP3    H225026   3.620   5.157  11.036 -0.3432 -0.1442  0.1812
 1179TIP3   OH225027   2.020   1.949   2.418  0.5080  0.4398  0.0047
 1179TIP3    H125028   1.930   1.970   2.395  0.5119  0.1924 -0.2368
 1179TIP3    H225029   2.013   1.903   2.502  0.3014 -0.6790 -0.6087
 1180TIP3   OH225030   6.430   1.643  15.728 -0.2346 -0.3652 -0.1622
 1180TIP3    H125031   6.418   1.733  15.699 -3.4945 -1.4800 -2.9835
 1180TIP3    H225032   6.367   1.632  15.799 -1.7456 -1.0201 -1.5574
 1181TIP3   OH225033   4.542   0.720   4.438  0.5909 -0.1903 -0.3372
 1181TIP3    H125034   4.610   0.684   4.380 -2.0962 -2.4309 -2.3944
 1181TIP3    H225035   4.520   0.648   4.496 -2.1522 -0.7279 -1.8768
 1182TIP3   OH225036   0.745   5.957   6.183  0.5085  0.3518 -0.3577
 1182TIP3    H125037   0.810   6.003   6.131 -0.2732  0.9764 -0.8155
 1182TIP3    H225038   0.771   5.972   6.274  0.2970  1.7028 -0.4929
 1183TIP3   OH225039   4.444   0.219   6.278 -0.7955  0.3744  0.2070
 1183TIP3    H125040   4.428   0.190   6.188 -1.5176  0.9311  0.1508
 1183TIP3    H225041   4.536   0.245   6.279 -0.4943 -0.6122 -0.0957
 1184TIP3   OH225042   5.937   4.425   5.482  0.2516 -0.4397 -0.2561
 1184TIP3    H125043   5.893   4.413   5.566 -0.0529 -0.9869 -0.4840
 1184TIP3    H225044   5.878   4.480   5.431  0.2601 -0.4160 -0.2401
 1185TIP3   OH225045   3.141   4.324   6.081  0.2426  0.4103 -0.2775
 1185TIP3    H125046   3.127   4.352   6.171 -1.7442 -0.7741 -0.1525
 1185TIP3    H225047   3.215   4.262   6.087  0.6633  0.9621  0.3882
 1186TIP3   OH225048   0.838   0.988   6.399 -0.2825  0.1864  0.3025
 1186TIP3    H125049   0.792   0.940   6.468  0.5579  0.1108  0.8256
 1186TIP3    H225050   0.773   1.051   6.367 -0.7952 -0.0118  0.9248
 1187TIP3   OH225051   5.661   0.464   9.988 -0.1093  0.4003 -0.1106
 1187TIP3    H125052   5.657   0.473  10.083 -1.7343 -0.3642 -0.0777
 1187TIP3    H225053   5.738   0.410   9.972  0.5348  1.0398  0.7069
 1188TIP3   OH225054   4.903   5.572  12.996 -0.0442  0.5247  0.6547
 1188TIP3    H125055   4.878   5.580  12.904 -1.6278 -1.2860  0.8770
 1188TIP3    H225056   4.977   5.511  12.995 -0.1553  0.3895  0.5867
 1189TIP3   OH225057   6.118   6.501   4.118 -0.1094 -0.1399  0.6520
 1189TIP3    H125058   6.064   6.567   4.076 -1.3713 -0.1606  2.1252
 1189TIP3    H225059   6.164   6.548   4.188  1.5787 -0.1877 -0.3757
 1190TIP3   OH225060   3.397   4.266   0.606 -0.1881 -0.1515  0.2886
 1190TIP3    H125061   3.399   4.327   0.680 -1.2482  0.4005 -0.1084
 1190TIP3    H225062   3.476   4.287   0.556  0.0735  0.0785  0.7891
 1191TIP3   OH225063   2.175   4.540  10.535 -0.1534  0.2354  0.5536
 1191TIP3    H125064   2.132   4.504  10.457 -0.6402 -0.0243  0.9406
 1191TIP3    H225065   2.221   4.466  10.574 -0.1017  0.3135  0.6410
 1192TIP3   OH225066   4.319   0.624  14.484  0.0846  0.1721 -0.0418
 1192TIP3    H125067   4.352   0.583  14.565 -0.0552  1.9294  0.9619
 1192TIP3    H225068   4.387   0.608  14.419  1.2393  0.6007  1.0276
 1193TIP3   OH225069   4.574   3.760  14.879  0.5124  0.4256 -0.0468
 1193TIP3    H125070   4.567   3.700  14.805  1.1534  0.8658 -0.4836
 1193TIP3    H225071   4.492   3.809  14.878  1.2005  1.6508 -1.5822
 1194TIP3   OH225072   3.933   4.651   5.728 -0.3760  1.0078 -0.5720
 1194TIP3    H125073   4.001   4.645   5.794 -0.5715  2.2207 -0.2453
 1194TIP3    H225074   3.852   4.629   5.775 -0.2939  0.0665 -0.8445
 1195TIP3   OH225075   0.590   2.249   2.006  0.8181 -0.5407 -0.1329
 1195TIP3    H125076   0.616   2.328   2.053 -0.3590 -0.1543 -0.0904
 1195TIP3    H225077   0.620   2.176   2.061 -0.4470 -0.0995  1.1908
 1196TIP3   OH225078   0.294   1.586   3.235 -0.4555 -0.6539  0.7113
 1196TIP3    H125079   0.218   1.584   3.293  1.2335  1.0251  3.1903
 1196TIP3    H225080   0.302   1.678   3.210  0.3219 -0.9425 -0.1271
 1197TIP3   OH225081   4.622   0.935  11.607  0.0905 -0.3663  0.4994
 1197TIP3    H125082   4.680   0.951  11.681 -0.7836  0.4367  1.0339
 1197TIP3    H225083   4.681   0.911  11.536  1.0304 -0.1596  1.1791
 1198TIP3   OH225084   3.935   1.425  14.411  0.0165  0.6376 -0.1120
 1198TIP3    H125085   3.923   1.513  14.375  0.8145  0.3732 -1.0748
 1198TIP3    H225086   4.017   1.394  14.372 -0.6080 -0.8084 -0.3521
 1199TIP3   OH225087   1.859   4.276  15.906  0.7293  0.2781 -0.6910
 1199TIP3    H125088   1.922   4.299  15.973  1.5899 -3.2641 -0.0613
 1199TIP3    H225089   1.774   4.304  15.941  1.4817  1.1775  0.4593
 1200TIP3   OH225090   6.494   0.454  12.521  0.0137  0.0078 -0.5208
 1200TIP3    H125091   6.582   0.473  12.552  0.6980  0.0779 -2.3623
 1200TIP3    H225092   6.454   0.540  12.509 -1.1141 -0.0338  2.2997
 1201TIP3   OH225093   3.117   0.467  17.056 -0.0245  0.6442 -0.0388
 1201TIP3    H125094   3.174   0.440  16.984  0.5124  1.5116  0.0481
 1201TIP3    H225095   3.062   0.390  17.074  0.8228 -0.0559 -0.4050
 1202TIP3   OH225096   1.909   2.251  13.351  1.1270  0.7780 -0.0833
 1202TIP3    H125097   1.857   2.323  13.388 -2.0294 -0.4875 -1.6790
 1202TIP3    H225098   1.912   2.270  13.257 -1.0606 -1.7362 -0.7963
 1203TIP3   OH225099   1.534   6.470   5.746  0.2137 -0.6394  0.3119
 1203TIP3    H125100   1.586   6.426   5.813  1.5858  0.0480 -0.2447
 1203TIP3    H225101   1.597   6.489   5.676 -0.6994  0.6384 -0.2063
 1204TIP3   OH225102   3.499   0.902  12.430  0.1504 -0.1304  0.7156
 1204TIP3    H125103   3.412   0.881  12.396 -0.0172  0.8111  0.5233
 1204TIP3    H225104   3.487   0.912  12.524  0.2081 -0.7403  0.7916
 1205TIP3   OH225105   5.771   5.224   5.389 -0.5765  0.2161  0.0990
 1205TIP3    H125106   5.787   5.167   5.314 -2.1402 -0.3972  0.2111
 1205TIP3    H225107   5.680   5.208   5.414  0.2242 -0.5879  2.9416
 1206TIP3   OH225108   2.528   1.528   2.648  0.0744  0.7988  0.3183
 1206TIP3    H125109   2.532   1.512   2.554 -1.6335  0.2336  0.3081
 1206TIP3    H225110   2.618   1.517   2.678  0.1176 -2.8308 -0.6482
 1207TIP3   OH225111   3.620   0.910   6.849 -0.3204 -0.6839 -0.1969
 1207TIP3    H125112   3.677   0.976   6.889 -3.9365  1.7442  1.4308
 1207TIP3    H225113   3.637   0.917   6.755  3.3239 -1.5126  0.2526
 1208TIP3   OH225114   4.181   2.628  15.866  0.5020 -0.0581  0.5560
 1208TIP3    H125115   4.095   2.602  15.900  0.3147  1.1859  1.0856
 1208TIP3    H225116   4.236   2.551  15.881 -0.4190 -0.7512  0.5450
 1209TIP3   OH225117   3.874   4.886   2.384 -0.1485  0.3336 -0.0445
 1209TIP3    H125118   3.964   4.878   2.353 -0.7024 -1.0220 -1.4802
 1209TIP3    H225119   3.879   4.943   2.460  1.7828  1.0748 -0.6780
 1210TIP3   OH225120   3.649   0.609   3.246 -0.0796  0.0260  0.4366
 1210TIP3    H125121   3.728   0.572   3.285  0.6411  0.3097 -0.6971
 1210TIP3    H225122   3.665   0.703   3.243 -1.3841  0.3570  2.1649
 1211TIP3   OH225123   1.847   5.986  15.991 -0.2955 -0.2530 -0.2989
 1211TIP3    H125124   1.765   6.002  15.945 -0.9884 -0.9020  0.6635
 1211TIP3    H225125   1.820   5.944  16.073  0.9569  0.1213  0.3217
 1212TIP3   OH225126   4.660   4.227  11.378  0.1089 -0.1189 -0.1714
 1212TIP3    H125127   4.692   4.142  11.409 -3.4405 -1.8169 -0.6638
 1212TIP3    H225128   4.703   4.239  11.294 -0.0259 -1.9659 -0.5444
 1213TIP3   OH225129   5.325   5.479  11.542 -0.2467 -0.5326 -0.3801
 1213TIP3    H125130   5.409   5.497  11.501  0.7090 -0.3115  1.5869
 1213TIP3    H225131   5.277   5.562  11.534  0.1839 -0.2845 -0.4421
 1214TIP3   OH225132   5.612   6.684   0.150  0.1055  0.0246  0.3241
 1214TIP3    H125133   5.519   6.661   0.159  0.6484 -1.4954  3.4992
 1214TIP3    H225134   5.631   6.737   0.228  1.9028  0.3662 -0.3018
 1215TIP3   OH225135   3.863   0.136   5.186  0.0389 -0.1603  0.7018
 1215TIP3    H125136   3.810   0.174   5.256 -1.3874 -0.5341 -0.1214
 1215TIP3    H225137   3.841   0.042   5.189 -2.6686  0.1931 -2.2439
 1216TIP3   OH225138   0.077   6.368   5.956 -0.1327 -0.1517 -0.6123
 1216TIP3    H125139   0.127   6.420   6.019 -0.2876 -0.1937 -0.4553
 1216TIP3    H225140   0.102   6.403   5.871  0.0255 -0.0500 -0.5228
 1217TIP3   OH225141   4.411   4.895   1.018  0.2131 -0.1982 -0.6386
 1217TIP3    H125142   4.354   4.957   1.064  0.7404 -1.6069  2.1357
 1217TIP3    H225143   4.389   4.810   1.056  1.4705 -1.3454 -2.3106
 1218TIP3   OH225144   2.902   0.313  17.189 -0.0317 -0.7438 -0.2568
 1218TIP3    H125145   2.837   0.377  17.158 -0.2578 -1.7352 -1.9024
 1218TIP3    H225146   2.902   0.325  17.284 -0.9122  0.8935 -0.4137
 1219TIP3   OH225147   2.361   0.862  14.490 -0.0518 -0.0789  0.1283
 1219TIP3    H125148   2.418   0.875  14.414 -0.0334 -1.9382 -0.2414
 1219TIP3    H225149   2.403   0.790  14.539  0.0628  1.2301  2.0584
 1220TIP3   OH225150   6.373   3.766  13.509 -0.4803 -0.3630  0.0869
 1220TIP3    H125151   6.357   3.739  13.418  2.1055  0.0263 -0.5680
 1220TIP3    H225152   6.369   3.861  13.506  0.4835 -0.3046  0.1398
 1221TIP3   OH225153   5.641   1.802  14.724 -0.5070  0.1277 -0.1222
 1221TIP3    H125154   5.563   1.858  14.736  0.2580  1.2854 -0.4087
 1221TIP3    H225155   5.705   1.837  14.786  0.6285  0.7972 -1.6150
 1222TIP3   OH225156   4.993   1.955   5.576 -0.1047  0.0011 -0.5860
 1222TIP3    H125157   5.079   1.996   5.579  0.5018 -1.2293  3.3624
 1222TIP3    H225158   4.939   2.007   5.636 -0.5782 -2.2010  1.0025
 1223TIP3   OH225159   6.452   5.634  13.696  0.2655 -0.9464 -0.5636
 1223TIP3    H125160   6.390   5.575  13.654 -0.6191 -0.3175 -0.1798
 1223TIP3    H225161   6.533   5.583  13.703 -0.3742 -1.9970 -0.5368
 1224TIP3   OH225162   2.288   3.053   1.044 -0.5542 -0.0248  0.0322
 1224TIP3    H125163   2.270   3.044   0.951  1.4349  0.4962 -0.4463
 1224TIP3    H225164   2.348   2.981   1.064 -0.7187  0.0505  0.8553
 1225TIP3   OH225165   2.742   1.593  12.253 -0.4728 -0.2225  0.1595
 1225TIP3    H125166   2.762   1.600  12.347  0.6688 -0.6405 -0.0362
 1225TIP3    H225167   2.671   1.529  12.248 -0.0134 -0.7822  0.6816
 1226TIP3   OH225168   6.015   2.635  10.608  0.2530  0.1901  0.0685
 1226TIP3    H125169   6.072   2.569  10.570  0.0269 -0.5208  0.9522
 1226TIP3    H225170   6.066   2.675  10.678 -0.2851 -0.3713  0.7896
 1227TIP3   OH225171   2.307   2.842  15.545  0.1549 -0.2645 -0.2403
 1227TIP3    H125172   2.252   2.764  15.538 -0.4120  0.2062 -1.2646
 1227TIP3    H225173   2.248   2.915  15.528  0.6156  0.4288  1.0458
 1228TIP3   OH225174   5.193   5.237  11.448 -0.3699  0.0545 -0.2970
 1228TIP3    H125175   5.232   5.314  11.489  0.1623  0.2333 -1.1044
 1228TIP3    H225176   5.235   5.232  11.362  0.1977 -1.5744  0.0264
 1229TIP3   OH225177   3.418   4.167  16.173  0.4727 -0.1926 -0.6725
 1229TIP3    H125178   3.334   4.201  16.205 -0.0097  0.8283 -2.8150
 1229TIP3    H225179   3.482   4.199  16.236 -0.4214  1.6728 -0.6357
 1230TIP3   OH225180   4.541   1.454   4.069  0.0902 -1.0658 -0.0288
 1230TIP3    H125181   4.597   1.507   4.127 -1.8779  0.2076  0.8106
 1230TIP3    H225182   4.475   1.417   4.128 -2.0825  0.4106 -1.4253
 1231TIP3   OH225183   2.435   4.107   1.087 -0.0259 -0.2017 -0.1327
 1231TIP3    H125184   2.426   4.186   1.140 -0.9313 -0.0565 -0.4734
 1231TIP3    H225185   2.458   4.140   1.000  3.3564 -0.5238  0.5139
 1232TIP3   OH225186   4.632   0.119  16.492  0.5774 -0.3004 -0.8716
 1232TIP3    H125187   4.728   0.121  16.484  0.5955 -0.9679 -0.8798
 1232TIP3    H225188   4.607   0.035  16.455  0.1188 -0.8129  0.5376
 1233TIP3   OH225189   5.524   5.844   0.820 -0.1744 -0.0238 -0.1575
 1233TIP3    H125190   5.614   5.855   0.790 -0.3177  0.2989 -0.4791
 1233TIP3    H225191   5.487   5.932   0.820 -0.0336  0.0634  1.4990
 1234TIP3   OH225192   1.609   3.364   0.030  0.5672  0.3900 -0.0167
 1234TIP3    H125193   1.513   3.356   0.032  0.6182 -1.3987 -1.8211
 1234TIP3    H225194   1.639   3.307   0.101  0.3176 -0.9675 -0.9554
 1235TIP3   OH225195   3.351   0.675   5.003 -0.2544  1.0610 -0.1489
 1235TIP3    H125196   3.423   0.733   4.975  0.6854  0.2939  0.6128
 1235TIP3    H225197   3.278   0.735   5.019  0.7498  2.0850  0.8161
 1236TIP3   OH225198   2.279   4.936  11.967 -0.3103  0.2678  0.2985
 1236TIP3    H125199   2.330   4.897  11.896 -0.7710 -0.0785  0.1513
 1236TIP3    H225200   2.340   4.995  12.011  0.2334 -0.1899  0.1705
 1237TIP3   OH225201   3.149   6.564   6.199  0.2091 -0.2760 -0.1245
 1237TIP3    H125202   3.213   6.499   6.171  0.4302 -0.0714 -0.0949
 1237TIP3    H225203   3.065   6.529   6.169  0.0620 -1.5705  1.6687
 1238TIP3   OH225204   4.888   4.889   0.856 -0.3384 -0.5681  0.0969
 1238TIP3    H125205   4.947   4.821   0.886 -0.2307 -0.4115  0.2395
 1238TIP3    H225206   4.862   4.936   0.935  0.2892  0.1222 -0.0998
 1239TIP3   OH225207   0.351   4.671   2.448 -0.4630  0.1066  0.4820
 1239TIP3    H125208   0.362   4.629   2.362  0.7171 -0.7834  1.0327
 1239TIP3    H225209   0.295   4.746   2.431  0.0010  0.1313 -1.1370
 1240TIP3   OH225210   6.095   0.919   0.283  0.5282 -0.3252  0.2541
 1240TIP3    H125211   6.072   0.994   0.338  0.4983 -0.1103 -0.0452
 1240TIP3    H225212   6.103   0.956   0.195  3.5178 -0.0612  0.5392
 1241TIP3   OH225213   5.031   2.430   1.254  0.1776 -0.0076  0.2897
 1241TIP3    H125214   5.106   2.482   1.284  0.3240  0.8726 -1.4812
 1241TIP3    H225215   4.960   2.455   1.313  0.7181  0.8295  0.6114
 1242TIP3   OH225216   6.071   5.519   1.682 -0.9164 -0.3837  0.0656
 1242TIP3    H125217   6.123   5.584   1.635  0.4253  1.1711  3.3672
 1242TIP3    H225218   5.984   5.560   1.691 -0.3967  0.5241  1.1756
 1243TIP3   OH225219   2.438   6.640   0.851  0.5564 -0.0768  0.1054
 1243TIP3    H125220   2.480   6.584   0.786 -0.8185 -1.5933  0.4433
 1243TIP3    H225221   2.346   6.643   0.824  0.1981  0.2589  1.2889
 1244TIP3   OH225222   5.434   4.265  13.951 -0.4528  0.3013  0.0361
 1244TIP3    H125223   5.487   4.187  13.937  0.0768  0.7069 -0.2583
 1244TIP3    H225224   5.487   4.337  13.917 -0.6768  0.8644  0.8270
 1245TIP3   OH225225   0.412   3.867   5.215  0.0769 -0.1185  0.6856
 1245TIP3    H125226   0.325   3.904   5.204 -0.1673 -0.9958 -0.5552
 1245TIP3    H225227   0.444   3.903   5.298 -1.8301 -0.5053  1.6285
 1246TIP3   OH225228   3.823   1.532   5.167  0.0399 -0.6723 -0.0108
 1246TIP3    H125229   3.749   1.567   5.118 -0.2551 -1.2772 -0.0031
 1246TIP3    H225230   3.899   1.549   5.110  0.5257  3.1311  1.4180
 1247TIP3   OH225231   2.334   2.110   2.699  0.0366 -0.1004 -0.2678
 1247TIP3    H125232   2.423   2.122   2.668  1.1860 -2.7904  1.5876
 1247TIP3    H225233   2.319   2.185   2.757 -0.2157  2.0918 -2.9568
 1248TIP3   OH225234   2.214   2.364   1.809  0.0494  0.6472 -0.3113
 1248TIP3    H125235   2.156   2.363   1.733 -0.7054  1.2611  0.2474
 1248TIP3    H225236   2.291   2.414   1.780  0.1674  0.1039 -0.9490
 1249TIP3   OH225237   2.614   3.199  15.674 -0.1293 -0.2631 -0.3543
 1249TIP3    H125238   2.584   3.286  15.649  3.4752  0.5209 -2.7444
 1249TIP3    H225239   2.601   3.146  15.595  2.7981 -0.2932 -0.9260
 1250TIP3   OH225240   2.517   5.418   1.596 -0.6589  0.1015  0.1758
 1250TIP3    H125241   2.524   5.325   1.575  0.4975  0.2974 -0.4124
 1250TIP3    H225242   2.425   5.432   1.616 -0.7200 -1.3168  0.9753
 1251TIP3   OH225243   4.243   1.751  16.432 -0.1280 -0.2410 -0.3499
 1251TIP3    H125244   4.206   1.835  16.404  1.6674  0.8951  0.5400
 1251TIP3    H225245   4.166   1.700  16.461 -1.0340  2.3633  2.3375
 1252TIP3   OH225246   1.501   3.664  15.282  0.3555 -0.1297 -0.5166
 1252TIP3    H125247   1.467   3.654  15.370  0.0116  2.3724 -0.2925
 1252TIP3    H225248   1.557   3.587  15.268 -1.9907 -2.1813  0.6622
 1253TIP3   OH225249   3.095   5.559  14.766  0.5673  0.3356 -0.0036
 1253TIP3    H125250   3.174   5.518  14.730  0.6002 -1.3803  1.8530
 1253TIP3    H225251   3.025   5.533  14.706  0.5941 -2.5411  1.0577
 1254TIP3   OH225252   0.058   3.684  15.483  0.3554  0.3153 -0.2217
 1254TIP3    H125253   0.099   3.619  15.540 -2.2880 -0.8601  0.5114
 1254TIP3    H225254   0.090   3.768  15.516  0.9432 -0.4613  1.2878
 1255TIP3   OH225255   1.432   3.801  15.065 -0.2360  0.4787  0.3480
 1255TIP3    H125256   1.374   3.861  15.111  0.3058  0.8958  0.5026
 1255TIP3    H225257   1.450   3.731  15.129 -3.0000 -1.3635 -0.6660
 1256TIP3   OH225258   5.015   2.474  11.211  0.6387 -0.6394  0.0916
 1256TIP3    H125259   5.089   2.499  11.155 -1.6276  0.6097 -2.6345
 1256TIP3    H225260   4.959   2.421  11.153 -1.2433 -0.3823  1.5940
 1257TIP3   OH225261   1.156   1.987   2.722  0.2340 -0.2564  0.1105
 1257TIP3    H125262   1.176   1.896   2.699 -0.3320 -0.9808  2.2631
 1257TIP3    H225263   1.237   2.020   2.760  0.6755  0.4297 -1.3457
 1258TIP3   OH225264   3.264   1.167  16.525  0.1727 -0.0014  0.8814
 1258TIP3    H125265   3.268   1.091  16.583  1.1325  0.4027  1.3812
 1258TIP3    H225266   3.356   1.192  16.513 -0.1258  1.0401  0.6812
 1259TIP3   OH225267   3.954   6.771  13.646 -0.0672 -0.2115  0.6299
 1259TIP3    H125268   3.883   6.766  13.582  1.4330 -0.1438 -1.1428
 1259TIP3    H225269   3.976   6.679  13.664  0.4359 -0.2429 -0.0871
 1260TIP3   OH225270   6.010   4.075  11.920  0.3028 -0.7475 -0.0627
 1260TIP3    H125271   6.098   4.074  11.882  0.5289  3.8175 -0.2067
 1260TIP3    H225272   5.952   4.101  11.848 -0.4449  0.4872  0.9375
 1261TIP3   OH225273   2.433   6.814  15.532 -0.3254  0.4430 -0.0287
 1261TIP3    H125274   2.413   6.906  15.551 -2.7315 -0.2730  1.2774
 1261TIP3    H225275   2.422   6.807  15.437  1.5712  1.8207 -0.4115
 1262TIP3   OH225276   6.770   3.958  13.461 -0.1140 -0.5150 -0.8147
 1262TIP3    H125277   6.831   3.902  13.509 -0.5547 -0.0265  0.3537
 1262TIP3    H225278   6.826   4.022  13.418  0.2533 -0.3917 -0.1783
 1263TIP3   OH225279   2.233   3.147  16.428  0.6189  0.2865  0.6883
 1263TIP3    H125280   2.231   3.129  16.334 -1.8094  2.2444  0.2711
 1263TIP3    H225281   2.141   3.140  16.456  1.4368 -1.8382  3.3171
 1264TIP3   OH225282   3.377   5.283   0.984 -0.2288  0.5833 -0.0627
 1264TIP3    H125283   3.401   5.375   0.995 -0.6684  0.6888  0.0493
 1264TIP3    H225284   3.316   5.265   1.056 -0.6033  0.3694 -0.4300
 1265TIP3   OH225285   5.339   0.319   3.762 -0.4395 -0.1946  0.1894
 1265TIP3    H125286   5.316   0.251   3.825  0.1222  0.9714  1.7141
 1265TIP3    H225287   5.387   0.384   3.813 -2.2632  2.1175 -0.8050
 1266TIP3   OH225288   5.779   2.639   0.678 -0.6736 -0.1160  0.3255
 1266TIP3    H125289   5.716   2.569   0.659 -0.0243 -0.2477 -1.4434
 1266TIP3    H225290   5.848   2.596   0.728  0.0110 -0.9064 -1.2490
 1267TIP3   OH225291   5.802   4.195   5.661 -0.1482 -0.2217 -0.4417
 1267TIP3    H125292   5.880   4.242   5.633 -0.6154  0.2738 -0.9287
 1267TIP3    H225293   5.808   4.110   5.617  1.1114 -0.9793  1.0737
 1268TIP3   OH225294   5.308   3.819   3.462 -0.6030  0.6037  0.5076
 1268TIP3    H125295   5.218   3.811   3.490 -0.4265 -0.1815  0.8590
 1268TIP3    H225296   5.326   3.913   3.465 -1.6695  0.8584 -0.4261
 1269TIP3   OH225297   3.657   5.711   3.249 -0.7158  0.2757  0.6614
 1269TIP3    H125298   3.613   5.703   3.334 -2.0630  2.6022  0.2652
 1269TIP3    H225299   3.723   5.780   3.262 -0.4567  0.1624  0.0081
 1270TIP3   OH225300   5.764   0.007   1.233 -0.3547 -0.7405  0.2506
 1270TIP3    H125301   5.826   0.029   1.302  0.5105 -0.6337 -0.5511
 1270TIP3    H225302   5.727  -0.077   1.260  2.4422 -2.4074 -0.7702
 1271TIP3   OH225303   1.891   1.912   6.166 -0.4813  0.4166 -0.3677
 1271TIP3    H125304   1.841   1.832   6.186 -1.5145  1.2657  0.5547
 1271TIP3    H225305   1.949   1.886   6.095 -2.6047 -0.4867 -1.8832
 1272TIP3   OH225306   2.545   3.655  12.297 -0.0507 -0.2369 -0.3687
 1272TIP3    H125307   2.572   3.628  12.209  0.4769  1.2564 -0.6914
 1272TIP3    H225308   2.511   3.744  12.285 -2.7106 -1.0436  0.4615
 1273TIP3   OH225309   2.863   3.681   1.889 -0.6600 -0.1880 -0.6411
 1273TIP3    H125310   2.833   3.644   1.972 -0.1623 -0.4025 -0.5535
 1273TIP3    H225311   2.784   3.717   1.849 -1.1078 -1.1259 -0.6129
 1274TIP3   OH225312   2.692   5.482  13.241  0.0336  0.1928 -0.1336
 1274TIP3    H125313   2.671   5.515  13.154 -0.7942 -0.0082 -0.0241
 1274TIP3    H225314   2.787   5.485  13.246  0.0787  0.3923 -0.9714
 1275TIP3   OH225315   5.827   4.945   0.976 -0.6105 -0.8310 -0.8270
 1275TIP3    H125316   5.871   4.900   0.904  1.8142  0.8279 -0.5200
 1275TIP3    H225317   5.897   4.964   1.039 -1.9990  0.9063  0.3128
 1276TIP3   OH225318   4.117   2.513   4.446 -0.2490  0.9429 -0.2462
 1276TIP3    H125319   4.147   2.547   4.530 -0.5727  2.4641 -0.7121
 1276TIP3    H225320   4.198   2.488   4.401 -0.0884 -0.0645  0.5698
 1277TIP3   OH225321   4.517   4.445  11.201  0.5631  0.0463 -0.0955
 1277TIP3    H125322   4.567   4.364  11.207 -2.8506 -2.4044 -1.4527
 1277TIP3    H225323   4.475   4.454  11.287  1.3146  0.7355  0.2197
 1278TIP3   OH225324   1.186   4.053  14.233 -0.3110  0.0381  0.1965
 1278TIP3    H125325   1.210   4.054  14.140 -0.1849 -0.0852  0.2273
 1278TIP3    H225326   1.240   4.122  14.272  2.1448 -2.0754  0.7940
 1279TIP3   OH225327   6.396   2.125  15.288 -0.2843 -0.4769 -0.1893
 1279TIP3    H125328   6.458   2.195  15.267  0.3497 -0.7711  0.6250
 1279TIP3    H225329   6.317   2.171  15.318 -0.1082 -0.1064 -0.2856
 1280TIP3   OH225330   5.322   2.918   3.858 -0.8790  0.4524 -0.1349
 1280TIP3    H125331   5.232   2.919   3.825 -0.3037 -0.5709 -1.8054
 1280TIP3    H225332   5.377   2.914   3.780  0.7126  2.5474  0.7775
 1281TIP3   OH225333   4.845   5.652   1.618 -0.2511  0.1430 -0.3954
 1281TIP3    H125334   4.901   5.610   1.552  0.6179 -1.6057  1.3444
 1281TIP3    H225335   4.858   5.746   1.605  3.1925 -0.1787 -0.0369
 1282TIP3   OH225336   0.006   0.004  14.358 -0.2722 -0.2687  0.0163
 1282TIP3    H125337  -0.032  -0.013  14.444 -0.6883 -0.6878 -0.2400
 1282TIP3    H225338  -0.022   0.093  14.337 -0.3257 -0.2328  0.2374
 1283TIP3   OH225339   0.391   2.881  12.179 -0.2746 -0.0607  0.6081
 1283TIP3    H125340   0.427   2.846  12.098 -1.4050 -0.1137  0.1054
 1283TIP3    H225341   0.424   2.971  12.184 -2.3373  0.8899 -1.3493
 1284TIP3   OH225342   3.333   2.416   2.260 -0.5484  0.0639  0.0798
 1284TIP3    H125343   3.359   2.508   2.254  1.2284 -0.4876 -2.5523
 1284TIP3    H225344   3.261   2.415   2.323  1.6264  2.7153  2.9087
 1285TIP3   OH225345   6.039   0.247   1.349 -0.3236 -0.1035  0.0454
 1285TIP3    H125346   6.133   0.248   1.371 -0.0476 -0.2973 -1.0951
 1285TIP3    H225347   6.003   0.320   1.398  0.7610  1.1304 -0.9298
 1286TIP3   OH225348   2.416   3.704   5.415  0.6810 -0.2674  0.0067
 1286TIP3    H125349   2.389   3.787   5.375  3.0848  0.2931 -0.6410
 1286TIP3    H225350   2.449   3.652   5.342  0.8498 -1.0819  0.6514
 1287TIP3   OH225351   6.106   1.753  16.971  0.3475  0.1314 -0.6345
 1287TIP3    H125352   6.177   1.810  16.942  0.5324 -0.1987 -0.8338
 1287TIP3    H225353   6.033   1.772  16.912  0.3550  0.2806 -0.5956
 1288TIP3   OH225354   2.328   0.167   1.779 -0.7042 -0.0750 -0.1115
 1288TIP3    H125355   2.279   0.170   1.860  0.0827  3.9196  0.4377
 1288TIP3    H225356   2.332   0.258   1.750  4.5172 -0.3047 -1.1434
 1289TIP3   OH225357   2.122   2.232  10.983 -0.1828 -0.4619 -0.0504
 1289TIP3    H125358   2.094   2.315  10.942 -0.1714 -0.7710 -0.6965
 1289TIP3    H225359   2.158   2.181  10.911 -0.4093 -1.1314  0.3006
 1290TIP3   OH225360   0.656   1.238  15.613  0.3165  0.3466  0.3018
 1290TIP3    H125361   0.731   1.249  15.672  0.9786 -0.2457 -0.4088
 1290TIP3    H225362   0.686   1.274  15.529  0.9707 -2.6270 -0.8610
 1291TIP3   OH225363   2.450   3.733   0.306  0.5017 -0.4740 -0.5908
 1291TIP3    H125364   2.379   3.670   0.294  0.3532 -0.4256  0.0071
 1291TIP3    H225365   2.530   3.682   0.291  0.3736 -0.7485 -0.3510
 1292TIP3   OH225366   1.179   3.186  15.704  0.2422 -0.1637  0.7151
 1292TIP3    H125367   1.095   3.145  15.723 -0.5391  0.6941 -0.6837
 1292TIP3    H225368   1.218   3.131  15.636 -0.1212  0.5203 -0.0700
 1293TIP3   OH225369   5.359   0.240  12.116 -0.1504  0.5867 -0.3664
 1293TIP3    H125370   5.377   0.221  12.208 -0.6997  0.4399 -0.2829
 1293TIP3    H225371   5.345   0.154  12.076  1.7209  0.5261 -0.9603
 1294TIP3   OH225372   0.502   2.073   1.755  0.0267 -0.0365 -0.0349
 1294TIP3    H125373   0.566   2.145   1.752 -1.6811  1.5249 -0.3930
 1294TIP3    H225374   0.433   2.104   1.813 -0.8488 -1.3269 -0.3405
 1295TIP3   OH225375   4.856   1.803  11.704  0.0044 -0.1159 -0.3301
 1295TIP3    H125376   4.869   1.749  11.626 -1.3562  1.3525 -1.6475
 1295TIP3    H225377   4.764   1.792  11.726  0.4492 -0.8191  1.3767
 1296TIP3   OH225378   1.688   6.342   5.957  0.1556 -0.2803 -0.0467
 1296TIP3    H125379   1.765   6.307   5.913 -0.1148  0.9069 -1.6016
 1296TIP3    H225380   1.718   6.363   6.045  1.2990 -0.8784 -0.2683
 1297TIP3   OH225381   2.684   2.486   2.829 -0.0160 -0.2428  0.1291
 1297TIP3    H125382   2.723   2.399   2.823  0.3519 -0.2153  1.8384
 1297TIP3    H225383   2.731   2.530   2.899  0.6625  1.8295 -1.5051
 1298TIP3   OH225384   1.494   6.337   2.104 -0.5217 -0.4227 -0.3614
 1298TIP3    H125385   1.505   6.324   2.198 -1.6589 -0.5949 -0.2405
 1298TIP3    H225386   1.403   6.364   2.094  0.1877  1.9295 -1.1937
 1299TIP3   OH225387   3.738   0.329   3.921 -1.0404  0.1108 -1.0383
 1299TIP3    H125388   3.691   0.258   3.964 -0.8846  0.6222  0.0028
 1299TIP3    H225389   3.731   0.309   3.827 -3.7788  0.4146 -0.9813
 1300TIP3   OH225390   1.526   6.590  12.957 -0.6275  0.4955  0.6231
 1300TIP3    H125391   1.498   6.671  12.915 -2.7700  0.2492  1.4826
 1300TIP3    H225392   1.494   6.521  12.899  0.7413  0.2158  0.1599
 1301TIP3   OH225393   3.622   2.103  11.638  0.0388 -0.0781  0.1261
 1301TIP3    H125394   3.682   2.125  11.709 -0.3614  0.3972  0.3243
 1301TIP3    H225395   3.557   2.174  11.639  0.1726  0.0699 -0.8735
 1302TIP3   OH225396   6.034   0.706   3.613 -0.2311 -0.2780  0.9935
 1302TIP3    H125397   6.040   0.708   3.709  2.8681  0.7417  0.8993
 1302TIP3    H225398   6.110   0.655   3.585 -0.4512  0.3594 -0.9435
 1303TIP3   OH225399   0.130   2.744  11.430 -0.2181 -0.4554  0.3504
 1303TIP3    H125400   0.104   2.760  11.339  0.5252  1.3412  0.4087
 1303TIP3    H225401   0.047   2.724  11.475 -0.6125 -1.2153 -0.6603
 1304TIP3   OH225402   2.542   4.018   3.131  0.3418 -0.2913 -0.0728
 1304TIP3    H125403   2.475   3.993   3.067 -0.8547  1.8512  0.2269
 1304TIP3    H225404   2.492   4.033   3.212  1.2393  0.8795  0.2864
 1305TIP3   OH225405   5.817   4.571  12.146 -0.0275 -0.2822 -0.2733
 1305TIP3    H125406   5.823   4.513  12.070  0.6089  0.3611 -0.7256
 1305TIP3    H225407   5.748   4.532  12.200 -0.5417 -0.7175 -1.2111
 1306TIP3   OH225408   4.718   1.286   3.947  0.1649 -0.0341  0.0116
 1306TIP3    H125409   4.658   1.340   3.998  1.9159  1.5050  0.5551
 1306TIP3    H225410   4.760   1.230   4.011 -1.1167 -1.6124 -0.4596
 1307TIP3   OH225411   0.716   1.888   4.742  0.1380  0.1138  0.2624
 1307TIP3    H125412   0.646   1.933   4.790 -0.3366 -1.5716  1.2452
 1307TIP3    H225413   0.683   1.799   4.730  1.3197 -0.1862 -0.9895
 1308TIP3   OH225414   1.768   2.377  14.546 -0.1131  0.4843 -0.2604
 1308TIP3    H125415   1.808   2.460  14.573  0.4559  0.8028 -1.9631
 1308TIP3    H225416   1.829   2.341  14.482 -0.4081 -1.2214  0.3840
 1309TIP3   OH225417   4.879   0.094   5.871 -0.1105  0.7444  0.0971
 1309TIP3    H125418   4.846   0.169   5.920  0.8885  1.4733 -0.3189
 1309TIP3    H225419   4.900   0.129   5.785 -0.0462 -0.1196 -0.2499
 1310TIP3   OH225420   5.060   4.889  17.088 -0.2641 -0.4529 -0.1468
 1310TIP3    H125421   5.155   4.878  17.079  0.1912  1.2667  1.7408
 1310TIP3    H225422   5.034   4.940  17.012  0.2895 -1.1018 -0.7787
 1311TIP3   OH225423   5.466   1.406   4.225  0.0534 -0.4309  0.1333
 1311TIP3    H125424   5.502   1.329   4.182 -1.0282 -0.8300 -0.0762
 1311TIP3    H225425   5.379   1.418   4.185 -0.6610 -0.3626  1.6664
 1312TIP3   OH225426   2.256   3.931  12.869  0.1900  0.6773 -0.3147
 1312TIP3    H125427   2.284   3.931  12.777  0.8281 -1.1127 -0.1461
 1312TIP3    H225428   2.208   4.013  12.878 -2.1691 -0.2323 -2.9648
 1313TIP3   OH225429   1.403   4.048   1.392 -0.4687  0.1656  0.1282
 1313TIP3    H125430   1.466   4.010   1.331  0.6174  1.4302  0.4199
 1313TIP3    H225431   1.406   3.991   1.469  0.8236  0.5624  0.3971
 1314TIP3   OH225432   1.765   4.516  14.090 -0.5704  0.2015  0.0625
 1314TIP3    H125433   1.823   4.557  14.026  0.1332 -1.4680 -0.4126
 1314TIP3    H225434   1.756   4.582  14.160  0.6389  1.0793 -0.5741
 1315TIP3   OH225435   5.494   5.200   3.908  0.0034 -0.0553 -0.8244
 1315TIP3    H125436   5.509   5.294   3.910  0.9690 -0.1958 -1.1489
 1315TIP3    H225437   5.567   5.162   3.956 -0.6275 -0.6258 -0.2842
 1316TIP3   OH225438   2.396   5.789  12.462  0.7927  0.5786  0.6760
 1316TIP3    H125439   2.475   5.840  12.442  1.0453  1.8116  4.0922
 1316TIP3    H225440   2.425   5.698  12.461  1.8588  0.9083  0.3003
 1317TIP3   OH225441   1.345   3.647  12.043  0.4238 -0.5849  0.3552
 1317TIP3    H125442   1.341   3.634  12.138 -1.3580  0.9216  0.5483
 1317TIP3    H225443   1.260   3.615  12.012 -1.4730  3.9628  0.0931
 1318TIP3   OH225444   4.722   3.329   2.066 -0.2069 -0.1955 -0.1958
 1318TIP3    H125445   4.799   3.304   2.117  0.5788  2.0270 -0.2106
 1318TIP3    H225446   4.713   3.259   2.001  3.1030  0.4943 -1.5910
 1319TIP3   OH225447   2.704   4.832   6.715 -0.0108 -0.4439 -0.0278
 1319TIP3    H125448   2.668   4.914   6.748 -0.5545  0.3644 -2.4641
 1319TIP3    H225449   2.793   4.854   6.687  0.3094 -1.0217  0.5077
 1320TIP3   OH225450   0.453   6.605   3.756 -0.1080  0.8679 -0.3237
 1320TIP3    H125451   0.457   6.621   3.662 -0.2535 -0.5470 -0.5854
 1320TIP3    H225452   0.380   6.659   3.786 -2.4881 -1.4077 -1.6551
 1321TIP3   OH225453   3.682   6.320   0.808 -0.0484 -0.1643 -0.4398
 1321TIP3    H125454   3.613   6.282   0.863 -0.0662 -1.2905 -1.2069
 1321TIP3    H225455   3.752   6.341   0.870 -0.5230 -0.3488  0.1673
 1322TIP3   OH225456   1.231   6.015  11.673 -0.0149 -0.2044 -0.1690
 1322TIP3    H125457   1.203   5.993  11.762  0.2666  1.7533  0.4631
 1322TIP3    H225458   1.305   5.957  11.656 -0.8089 -1.4284  0.3969
 1323TIP3   OH225459   6.218   0.222  16.519 -0.6289  0.2576  0.1885
 1323TIP3    H125460   6.255   0.147  16.472  0.0852  0.9514 -0.3711
 1323TIP3    H225461   6.166   0.183  16.589  0.5680 -0.7518  0.5491
 1324TIP3   OH225462   6.166   1.110   2.586 -0.0958  0.1712  0.3667
 1324TIP3    H125463   6.104   1.093   2.657  0.2558  0.2676  0.6993
 1324TIP3    H225464   6.236   1.161   2.627  0.3379 -0.1641  0.0579
 1325TIP3   OH225465   6.469   6.652   1.899 -0.2081  0.2798 -0.0488
 1325TIP3    H125466   6.435   6.720   1.958  2.1744  2.0926 -0.6224
 1325TIP3    H225467   6.562   6.647   1.919 -0.1999 -2.5197 -0.4090
 1326TIP3   OH225468   3.018   5.211  14.111 -0.2487  0.1190  0.2179
 1326TIP3    H125469   3.068   5.184  14.187 -1.0626 -0.7483  0.4578
 1326TIP3    H225470   3.019   5.135  14.053 -0.2646  0.5148 -0.3060
 1327TIP3   OH225471   0.794   0.854  11.139  0.0472 -0.1131  0.1887
 1327TIP3    H125472   0.815   0.785  11.202 -4.0910 -0.1612  1.8451
 1327TIP3    H225473   0.830   0.822  11.056  1.1878 -2.6050  1.5156
 1328TIP3   OH225474   1.424   3.666   2.140  0.0310 -0.6502  0.4147
 1328TIP3    H125475   1.504   3.631   2.178  0.2029 -0.1474  0.5236
 1328TIP3    H225476   1.453   3.714   2.063 -0.4200 -2.6982 -1.1409
 1329TIP3   OH225477   1.950   5.650   3.995 -0.1810 -0.0424 -0.5229
 1329TIP3    H125478   2.040   5.684   4.005 -0.2708  0.1601 -0.3982
 1329TIP3    H225479   1.960   5.555   3.996 -0.1012 -0.0328  0.7210
 1330TIP3   OH225480   0.956   3.053   5.982  0.1964 -0.3562  0.5164
 1330TIP3    H125481   0.931   3.014   6.066 -0.3554  1.1561  1.0957
 1330TIP3    H225482   0.893   3.017   5.920  0.5911 -1.4718  0.7427
 1331TIP3   OH225483   3.688   1.013   2.611 -0.1834  0.2239  0.1424
 1331TIP3    H125484   3.759   1.049   2.557 -2.0191  1.4424 -1.5737
 1331TIP3    H225485   3.655   1.087   2.661 -1.1154 -0.0425 -0.0618
 1332TIP3   OH225486   1.803   1.525   3.424  0.1398  0.4868  0.0720
 1332TIP3    H125487   1.791   1.611   3.464  1.4888  1.2951 -1.1630
 1332TIP3    H225488   1.715   1.495   3.402 -0.3145  1.6920  0.2102
 1333TIP3   OH225489   2.022   6.532   6.620 -0.0883  0.1711 -0.2039
 1333TIP3    H125490   1.985   6.493   6.541 -0.9027 -0.1706  0.3338
 1333TIP3    H225491   1.947   6.542   6.679  0.1906  2.1214 -0.1428
 1334TIP3   OH225492   2.502   2.332   5.159  0.7357  0.2629 -0.3209
 1334TIP3    H125493   2.564   2.259   5.154  0.3139 -0.1707  0.4930
 1334TIP3    H225494   2.448   2.322   5.080  0.9922 -0.0231 -0.4639
 1335TIP3   OH225495   5.932   0.330  13.530  0.0252 -0.2170  0.3029
 1335TIP3    H125496   6.027   0.331  13.521  0.0696 -0.7327  0.6847
 1335TIP3    H225497   5.906   0.244  13.496 -0.3199 -0.0128  0.0482
 1336TIP3   OH225498   5.667   4.778  16.080 -0.2533 -0.5499 -0.0909
 1336TIP3    H125499   5.601   4.779  16.012 -0.0041 -0.5676 -0.3335
 1336TIP3    H225500   5.640   4.709  16.140 -1.7944  1.0276  1.1350
 1337TIP3   OH225501   1.646   0.597   0.703  0.0038 -0.0536 -0.5477
 1337TIP3    H125502   1.622   0.552   0.784 -0.0142 -0.0388 -0.5451
 1337TIP3    H225503   1.729   0.556   0.677 -0.1261 -0.2438 -0.6627
 1338TIP3   OH225504   5.078   5.007   3.590 -0.1745 -0.3650  0.3481
 1338TIP3    H125505   5.141   4.961   3.645  2.1590  1.6227 -0.5302
 1338TIP3    H225506   5.066   4.948   3.515  2.4146  0.1047 -0.5435
 1339TIP3   OH225507   0.919   1.609  16.909  0.0438  0.0575  0.0142
 1339TIP3    H125508   1.005   1.615  16.869 -0.4573  1.9608 -0.8769
 1339TIP3    H225509   0.913   1.518  16.940  2.1193 -0.2619 -0.3999
 1340TIP3   OH225510   4.296   0.055  16.528  0.3435 -0.1659 -0.5169
 1340TIP3    H125511   4.354   0.060  16.603 -0.2533  0.7334 -0.0941
 1340TIP3    H225512   4.222   0.002  16.557  0.2031  0.0214 -0.5291
 1341TIP3   OH225513   5.606   3.986  16.529 -0.5708 -0.2152  0.2812
 1341TIP3    H125514   5.584   3.912  16.474 -1.1028 -0.1769  0.4427
 1341TIP3    H225515   5.583   4.063  16.477  1.3329 -0.1023 -0.4910
 1342TIP3   OH225516   4.059   2.500  16.235 -0.4820 -0.3337  0.2345
 1342TIP3    H125517   4.145   2.527  16.201 -0.5261 -0.1757  0.2506
 1342TIP3    H225518   4.071   2.407  16.258 -0.1969 -0.2076  0.6194
 1343TIP3   OH225519   6.587   0.029   6.118 -0.5617  0.7387  0.3355
 1343TIP3    H125520   6.642   0.093   6.164 -1.2528  0.0701  2.1719
 1343TIP3    H225521   6.622  -0.056   6.145 -0.6354  0.3137 -0.8550
 1344TIP3   OH225522   1.925   2.982  13.903 -0.3389 -0.2718  0.5498
 1344TIP3    H125523   1.917   3.076  13.919  0.6173 -0.0352 -0.3422
 1344TIP3    H225524   1.835   2.949  13.914 -1.3890  1.2497 -2.3791
 1345TIP3   OH225525   3.471   6.554  15.301  0.3453  0.5668 -0.0430
 1345TIP3    H125526   3.396   6.576  15.246  0.8070 -0.7912 -1.2578
 1345TIP3    H225527   3.545   6.601  15.262  0.3331  1.1467  0.5958
 1346TIP3   OH225528   0.526   4.677   0.049  0.1139 -0.7284  0.1944
 1346TIP3    H125529   0.544   4.591   0.087  0.5213 -1.7796 -2.2084
 1346TIP3    H225530   0.593   4.734   0.087  0.4513 -1.6882  1.0929
 1347TIP3   OH225531   1.443   0.099   0.988 -0.6613  0.5130 -0.2079
 1347TIP3    H125532   1.385   0.067   1.058 -0.4652 -0.8690 -0.6552
 1347TIP3    H225533   1.425   0.041   0.914  0.2556  0.9871 -0.8137
 1348TIP3   OH225534   5.026   3.703  16.026 -0.0400 -0.1339 -0.2760
 1348TIP3    H125535   4.993   3.695  15.937 -2.5135 -0.0276  0.5553
 1348TIP3    H225536   5.042   3.614  16.055  0.9064 -0.1608 -0.8431
 1349TIP3   OH225537   6.214   6.063  14.457  0.8384  0.2866 -0.0310
 1349TIP3    H125538   6.216   6.151  14.493  1.4614  0.3067 -0.1051
 1349TIP3    H225539   6.176   6.074  14.370  1.3347  0.5574 -0.2209
 1350TIP3   OH225540   5.906   4.650   4.486  0.4180  0.0850 -0.0452
 1350TIP3    H125541   5.878   4.603   4.408 -2.2880  0.1557  0.7849
 1350TIP3    H225542   5.826   4.661   4.538  2.1941 -0.6116  3.1272
 1351TIP3   OH225543   6.622   5.542   3.140  0.0613 -0.3072 -0.2125
 1351TIP3    H125544   6.544   5.572   3.092 -0.0986  0.8334  0.7328
 1351TIP3    H225545   6.606   5.449   3.155 -2.1796  0.3033  1.8408
 1352TIP3   OH225546   4.516   5.966  17.055  0.2175  0.0511 -0.6155
 1352TIP3    H125547   4.575   6.027  17.010 -0.3449  0.4224 -0.8582
 1352TIP3    H225548   4.517   5.887  17.001 -1.0553  0.7639 -1.7403
 1353TIP3   OH225549   1.340   6.544   4.654 -0.2031  0.4801 -0.1959
 1353TIP3    H125550   1.324   6.483   4.582  0.3489  0.5131 -0.3511
 1353TIP3    H225551   1.312   6.497   4.732 -1.6427  0.7682 -0.5053
 1354TIP3   OH225552   4.534   0.428   4.463  0.8843  0.3013  0.2285
 1354TIP3    H125553   4.460   0.381   4.424  0.6640 -0.3589  1.4096
 1354TIP3    H225554   4.500   0.463   4.545  1.2907  1.8502 -0.2200
 1355TIP3   OH225555   5.446   1.516  14.783 -0.3996  0.1699 -0.0665
 1355TIP3    H125556   5.377   1.487  14.723 -0.0321 -2.0327  0.5049
 1355TIP3    H225557   5.406   1.509  14.870 -0.1460  1.0062  0.1230
 1356TIP3   OH225558   2.469   2.575  15.276 -0.1841  0.5956 -0.4282
 1356TIP3    H125559   2.413   2.533  15.211 -0.1021  0.8137 -0.6426
 1356TIP3    H225560   2.486   2.506  15.341  0.8250 -0.0316 -1.3200
 1357TIP3   OH225561   4.250   0.881   4.814  0.8149  0.1291 -0.6329
 1357TIP3    H125562   4.205   0.863   4.896  0.8152  0.4070 -0.5719
 1357TIP3    H225563   4.237   0.801   4.762 -0.0328  0.3263 -0.7403
 1358TIP3   OH225564   0.717   6.224   1.696  0.4773  0.3838 -0.0040
 1358TIP3    H125565   0.793   6.172   1.720 -0.6325 -0.6137  1.5829
 1358TIP3    H225566   0.643   6.163   1.703 -0.4994  1.3383 -1.3986
 1359TIP3   OH225567   0.227   3.667   3.088 -0.0127 -0.4041 -0.4900
 1359TIP3    H125568   0.315   3.630   3.095  0.3356  0.5815  0.6715
 1359TIP3    H225569   0.211   3.707   3.173 -1.6458 -0.6581 -0.6457
 1360TIP3   OH225570   5.009   2.769   4.485  0.4190  0.1861 -0.1862
 1360TIP3    H125571   4.942   2.808   4.541 -0.3782  1.2147 -1.8132
 1360TIP3    H225572   5.036   2.690   4.532 -0.6092  0.7209  1.3785
 1361TIP3   OH225573   4.461   3.489  10.605  0.0306  0.0301 -0.2087
 1361TIP3    H125574   4.502   3.575  10.616 -0.0335 -0.2017  2.7870
 1361TIP3    H225575   4.379   3.507  10.559  0.4652  1.4293 -0.4930
 1362TIP3   OH225576   1.472   6.663  12.023  0.0134  0.4555 -0.0442
 1362TIP3    H125577   1.498   6.650  12.114  3.2493  1.6996 -0.6223
 1362TIP3    H225578   1.470   6.575  11.985 -1.2085 -0.0579  1.1565
 1363TIP3   OH225579   4.548   1.358   6.150  0.1775  0.4253  0.2241
 1363TIP3    H125580   4.575   1.314   6.231  0.9504  3.5669  1.8336
 1363TIP3    H225581   4.509   1.440   6.180  0.6245  1.7781 -2.6161
 1364TIP3   OH225582   5.397   2.046   4.186 -0.0422 -0.1595  0.1875
 1364TIP3    H125583   5.353   1.972   4.144  2.4873 -2.4835  1.3188
 1364TIP3    H225584   5.345   2.064   4.264 -0.0255 -1.6151  0.5596
 1365TIP3   OH225585   6.604   6.622   4.946  0.0412  0.1418 -0.1596
 1365TIP3    H125586   6.670   6.595   4.883 -0.3448 -0.2521 -0.4012
 1365TIP3    H225587   6.620   6.715   4.960  1.4470 -0.2095  0.7467
 1366TIP3   OH225588   3.386   2.387   6.654 -0.0096 -0.3274 -0.2684
 1366TIP3    H125589   3.311   2.432   6.694  1.6067  2.6126 -0.3112
 1366TIP3    H225590   3.399   2.432   6.570  0.9482 -1.7321 -0.9056
 1367TIP3   OH225591   6.030   0.493  16.331  0.0595 -0.0524  0.5977
 1367TIP3    H125592   6.103   0.471  16.272 -0.3115 -0.3136  0.2251
 1367TIP3    H225593   6.069   0.496  16.418  0.1702 -2.1241  0.6626
 1368TIP3   OH225594   0.383   5.559  15.634  0.2316 -0.0706  0.3744
 1368TIP3    H125595   0.344   5.487  15.683 -1.5878 -1.1312 -2.3778
 1368TIP3    H225596   0.428   5.517  15.561  1.3922  1.4947  0.1364
 1369TIP3   OH225597   1.985   5.870   1.150 -0.1691 -0.6425 -0.0284
 1369TIP3    H125598   1.895   5.849   1.176  0.0832 -0.2471  1.2270
 1369TIP3    H225599   2.012   5.939   1.210  0.4568  0.3473 -1.4034
 1370TIP3   OH225600   6.079   2.091  14.812  0.1396  0.4334  0.4297
 1370TIP3    H125601   6.032   2.158  14.762 -1.8432 -1.6784 -0.7553
 1370TIP3    H225602   6.155   2.069  14.757 -0.8493 -0.3474 -0.6773
 1371TIP3   OH225603   3.054   1.298   2.587  0.0369  0.3854  0.0347
 1371TIP3    H125604   3.125   1.289   2.524 -0.6069 -0.5824 -0.5839
 1371TIP3    H225605   3.082   1.245   2.662 -0.0892 -0.1170 -0.2680
 1372TIP3   OH225606   3.564   3.911  16.144  0.4200  0.6806  0.1352
 1372TIP3    H125607   3.566   3.826  16.100 -1.0950  0.6648  0.0425
 1372TIP3    H225608   3.475   3.917  16.179  0.6198  2.0906  0.4349
 1373TIP3   OH225609   4.326   6.426   0.201 -0.3040 -0.6472  0.4140
 1373TIP3    H125610   4.336   6.377   0.119 -0.0096  2.0336 -1.2481
 1373TIP3    H225611   4.280   6.506   0.176  0.8882  0.8313  2.6441
 1374TIP3   OH225612   5.131   5.046   3.136 -0.1033  0.5515  0.1651
 1374TIP3    H125613   5.151   5.025   3.045 -0.5772  1.0121 -0.0523
 1374TIP3    H225614   5.216   5.051   3.179  0.3580  3.0317 -0.8518
 1375TIP3   OH225615   1.297   1.826  14.347 -0.4407 -0.1417 -0.3085
 1375TIP3    H125616   1.333   1.915  14.340 -1.3107  0.1497 -1.1854
 1375TIP3    H225617   1.203   1.836  14.334 -0.6805 -1.0846  0.5361
 1376TIP3   OH225618   6.254   0.928  11.712  0.1599  0.4742 -0.1899
 1376TIP3    H125619   6.181   0.920  11.774 -0.0907 -1.1353 -0.6438
 1376TIP3    H225620   6.212   0.937  11.626  0.4500 -1.1124 -0.5293
 1377TIP3   OH225621   1.846   1.993   5.777 -0.3518  0.5714 -0.0213
 1377TIP3    H125622   1.869   2.064   5.837  0.1240 -0.2888  0.8561
 1377TIP3    H225623   1.884   2.018   5.693  2.1720  0.1473  0.9066
 1378TIP3   OH225624   2.424   2.994  13.582 -0.3553 -0.4709 -0.0639
 1378TIP3    H125625   2.388   2.933  13.517 -1.2583  0.3560 -0.3517
 1378TIP3    H225626   2.452   2.937  13.654 -0.7876 -1.2717 -0.5071
 1379TIP3   OH225627   0.655   2.819  14.684  0.6161 -0.4806 -0.0833
 1379TIP3    H125628   0.605   2.816  14.602  0.2521  1.3375  0.0300
 1379TIP3    H225629   0.683   2.729  14.698  1.1976 -0.7415 -2.5250
 1380TIP3   OH225630   3.005   4.634  13.678 -0.4404  0.2720 -0.5529
 1380TIP3    H125631   3.046   4.555  13.643  1.4439  0.9628 -0.0296
 1380TIP3    H225632   3.023   4.631  13.772 -2.9922 -0.1432 -0.0058
 1381TIP3   OH225633   3.297   4.923  13.258 -0.0805 -0.4646  0.6716
 1381TIP3    H125634   3.308   4.918  13.163 -0.3689  0.7596  0.5605
 1381TIP3    H225635   3.277   4.833  13.284 -1.0024 -0.6437 -0.5600
 1382TIP3   OH225636   2.435   1.230   1.854 -0.0324 -0.2361  0.4315
 1382TIP3    H125637   2.352   1.221   1.901  0.7558 -0.4690  1.8098
 1382TIP3    H225638   2.458   1.140   1.829  0.5783 -0.3638  1.4282
 1383TIP3   OH225639   1.237   5.171   3.465  0.1144  0.4877  0.8269
 1383TIP3    H125640   1.162   5.202   3.415 -0.0721 -0.1965  0.6696
 1383TIP3    H225641   1.312   5.186   3.408  0.4060  2.9763  1.7189
 1384TIP3   OH225642   3.625   3.022   4.403 -0.4605  0.1177 -0.3674
 1384TIP3    H125643   3.592   3.007   4.314 -0.5166 -0.4581 -0.2523
 1384TIP3    H225644   3.650   2.935   4.434  0.9671  0.5168 -0.3620
 1385TIP3   OH225645   4.281   3.682   4.090  0.2762 -0.1884 -0.2617
 1385TIP3    H125646   4.296   3.751   4.155 -0.7681 -0.2536  0.0730
 1385TIP3    H225647   4.266   3.603   4.142  0.0969 -0.3804 -0.5983
 1386TIP3   OH225648   0.209   2.246   1.110  0.0612 -0.3077  0.4062
 1386TIP3    H125649   0.216   2.207   1.023  0.7330 -0.1162  0.3650
 1386TIP3    H225650   0.115   2.256   1.124 -0.0717 -0.7636 -0.1057
 1387TIP3   OH225651   1.666   6.148  13.226 -0.1719 -0.0542  0.0980
 1387TIP3    H125652   1.659   6.096  13.306 -1.1331 -0.7779 -0.4318
 1387TIP3    H225653   1.592   6.209  13.230 -0.9934 -0.9687 -0.8402
 1388TIP3   OH225654   6.172   1.612  12.823 -0.8558 -0.1248 -0.4167
 1388TIP3    H125655   6.130   1.540  12.775 -2.0251  0.6465 -0.6093
 1388TIP3    H225656   6.155   1.592  12.915 -0.2791 -0.6218 -0.4162
 1389TIP3   OH225657   2.337   3.720  11.311  0.1701  0.3328  0.0647
 1389TIP3    H125658   2.348   3.809  11.344 -1.8808 -0.1222  2.2279
 1389TIP3    H225659   2.255   3.723  11.261  0.4972 -0.1882 -0.5221
 1390TIP3   OH225660   3.023   1.035   0.166 -0.2169 -1.0653 -0.0012
 1390TIP3    H125661   3.002   0.942   0.155 -1.5294 -0.6049 -1.9614
 1390TIP3    H225662   3.019   1.071   0.077  0.7207  0.7915  0.6551
 1391TIP3   OH225663   4.196   5.473   4.367  0.2072 -0.1524 -0.8811
 1391TIP3    H125664   4.187   5.529   4.290 -1.6690 -0.0970 -0.6573
 1391TIP3    H225665   4.156   5.523   4.438  1.2951 -0.4944  0.0014
 1392TIP3   OH225666   1.972   5.908   4.236 -0.1100 -0.0933 -0.2513
 1392TIP3    H125667   1.881   5.897   4.265  0.1510  2.3716  1.8686
 1392TIP3    H225668   1.967   5.963   4.158 -0.4313  1.2434  0.6790
 1393TIP3   OH225669   4.146   3.280  10.425  0.0806  0.0712 -0.8820
 1393TIP3    H125670   4.159   3.374  10.432 -1.1103  0.2337 -0.5542
 1393TIP3    H225671   4.052   3.270  10.412 -0.1023 -1.1416  0.9452
 1394TIP3   OH225672   2.318   1.877  11.582  0.5434 -0.0129  0.1641
 1394TIP3    H125673   2.314   1.871  11.677 -0.8271  3.6564  0.4953
 1394TIP3    H225674   2.390   1.939  11.565  0.4551 -0.2338 -1.1472
 1395TIP3   OH225675   4.194   6.338  14.519 -0.5286  0.0946 -0.4679
 1395TIP3    H125676   4.241   6.326  14.601 -0.5222 -1.0562 -0.6148
 1395TIP3    H225677   4.262   6.365  14.456 -0.2385 -0.5727 -0.4494
 1396TIP3   OH225678   4.345   6.264  11.582  0.5047  0.4617 -0.3074
 1396TIP3    H125679   4.390   6.328  11.638  0.2152 -1.1269  1.8826
 1396TIP3    H225680   4.392   6.268  11.499  1.1456  2.7513  0.0793
 1397TIP3   OH225681   0.127   0.985   4.412  0.1320 -0.0469 -0.1219
 1397TIP3    H125682   0.132   1.029   4.327  2.6417  0.9492  0.4543
 1397TIP3    H225683   0.174   0.903   4.400  1.3723  0.5457  0.5239
 1398TIP3   OH225684   3.865   0.872   0.543  0.0543 -0.0648  0.0956
 1398TIP3    H125685   3.958   0.848   0.540 -0.2409 -1.1197 -1.3121
 1398TIP3    H225686   3.866   0.968   0.550  1.2566  0.0599 -1.2833
 1399TIP3   OH225687   3.930   2.112   5.233 -1.1429 -0.0280  0.3577
 1399TIP3    H125688   3.944   2.200   5.269 -1.2413 -0.7664  2.3360
 1399TIP3    H225689   3.998   2.103   5.167 -1.0008  1.4606  0.2460
 1400TIP3   OH225690   5.916   6.285   1.083 -0.2789 -0.4051  0.7630
 1400TIP3    H125691   5.937   6.248   1.168  0.2607 -0.3085  0.6803
 1400TIP3    H225692   5.962   6.229   1.020  0.2596  0.1897  0.6149
 1401TIP3   OH225693   2.584   5.526   3.292  0.0107 -0.8170 -0.1174
 1401TIP3    H125694   2.510   5.474   3.322  1.0066 -0.7473  2.8638
 1401TIP3    H225695   2.659   5.466   3.296  0.3331 -0.6021 -2.0515
 1402TIP3   OH225696   1.368   4.576   1.474  0.3217  0.3343 -0.2271
 1402TIP3    H125697   1.411   4.493   1.497  0.9643  0.7298  0.0021
 1402TIP3    H225698   1.438   4.631   1.440  0.0826  1.1269  0.5372
 1403TIP3   OH225699   1.687   6.464  16.943  0.3852  0.6404 -0.1073
 1403TIP3    H125700   1.652   6.551  16.962 -0.2928  0.8185 -2.0070
 1403TIP3    H225701   1.647   6.439  16.860  1.5282 -0.9782 -0.2255
 1404TIP3   OH225702   2.411   4.952  13.421 -0.2893  0.3622  0.1251
 1404TIP3    H125703   2.364   4.885  13.372  1.9764 -1.1238 -0.1623
 1404TIP3    H225704   2.384   5.035  13.381 -0.6637 -0.6144 -1.7487
 1405TIP3   OH225705   4.471   1.101   4.386  0.1939 -0.4343  0.3897
 1405TIP3    H125706   4.474   1.174   4.324 -2.0143 -0.3091  0.3527
 1405TIP3    H225707   4.400   1.045   4.355 -0.7709 -0.5357  2.5576
 1406TIP3   OH225708   6.666   5.948   4.006  0.2127 -0.0156  0.0836
 1406TIP3    H125709   6.584   5.919   4.048  0.3167  1.5174  1.4738
 1406TIP3    H225710   6.700   6.015   4.066  1.2284  1.1272 -1.6989
 1407TIP3   OH225711   1.211   4.283   3.822 -0.1280 -0.4729  0.2718
 1407TIP3    H125712   1.191   4.349   3.755 -2.1267 -0.7865  0.4889
 1407TIP3    H225713   1.185   4.324   3.904 -0.1645 -1.0596  0.5561
 1408TIP3   OH225714   5.356   5.860  15.765  0.1701  0.2242 -0.1198
 1408TIP3    H125715   5.321   5.901  15.845  2.2664 -0.0642  1.0032
 1408TIP3    H225716   5.357   5.767  15.784 -0.2030  0.0531 -0.8874
 1409TIP3   OH225717   0.179   6.647  14.294  0.0400  0.6010 -0.2304
 1409TIP3    H125718   0.175   6.618  14.385  1.0765  1.6689  0.1877
 1409TIP3    H225719   0.120   6.722  14.290  0.2184  0.7355 -0.3565
 1410TIP3   OH225720   1.046   3.219   4.456 -0.0287 -0.2152  0.0926
 1410TIP3    H125721   1.027   3.133   4.420  1.2551 -0.6610  0.4134
 1410TIP3    H225722   1.009   3.216   4.544  2.0676 -1.3786  1.0255
 1411TIP3   OH225723   6.531   0.535   2.029 -0.0795 -0.1628 -0.6474
 1411TIP3    H125724   6.521   0.629   2.016  1.3636 -0.0972 -1.5788
 1411TIP3    H225725   6.555   0.525   2.121  0.6913  0.4942 -0.7633
 1412TIP3   OH225726   5.522   0.464  13.056  0.2047  0.1766 -0.1412
 1412TIP3    H125727   5.538   0.389  13.000  1.8105 -0.9206  1.6551
 1412TIP3    H225728   5.571   0.535  13.016  1.5231 -0.6517 -0.0424
 1413TIP3   OH225729   0.739   0.942   3.910  0.2521 -0.3484  0.2042
 1413TIP3    H125730   0.762   0.969   3.821 -0.2848 -0.3356  0.0645
 1413TIP3    H225731   0.734   0.847   3.906  0.2114 -0.3469  0.2218
 1414TIP3   OH225732   4.779   1.338   5.845  0.3029 -0.1948  0.2667
 1414TIP3    H125733   4.749   1.248   5.859  0.1119  0.1449  2.3563
 1414TIP3    H225734   4.699   1.391   5.848  0.2347 -0.0314 -2.3605
 1415TIP3   OH225735   0.700   3.439   4.621  0.1750 -0.1000 -0.4367
 1415TIP3    H125736   0.639   3.405   4.556  0.0067  0.4583 -0.5767
 1415TIP3    H225737   0.746   3.362   4.654 -0.6781 -0.5387 -0.2487
 1416TIP3   OH225738   0.814   2.539   1.470 -0.0020 -0.2997 -0.6656
 1416TIP3    H125739   0.804   2.466   1.408 -0.8535 -1.1252  0.3963
 1416TIP3    H225740   0.751   2.520   1.540 -0.1522  1.3898 -0.2796
 1417TIP3   OH225741   1.832   6.169   2.388  0.2739 -0.1052  0.3202
 1417TIP3    H125742   1.869   6.122   2.463 -2.6403 -0.0597  1.9305
 1417TIP3    H225743   1.821   6.101   2.321  1.8005 -0.3812  0.3005
 1418TIP3   OH225744   2.802   3.379   1.178  0.5615  0.1353  0.0849
 1418TIP3    H125745   2.783   3.349   1.089  0.9894  0.6356 -0.1803
 1418TIP3    H225746   2.891   3.413   1.174  0.4520  0.5126  0.6118
 1419TIP3   OH225747   2.341   3.724   0.715 -0.0862  0.0870 -0.0986
 1419TIP3    H125748   2.281   3.796   0.694 -3.6784 -2.2258  1.2317
 1419TIP3    H225749   2.342   3.721   0.810  2.3964  0.1027 -0.0759
 1420TIP3   OH225750   5.701   4.949  14.128  0.3955 -0.3611  0.0849
 1420TIP3    H125751   5.663   4.899  14.200  3.5778  0.7953  2.8143
 1420TIP3    H225752   5.766   4.891  14.090 -0.1198 -0.3689 -0.8102
 1421TIP3   OH225753   5.210   2.816   6.252  0.1127  0.5911 -0.1891
 1421TIP3    H125754   5.295   2.786   6.284  0.0450  0.2551 -0.3208
 1421TIP3    H225755   5.168   2.737   6.217 -1.0886  0.3062  1.7032
 1422TIP3   OH225756   4.743   4.632  16.812  0.7177  0.7124 -0.1671
 1422TIP3    H125757   4.747   4.566  16.882  2.0349 -0.5233 -1.3343
 1422TIP3    H225758   4.653   4.664  16.815 -0.5642 -2.4680 -0.7006
 1423TIP3   OH225759   3.762   6.043  10.488 -0.1844  0.5315 -0.2857
 1423TIP3    H125760   3.841   6.077  10.447  0.3996  1.7123  1.6388
 1423TIP3    H225761   3.695   6.109  10.470 -0.6746 -0.2891 -1.6031
 1424TIP3   OH225762   3.221   1.162  13.935 -0.2093  0.1617  1.1047
 1424TIP3    H125763   3.256   1.193  13.851  0.0299  0.2390  1.2307
 1424TIP3    H225764   3.222   1.067  13.927 -3.0222  0.1418 -0.1420
 1425TIP3   OH225765   5.403   0.062  16.143 -0.3589 -0.7959 -0.2038
 1425TIP3    H125766   5.373   0.019  16.064  0.3164 -1.2171 -0.2434
 1425TIP3    H225767   5.436   0.147  16.114  1.1790 -1.4951 -0.6060
 1426TIP3   OH225768   3.633   5.651  10.466  0.6579  0.1463  0.1903
 1426TIP3    H125769   3.605   5.574  10.517  1.5189  0.0943  0.5957
 1426TIP3    H225770   3.702   5.619  10.409 -0.4095  0.1729 -1.1696
 1427TIP3   OH225771   4.230   4.476  13.026  0.1456 -0.0586  0.4133
 1427TIP3    H125772   4.166   4.542  13.049  1.2538  2.1638 -2.2566
 1427TIP3    H225773   4.303   4.489  13.087 -1.2281 -1.7121  2.5752
 1428TIP3   OH225774   3.042   4.705  16.645  0.4528  0.7552 -0.2015
 1428TIP3    H125775   3.137   4.693  16.646  0.5742  1.5253  1.3592
 1428TIP3    H225776   3.013   4.664  16.564  2.1074  0.4328 -0.6641
 1429TIP3   OH225777   3.314   2.064  11.624  0.5210  0.3436  0.2587
 1429TIP3    H125778   3.219   2.052  11.629  0.5506 -1.1764 -1.5343
 1429TIP3    H225779   3.348   2.017  11.700 -0.0322 -2.4138 -1.0547
 1430TIP3   OH225780   0.460   4.206  11.409  0.5794  0.3877  0.1854
 1430TIP3    H125781   0.394   4.223  11.477  0.5872 -1.2909  0.6718
 1430TIP3    H225782   0.413   4.156  11.343  1.0207  0.4408 -0.1712
 1431TIP3   OH225783   5.830   0.099  13.459 -0.3822  0.2384  0.4197
 1431TIP3    H125784   5.860   0.008  13.454  0.2016  0.3011  2.0379
 1431TIP3    H225785   5.772   0.109  13.383 -0.5839 -1.5167  0.2793
 1432TIP3   OH225786   1.137   3.020  15.168  0.2590 -0.3408 -0.1470
 1432TIP3    H125787   1.179   3.096  15.207 -0.0223 -0.5079  0.4812
 1432TIP3    H225788   1.188   3.004  15.088 -0.8325  1.6381 -1.3015
 1433TIP3   OH225789   1.969   4.639   0.642  0.1673 -0.0015 -0.1043
 1433TIP3    H125790   1.907   4.640   0.715  0.7282 -1.6402  0.4222
 1433TIP3    H225791   2.016   4.722   0.649 -1.4595  0.9768 -0.1144
 1434TIP3   OH225792   1.170   1.122  12.549  0.1531  0.6482  0.0142
 1434TIP3    H125793   1.077   1.119  12.528  0.2860  0.3049 -0.5418
 1434TIP3    H225794   1.176   1.186  12.620 -0.7869 -0.8684  1.5483
 1435TIP3   OH225795   1.435   2.236   4.521 -0.3271 -0.1341  0.6165
 1435TIP3    H125796   1.361   2.176   4.529  0.4708 -1.0481  1.3655
 1435TIP3    H225797   1.503   2.199   4.578  0.9390  0.3283 -0.5220
 1436TIP3   OH225798   1.660   1.340  12.125 -0.4534  1.1049 -0.2183
 1436TIP3    H125799   1.697   1.428  12.134 -0.9517  1.3526 -0.5604
 1436TIP3    H225800   1.680   1.297  12.209  1.2751  0.9628 -0.6621
 1437TIP3   OH225801   4.004   5.229   6.326  0.0524 -0.1279 -0.3440
 1437TIP3    H125802   3.935   5.164   6.313  0.4051 -0.5075 -0.3424
 1437TIP3    H225803   3.958   5.313   6.322 -0.3666 -0.3613 -0.6289
 1438TIP3   OH225804   0.157   0.674  11.411  0.2402 -0.3494  0.0528
 1438TIP3    H125805   0.143   0.754  11.462 -1.1678  0.4897 -1.5131
 1438TIP3    H225806   0.181   0.607  11.475  0.5656  1.1167  1.5135
 1439TIP3   OH225807   3.110   0.597   0.554  0.0346  0.4323  0.2309
 1439TIP3    H125808   3.186   0.637   0.512 -0.3213  0.0962 -0.7720
 1439TIP3    H225809   3.048   0.584   0.482  0.1031 -1.8168  0.4938
 1440TIP3   OH225810   2.157   3.474   6.272 -0.2385  0.1978  0.0812
 1440TIP3    H125811   2.097   3.508   6.206 -2.0034  0.2954  1.6539
 1440TIP3    H225812   2.214   3.548   6.293 -0.6999  0.6349 -0.1837
 1441TIP3   OH225813   0.184   2.803  13.337  0.1342 -0.3116 -0.4949
 1441TIP3    H125814   0.158   2.785  13.247  1.7261  2.1021 -1.5277
 1441TIP3    H225815   0.258   2.745  13.353 -1.4039 -2.2242  0.0561
 1442TIP3   OH225816   5.832   1.942  15.712  0.2066 -0.0212  0.1130
 1442TIP3    H125817   5.900   2.009  15.705  1.0034 -0.4719  2.6812
 1442TIP3    H225818   5.832   1.899  15.626  1.4719  1.5438 -0.7260
 1443TIP3   OH225819   0.491   4.667   5.727 -0.3216 -0.2218 -0.3537
 1443TIP3    H125820   0.455   4.602   5.667 -2.6761 -1.0226  1.7385
 1443TIP3    H225821   0.423   4.734   5.734  0.5735  0.6596  0.1995
 1444TIP3   OH225822   1.980   5.065   0.880 -0.4088 -0.9895 -0.2627
 1444TIP3    H125823   1.906   5.093   0.826  1.9670  0.5305 -3.0123
 1444TIP3    H225824   1.950   4.984   0.921 -2.7823 -1.7555 -3.1319
 1445TIP3   OH225825   5.401   3.005  17.165 -0.0194 -0.3601  0.6232
 1445TIP3    H125826   5.343   2.930  17.173  1.0811 -1.3881 -0.7013
 1445TIP3    H225827   5.489   2.968  17.164  0.5000  0.7793 -1.6701
 1446TIP3   OH225828   3.599   1.848  14.563 -0.1364  0.5596  0.4666
 1446TIP3    H125829   3.615   1.811  14.650 -1.8980 -2.7131 -0.4627
 1446TIP3    H225830   3.504   1.863  14.561 -0.2571 -0.2948 -1.1860
 1447TIP3   OH225831   2.606   4.628  14.419 -0.3499  0.0359 -0.0750
 1447TIP3    H125832   2.526   4.677  14.442 -0.5148 -0.8118  1.2370
 1447TIP3    H225833   2.677   4.685  14.446 -0.5324 -0.8925  2.6950
 1448TIP3   OH225834   5.545   3.838   1.279  0.4493 -0.1511 -0.5756
 1448TIP3    H125835   5.469   3.830   1.220 -0.1029 -1.0219  0.2378
 1448TIP3    H225836   5.576   3.749   1.289 -0.3202 -0.2279  1.5494
 1449TIP3   OH225837   2.005   5.077  13.553  0.7376  0.2282  0.7779
 1449TIP3    H125838   1.942   5.038  13.613  1.4046  1.0136  2.0333
 1449TIP3    H225839   2.018   5.011  13.485 -0.3207 -0.5249  1.2771
 1450TIP3   OH225840   5.900   3.854   1.897  0.3395  0.9326  0.1335
 1450TIP3    H125841   5.934   3.895   1.817  3.2433  0.8889  1.2177
 1450TIP3    H225842   5.913   3.761   1.884  2.3603  1.0065  1.1930
 1451TIP3   OH225843   6.621   2.769  12.396 -0.7166 -0.9330 -0.4784
 1451TIP3    H125844   6.656   2.758  12.308  0.8982 -0.8338  0.1199
 1451TIP3    H225845   6.624   2.863  12.412 -2.9675 -0.7023 -1.0432
 1452TIP3   OH225846   1.206   6.203  13.972 -0.3198 -0.5267 -0.3246
 1452TIP3    H125847   1.248   6.128  13.930  0.1814  0.1646 -1.0928
 1452TIP3    H225848   1.145   6.164  14.036  0.2835 -1.5672 -0.3609
 1453TIP3   OH225849   0.676   1.170  14.485  0.3178 -0.1806  0.1687
 1453TIP3    H125850   0.710   1.244  14.435 -0.1179  0.7516  1.1976
 1453TIP3    H225851   0.647   1.209  14.568 -0.8242 -1.3554  0.3436
 1454TIP3   OH225852   2.629   1.588  12.518 -0.4072  0.2043 -0.5165
 1454TIP3    H125853   2.635   1.522  12.587  3.0394 -0.8872 -1.6306
 1454TIP3    H225854   2.561   1.556  12.459 -2.9893  0.8520  1.9151
 1455TIP3   OH225855   0.480   2.419   6.790  0.2202 -0.1577 -0.2172
 1455TIP3    H125856   0.443   2.332   6.775  0.2032 -0.5365  1.7367
 1455TIP3    H225857   0.572   2.403   6.810 -0.2994 -0.0503  2.6238
 1456TIP3   OH225858   0.323   1.618   0.705  0.1639  0.8213  0.3001
 1456TIP3    H125859   0.372   1.700   0.697  0.4463  0.9143  2.5259
 1456TIP3    H225860   0.237   1.638   0.670  0.5749  1.7252 -0.2303
 1457TIP3   OH225861   5.485   5.885  10.813  0.2972  0.1086  0.4548
 1457TIP3    H125862   5.481   5.888  10.717 -2.0053  4.4411  0.4040
 1457TIP3    H225863   5.414   5.825  10.838  1.6810 -2.0151 -0.4138
 1458TIP3   OH225864   3.681   0.193  14.773 -0.0877 -0.1481  0.5279
 1458TIP3    H125865   3.607   0.198  14.834 -0.4083 -1.9647  0.3380
 1458TIP3    H225866   3.727   0.276  14.785 -2.3922  1.2500  0.3133
 1459TIP3   OH225867   0.507   2.123   3.412  0.1080  0.2936  0.4684
 1459TIP3    H125868   0.554   2.045   3.439  1.3138 -0.2348 -2.6699
 1459TIP3    H225869   0.426   2.091   3.373 -0.2951  0.7838  0.8783
 1460TIP3   OH225870   1.284   5.158  14.620 -0.5677 -0.1332 -0.1597
 1460TIP3    H125871   1.226   5.232  14.637  1.1737  1.0484  1.0769
 1460TIP3    H225872   1.298   5.118  14.706  0.5582 -0.2771 -0.3880
 1461TIP3   OH225873   3.150   2.516   1.466 -0.0226  1.1193  0.4083
 1461TIP3    H125874   3.100   2.530   1.546 -1.8515  0.1829 -0.5031
 1461TIP3    H225875   3.191   2.431   1.477 -1.7437  0.1586 -0.3275
 1462TIP3   OH225876   6.626   2.481  14.787  0.6313  0.1330 -0.2374
 1462TIP3    H125877   6.625   2.465  14.693 -0.3509 -1.1929 -0.0340
 1462TIP3    H225878   6.579   2.564  14.798  0.3489  0.0605 -0.8798
 1463TIP3   OH225879   4.043   1.030  11.358  0.5941 -0.1885  0.2838
 1463TIP3    H125880   4.065   1.099  11.421  0.1751  0.3860 -0.1922
 1463TIP3    H225881   4.116   0.968  11.364  1.0045  0.3225  0.6678
 1464TIP3   OH225882   6.652   1.323   0.767 -0.0374 -0.3383 -0.8815
 1464TIP3    H125883   6.727   1.292   0.817  0.9719  0.2082 -2.0130
 1464TIP3    H225884   6.580   1.266   0.793  0.7860 -0.9253  0.1547
 1465TIP3   OH225885   6.740   6.151   3.826 -0.4188 -0.2995  0.3199
 1465TIP3    H125886   6.717   6.074   3.879 -0.0310 -0.3798  0.3774
 1465TIP3    H225887   6.826   6.130   3.790  0.4524  0.7811  1.6566
 1466TIP3   OH225888   1.124   2.831   2.812 -0.4786 -0.5382 -0.5751
 1466TIP3    H125889   1.142   2.895   2.743 -0.2721 -1.1768 -1.1174
 1466TIP3    H225890   1.037   2.854   2.844  0.1309  0.8505  0.1622
 1467TIP3   OH225891   3.078   0.850   0.893 -0.4426 -0.7785 -0.4485
 1467TIP3    H125892   3.173   0.837   0.895 -0.5405 -1.6752  1.6700
 1467TIP3    H225893   3.058   0.872   0.802  1.8186 -0.2801 -0.8785
 1468TIP3   OH225894   2.825   1.675  13.084  0.0864 -0.8895  0.4992
 1468TIP3    H125895   2.840   1.596  13.033  0.0513 -0.2842 -0.4765
 1468TIP3    H225896   2.870   1.744  13.035 -1.0765 -0.0591  0.5478
 1469TIP3   OH225897   3.212   3.692   1.623 -0.4933  0.4707  0.3257
 1469TIP3    H125898   3.191   3.687   1.716 -1.2036  1.0063  0.2060
 1469TIP3    H225899   3.168   3.772   1.593  2.0701  1.9143  0.1251
 1470TIP3   OH225900   4.038   1.601  16.690 -0.3714  0.3728 -0.2789
 1470TIP3    H125901   4.063   1.524  16.639 -1.3111  0.8413 -1.4848
 1470TIP3    H225902   3.942   1.597  16.694 -0.4040  1.2594  0.0199
 1471TIP3   OH225903   3.296   1.691  16.023  0.2190 -0.3947  0.2897
 1471TIP3    H125904   3.304   1.768  16.079  0.0836  0.7104 -1.1317
 1471TIP3    H225905   3.269   1.620  16.081  1.0379  0.4669  1.7582
 1472TIP3   OH225906   0.651   6.427  12.113  0.4127  0.0664 -0.1718
 1472TIP3    H125907   0.697   6.344  12.101  0.0403 -0.0599 -0.7603
 1472TIP3    H225908   0.672   6.478  12.034  0.6390  0.5358  0.1835
 1473TIP3   OH225909   0.535   6.473  11.116  0.4469  0.3279  0.0045
 1473TIP3    H125910   0.612   6.515  11.155 -0.0987  0.3132  1.1428
 1473TIP3    H225911   0.477   6.545  11.094  0.5138  0.3004 -0.2668
 1474TIP3   OH225912   0.405   0.334  12.295  0.3250  0.0667 -0.1654
 1474TIP3    H125913   0.339   0.286  12.243  1.3417 -1.4358 -0.1327
 1474TIP3    H225914   0.393   0.425  12.270 -1.2506 -0.2598 -0.7436
 1475TIP3   OH225915   2.349   4.457  12.813  0.4291 -0.4765 -0.5443
 1475TIP3    H125916   2.411   4.452  12.885  1.2020 -3.1762 -1.2838
 1475TIP3    H225917   2.291   4.381  12.826 -1.1246  0.5162 -1.3054
 1476TIP3   OH225918   3.226   0.897  12.496  0.4886  0.2995  0.0182
 1476TIP3    H125919   3.198   0.978  12.454  0.3394 -0.2444 -0.9596
 1476TIP3    H225920   3.144   0.854  12.521  0.5191 -0.1092 -0.5612
 1477TIP3   OH225921   2.563   0.652   6.438  0.1164  0.0855  0.7098
 1477TIP3    H125922   2.613   0.727   6.406  2.7919 -0.8264  2.3693
 1477TIP3    H225923   2.517   0.685   6.516  0.6378  0.2248  0.9647
 1478TIP3   OH225924   0.735   0.344  14.197  0.3624 -0.2044 -0.4204
 1478TIP3    H125925   0.642   0.329  14.215  0.1050 -0.0795 -1.5620
 1478TIP3    H225926   0.736   0.411  14.128  1.3606  1.2582  0.9322
 1479TIP3   OH225927   6.148   3.370  14.192 -0.1679  0.1822 -0.5822
 1479TIP3    H125928   6.178   3.296  14.139 -3.2651 -1.1339 -0.6798
 1479TIP3    H225929   6.201   3.365  14.272  1.1559 -0.7895 -1.4699
 1480TIP3   OH225930   0.158   6.047   2.203 -0.2544  0.5344 -0.2218
 1480TIP3    H125931   0.087   6.103   2.233 -0.3829 -0.1032  0.6841
 1480TIP3    H225932   0.154   5.970   2.260 -0.1047 -0.4199 -1.4674
 1481TIP3   OH225933   3.335   5.704  13.260 -0.3194  0.6699  0.2534
 1481TIP3    H125934   3.275   5.641  13.221  1.0874 -0.3697 -0.3132
 1481TIP3    H225935   3.339   5.776  13.197  1.1078 -0.5115 -1.1010
 1482TIP3   OH225936   0.923   2.423   5.626 -0.0414 -0.6637 -0.0354
 1482TIP3    H125937   0.965   2.408   5.710  1.1244 -0.9274 -0.6478
 1482TIP3    H225938   0.921   2.519   5.617  1.0829 -0.6567 -0.3089
 1483TIP3   OH225939   1.411   3.276  11.301  0.0898 -0.2493  0.0026
 1483TIP3    H125940   1.400   3.227  11.219 -3.2267 -0.4376  0.4080
 1483TIP3    H225941   1.366   3.222  11.366  1.3017  0.6684  1.6510
 1484TIP3   OH225942   0.612   1.895  15.448 -0.0923  0.0647 -0.6723
 1484TIP3    H125943   0.528   1.898  15.494  0.0757  0.8362 -0.4094
 1484TIP3    H225944   0.652   1.813  15.477 -0.4927 -0.0212 -0.3514
 1485TIP3   OH225945   6.245   4.864  14.698  0.2962  0.0006  0.3442
 1485TIP3    H125946   6.324   4.903  14.662 -0.7563  1.2138 -0.7616
 1485TIP3    H225947   6.221   4.796  14.634  2.0320 -2.5494  2.1740
 1486TIP3   OH225948   1.237   6.536   2.747 -0.2927  0.4919  0.6779
 1486TIP3    H125949   1.203   6.459   2.701 -0.9069  0.1014  1.7477
 1486TIP3    H225950   1.181   6.608   2.718  0.4282  0.5940 -0.4999
 1487TIP3   OH225951   5.691   1.547   3.520  0.0482  0.0331  0.4257
 1487TIP3    H125952   5.670   1.621   3.577 -1.2280  0.1336 -0.1319
 1487TIP3    H225953   5.611   1.495   3.518  0.9470 -1.4090  0.8511
 1488TIP3   OH225954   1.311   4.893   5.708  0.0135  0.5071  0.2937
 1488TIP3    H125955   1.245   4.883   5.640  1.1316 -0.8226 -0.6613
 1488TIP3    H225956   1.352   4.978   5.690 -0.2517  0.5327 -0.1884
 1489TIP3   OH225957   2.658   6.748  11.656  0.0784 -0.7793  0.9457
 1489TIP3    H125958   2.646   6.831  11.611  2.1773 -0.1990  1.3298
 1489TIP3    H225959   2.750   6.749  11.683  0.0097 -2.9901  1.4449
 1490TIP3   OH225960   3.280   6.234  12.677 -0.0334  0.4549  0.0079
 1490TIP3    H125961   3.259   6.304  12.615 -1.0430 -1.7952 -2.4056
 1490TIP3    H225962   3.364   6.200  12.646 -0.1342 -0.1444  0.3724
 1491TIP3   OH225963   5.939   3.701  15.976  0.1751 -0.3700 -0.4573
 1491TIP3    H125964   5.860   3.700  16.029 -1.6646  0.0808 -2.9976
 1491TIP3    H225965   5.990   3.626  16.006 -2.3927 -2.2117 -0.3606
 1492TIP3   OH225966   3.201   3.033  15.236 -0.0724 -0.2102 -0.5140
 1492TIP3    H125967   3.108   3.053  15.246 -0.0437  0.0080 -0.6751
 1492TIP3    H225968   3.245   3.091  15.299  0.0432  0.5530 -1.2842
 1493TIP3   OH225969   2.560   4.435  12.985  0.0350  0.0554  0.1103
 1493TIP3    H125970   2.564   4.507  13.048  0.3279  0.5276 -0.4354
 1493TIP3    H225971   2.580   4.357  13.037  1.9236  0.6138  0.3229
 1494TIP3   OH225972   5.550   5.035   1.454 -0.0517  0.5365 -0.7248
 1494TIP3    H125973   5.533   5.123   1.487 -2.0975 -0.6935  1.9170
 1494TIP3    H225974   5.507   5.032   1.368  0.3342  2.1753 -1.0038
 1495TIP3   OH225975   6.509   6.085  11.212 -0.2384 -0.2706  0.4056
 1495TIP3    H125976   6.441   6.151  11.200  0.3233  0.7861  2.5906
 1495TIP3    H225977   6.496   6.052  11.301  2.2806  0.2245  1.0267
 1496TIP3   OH225978   1.311   3.999  16.224  0.1390 -0.9927 -0.2886
 1496TIP3    H125979   1.304   3.975  16.132 -0.2688 -0.3421 -0.4346
 1496TIP3    H225980   1.221   4.002  16.255  0.1439  0.5459 -0.3451
 1497TIP3   OH225981   2.246   3.240  13.723 -0.0718  0.3923  0.0450
 1497TIP3    H125982   2.229   3.306  13.790  0.1881 -0.9281  1.4446
 1497TIP3    H225983   2.336   3.255  13.696  0.0737  0.4276  0.5530
 1498TIP3   OH225984   3.946   5.251   3.870  0.0443  0.1078 -0.7147
 1498TIP3    H125985   3.898   5.185   3.920  1.5377 -0.3098  0.2529
 1498TIP3    H225986   3.965   5.208   3.787  1.9199 -1.1894  0.2850
 1499TIP3   OH225987   4.676   3.153   3.450  0.2936 -0.4456  0.4471
 1499TIP3    H125988   4.629   3.208   3.388 -0.3949 -2.7829 -1.2672
 1499TIP3    H225989   4.749   3.117   3.399  0.9509 -0.7917  1.6032
 1500TIP3   OH225990   4.979   2.345   2.876 -0.0273  0.2031  0.1506
 1500TIP3    H125991   5.016   2.400   2.807  0.7835 -1.0780 -0.4677
 1500TIP3    H225992   5.009   2.256   2.856 -0.4758 -0.3388  1.6782
 1501TIP3   OH225993   2.794   4.784  15.659  0.2463 -0.5558  0.3968
 1501TIP3    H125994   2.724   4.746  15.712 -2.2754  2.3706 -0.5678
 1501TIP3    H225995   2.813   4.868  15.701  1.7754 -0.3854 -0.5581
 1502TIP3   OH225996   2.255   5.310   1.691 -0.1165 -0.8718  0.2074
 1502TIP3    H125997   2.214   5.259   1.760 -2.4706 -0.4461 -0.7907
 1502TIP3    H225998   2.293   5.245   1.632  0.1886 -1.2928  0.8513
 1503TIP3   OH225999   5.737   2.215   4.325  0.1856  0.0777  0.1931
 1503TIP3    H126000   5.821   2.259   4.340 -0.8831  2.3228  0.0753
 1503TIP3    H226001   5.673   2.286   4.325 -1.7339 -1.5614  0.2631
 1504TIP3   OH226002   0.161   4.744   3.642  0.6199  0.1690  0.0620
 1504TIP3    H126003   0.123   4.759   3.729  0.3675 -0.3961  0.0523
 1504TIP3    H226004   0.129   4.818   3.589 -0.1218 -0.0641  0.1653
 1505TIP3   OH226005   0.625   0.057   1.057 -0.1114 -0.2842 -0.5600
 1505TIP3    H126006   0.623  -0.032   1.021 -3.0908 -0.0940 -1.1475
 1505TIP3    H226007   0.678   0.107   0.995  0.7337 -1.4266 -0.7886
 1506TIP3   OH226008   2.615   0.312   0.138  0.0254 -0.2223  0.1605
 1506TIP3    H126009   2.629   0.363   0.058 -0.1566 -0.7129 -0.1854
 1506TIP3    H226010   2.700   0.314   0.182  0.8766 -2.0401 -1.2718
 1507TIP3   OH226011   0.991   0.134   4.844  0.5418 -0.0354 -0.6461
 1507TIP3    H126012   0.962   0.134   4.753  0.1251  1.3945 -0.5291
 1507TIP3    H226013   1.006   0.226   4.865 -3.0299  0.1923  1.8355
 1508TIP3   OH226014   1.696   1.790  13.994  0.6621 -0.5164 -0.2443
 1508TIP3    H126015   1.721   1.861  13.935  1.9693 -1.0299 -0.3541
 1508TIP3    H226016   1.778   1.742  14.009 -0.1504 -1.8850 -0.0297
 1509TIP3   OH226017   4.658   4.469  16.488  0.0858 -0.0884 -0.4558
 1509TIP3    H126018   4.645   4.424  16.404  0.9953  1.0465 -1.2213
 1509TIP3    H226019   4.661   4.562  16.465 -0.9404  0.3352  1.0084
 1510TIP3   OH226020   4.721   1.372   2.157  0.7948  0.5092 -0.0601
 1510TIP3    H126021   4.786   1.347   2.091 -0.4747 -0.0631 -1.1339
 1510TIP3    H226022   4.678   1.289   2.181 -0.3531  1.0290 -0.2699
 1511TIP3   OH226023   0.081   3.874  11.570 -0.1757  0.0056 -0.4239
 1511TIP3    H126024   0.125   3.877  11.485  0.3357  1.3823 -0.1468
 1511TIP3    H226025   0.074   3.781  11.591 -0.6285 -0.3731 -2.1233
 1512TIP3   OH226026   0.214   1.779  13.867 -0.1809 -0.4386 -0.2869
 1512TIP3    H126027   0.152   1.820  13.807 -0.3296  0.0972  0.2244
 1512TIP3    H226028   0.162   1.758  13.944  0.2949  0.1244  0.1957
 1513TIP3   OH226029   6.598   5.841  14.647  0.1994  0.4215 -0.0841
 1513TIP3    H126030   6.640   5.789  14.715 -0.8472 -1.4727 -0.7975
 1513TIP3    H226031   6.670   5.876  14.595  0.9788  1.0885  1.3546
 1514TIP3   OH226032   0.265   0.679   4.714 -0.0507  0.0313  0.6136
 1514TIP3    H126033   0.186   0.658   4.764 -1.5613  1.9847 -0.7875
 1514TIP3    H226034   0.316   0.737   4.772  0.0126 -0.6520  1.2473
 1515TIP3   OH226035   1.727   2.299   3.763 -0.3744 -1.0249 -0.0693
 1515TIP3    H126036   1.721   2.209   3.795 -0.2605 -0.8735  0.3852
 1515TIP3    H226037   1.675   2.349   3.825 -0.5506 -0.7931 -0.4003
 1516TIP3   OH226038   0.807   5.891  15.463 -0.0534 -0.0257 -0.3566
 1516TIP3    H126039   0.762   5.842  15.394  1.3021 -1.3703 -0.3375
 1516TIP3    H226040   0.890   5.917  15.424  0.4995 -0.3251  0.5906
 1517TIP3   OH226041   6.144   2.336   0.684  1.3240  0.0170  0.3161
 1517TIP3    H126042   6.218   2.397   0.684  1.0579  0.3463  1.1918
 1517TIP3    H226043   6.184   2.251   0.705  1.3473  0.3585  1.7763
 1518TIP3   OH226044   6.701   0.246  16.455  0.2129 -0.0495 -0.0501
 1518TIP3    H126045   6.616   0.252  16.499  0.3201  0.3152  0.1094
 1518TIP3    H226046   6.765   0.243  16.526  0.4189  1.0273 -0.1642
 1519TIP3   OH226047   0.519   2.781   1.134  0.2453  0.0327  0.7061
 1519TIP3    H126048   0.458   2.853   1.122 -0.9258 -0.7344  1.7859
 1519TIP3    H226049   0.593   2.819   1.181  0.0536  0.7126  0.4629
 1520TIP3   OH226050   5.536   5.232   0.196 -0.2560  0.3498 -0.0759
 1520TIP3    H126051   5.515   5.292   0.125  0.3496  1.2424  0.4804
 1520TIP3    H226052   5.607   5.178   0.162 -0.1851  0.5597 -0.2639
 1521TIP3   OH226053   3.989   4.155   4.600  0.2760 -0.3293  0.3991
 1521TIP3    H126054   4.035   4.213   4.539  0.1791 -0.4785  0.1785
 1521TIP3    H226055   4.034   4.071   4.590 -1.3205 -1.0537 -1.3762
 1522TIP3   OH226056   2.318   0.264  10.920  0.0257 -0.2866  0.2075
 1522TIP3    H126057   2.308   0.170  10.908  0.2186 -0.5342  1.8653
 1522TIP3    H226058   2.377   0.291  10.849 -0.8575 -1.2063 -0.9183
 1523TIP3   OH226059   4.315   0.326   5.011  0.4481 -0.0066  0.2801
 1523TIP3    H126060   4.395   0.279   4.988  0.4013  1.0905 -2.4670
 1523TIP3    H226061   4.261   0.322   4.932 -2.2440 -0.6463  2.0230
 1524TIP3   OH226062   3.321   2.975  16.755  0.1897 -0.1046 -0.3576
 1524TIP3    H126063   3.407   2.935  16.761  0.5139  0.6438  0.1507
 1524TIP3    H226064   3.285   2.969  16.844  1.1422  2.6189  0.3283
 1525TIP3   OH226065   0.640   5.438   3.083 -0.4524  0.3522  0.4793
 1525TIP3    H126066   0.684   5.497   3.022  0.1547 -0.3910  0.1886
 1525TIP3    H226067   0.551   5.473   3.090 -0.9906 -0.3587 -1.9645
 1526TIP3   OH226068   5.960   6.695  13.377 -0.5254  0.0373  0.2958
 1526TIP3    H126069   5.906   6.633  13.426 -0.5090  0.6926  1.1727
 1526TIP3    H226070   5.981   6.650  13.295  0.0130 -1.3686  1.1759
 1527TIP3   OH226071   2.907   2.088   4.821 -0.3626 -0.1718 -0.1056
 1527TIP3    H126072   2.811   2.093   4.820 -0.3987  0.0520  1.8424
 1527TIP3    H226073   2.935   2.175   4.851  0.5203  0.0966 -1.5901
 1528TIP3   OH226074   0.564   0.591  11.487  0.5906  0.0179 -0.3244
 1528TIP3    H126075   0.506   0.641  11.429 -0.9604  0.1742  1.2967
 1528TIP3    H226076   0.561   0.502  11.452  0.1195  0.2251 -0.8260
 1529TIP3   OH226077   0.701   2.877   1.323  0.3453  0.1581  0.1725
 1529TIP3    H126078   0.738   2.965   1.323 -0.2078  0.3950 -0.3843
 1529TIP3    H226079   0.669   2.864   1.412  0.9103  0.3088  0.4022
 1530TIP3   OH226080   6.604   6.269   6.393 -0.0774  0.0221 -0.2448
 1530TIP3    H126081   6.661   6.317   6.453  0.4151 -0.0389 -0.6582
 1530TIP3    H226082   6.651   6.269   6.310 -0.7140  0.0317 -0.6139
 1531TIP3   OH226083   1.746   2.531  11.957 -0.4044  0.3752 -0.0570
 1531TIP3    H126084   1.734   2.437  11.968 -2.1347  0.7218  1.4708
 1531TIP3    H226085   1.817   2.553  12.017  1.4006 -0.1901 -1.8657
 1532TIP3   OH226086   2.096   1.493  13.936 -0.0028 -0.8145  0.3818
 1532TIP3    H126087   2.045   1.451  14.005  0.3256 -1.9404 -0.0483
 1532TIP3    H226088   2.030   1.529  13.877 -0.3651 -2.7200 -0.4559
 1533TIP3   OH226089   3.865   3.265   3.922 -0.4747 -0.1705 -0.2818
 1533TIP3    H126090   3.917   3.186   3.904 -1.3525 -0.6138 -0.9600
 1533TIP3    H226091   3.786   3.254   3.870 -2.1439 -0.4035  2.1383
 1534TIP3   OH226092   6.686   2.998  15.211 -0.3889 -0.2179 -0.4833
 1534TIP3    H126093   6.637   3.064  15.162 -2.0350 -0.8286  0.2358
 1534TIP3    H226094   6.645   2.997  15.297  2.1492  0.5294  0.8310
 1535TIP3   OH226095   2.767   4.476  16.984 -0.5551  0.0356 -0.2808
 1535TIP3    H126096   2.702   4.438  16.925  1.2361 -0.2149 -2.2077
 1535TIP3    H226097   2.840   4.415  16.981 -0.0155  0.5331  1.4889
 1536TIP3   OH226098   5.448   4.830   0.695  0.2936  0.1493  0.5758
 1536TIP3    H126099   5.495   4.907   0.663 -0.2040  0.2594  0.0966
 1536TIP3    H226100   5.356   4.855   0.691  0.1636 -0.2661  0.9641
 1537TIP3   OH226101   2.667   3.179   4.674  0.1319  0.6260 -0.3672
 1537TIP3    H126102   2.745   3.154   4.724  0.3527  0.9892 -0.5261
 1537TIP3    H226103   2.651   3.270   4.699 -0.1150  0.6193 -0.4978
 1538TIP3   OH226104   3.477   3.683  15.969 -0.1542  0.5148 -0.1508
 1538TIP3    H126105   3.410   3.628  16.009 -0.0106  0.1434 -0.4165
 1538TIP3    H226106   3.431   3.733  15.901 -0.1419  0.1839 -0.4024
 1539TIP3   OH226107   1.435   4.065   2.361 -0.1867  0.3748 -0.3192
 1539TIP3    H126108   1.370   4.056   2.430 -0.4308  0.3844 -0.5447
 1539TIP3    H226109   1.396   4.020   2.286  0.7520 -1.0101 -0.0018
 1540TIP3   OH226110   6.160   2.778  13.976 -1.0504 -0.0014 -0.8821
 1540TIP3    H126111   6.137   2.774  13.883 -2.2607  2.8719 -0.7964
 1540TIP3    H226112   6.246   2.818  13.978  0.0487 -2.2101 -0.7791
 1541TIP3   OH226113   6.272   0.597   5.094 -0.3306  0.2091  0.1710
 1541TIP3    H126114   6.258   0.626   5.184  2.5625  2.9434 -0.1015
 1541TIP3    H226115   6.194   0.627   5.047 -0.0387  2.6003  1.0648
 1542TIP3   OH226116   0.443   0.745  15.384  0.1059  0.4731  0.7191
 1542TIP3    H126117   0.467   0.746  15.476 -1.4286  1.7111  1.1546
 1542TIP3    H226118   0.463   0.833  15.352 -1.2278  0.6924  0.4239
 1543TIP3   OH226119   5.656   3.818  12.262  0.0953  0.0873 -0.2135
 1543TIP3    H126120   5.705   3.837  12.181 -0.0625 -1.2868 -0.6614
 1543TIP3    H226121   5.574   3.866  12.252 -0.1923 -0.5634 -1.1802
 1544TIP3   OH226122   0.546   0.112  17.098  0.1235 -0.7346  0.2358
 1544TIP3    H126123   0.567   0.133  17.189 -0.3387  0.4035  0.0915
 1544TIP3    H226124   0.453   0.130  17.089  0.0688 -1.2586 -0.3553
 1545TIP3   OH226125   0.006   6.040   0.799  0.1500 -0.1031  0.0077
 1545TIP3    H126126  -0.048   6.098   0.745  0.1595  0.6397  0.7684
 1545TIP3    H226127   0.030   6.094   0.875 -2.2137 -1.8621  2.2147
 1546TIP3   OH226128   3.205   3.911   1.178 -0.0174 -0.8622  0.1870
 1546TIP3    H126129   3.294   3.881   1.197  1.0422  1.3121 -0.9382
 1546TIP3    H226130   3.207   3.933   1.085 -1.2522  0.7329  0.4997
 1547TIP3   OH226131   3.000   3.332  14.107  0.0365 -0.1041  0.5004
 1547TIP3    H126132   3.084   3.363  14.142  0.6885 -0.0366 -1.0323
 1547TIP3    H226133   2.935   3.394  14.142  0.8726  0.9678  0.2055
 1548TIP3   OH226134   1.942   1.211   0.474 -0.1412 -0.2611  0.2138
 1548TIP3    H126135   1.961   1.199   0.381  2.6133  0.5665  0.5957
 1548TIP3    H226136   1.927   1.305   0.483  2.0392  0.0668  0.9266
 1549TIP3   OH226137   4.296   5.379   5.396 -0.3976  0.2038 -0.0448
 1549TIP3    H126138   4.383   5.404   5.428 -0.3661 -0.1130  0.1183
 1549TIP3    H226139   4.263   5.317   5.461 -1.0231  0.8273  0.2605
 1550TIP3   OH226140   1.657   0.570   6.362 -0.2077 -0.1944 -0.2057
 1550TIP3    H126141   1.643   0.653   6.407 -0.4771 -0.0133 -0.6185
 1550TIP3    H226142   1.569   0.533   6.353 -0.1494 -0.2499 -0.5445
 1551TIP3   OH226143   6.253   3.350  14.690 -0.1488  0.5503  0.0613
 1551TIP3    H126144   6.322   3.414  14.702  0.3749  0.1607 -0.7857
 1551TIP3    H226145   6.175   3.391  14.727 -0.1776  2.3322 -1.8107
 1552TIP3   OH226146   1.055   2.888   4.103 -0.3809  0.2774  0.9921
 1552TIP3    H126147   1.063   2.818   4.168  0.1320  0.7814  1.4828
 1552TIP3    H226148   1.036   2.842   4.021  1.7995 -0.6145  0.9170
 1553TIP3   OH226149   2.919   0.634   3.070  0.1022  0.1261 -0.3534
 1553TIP3    H126150   2.847   0.575   3.091  2.3519 -1.9324  2.5063
 1553TIP3    H226151   2.890   0.720   3.103 -1.4320 -0.3868 -0.2831
 1554TIP3   OH226152   1.528   6.356   3.802 -0.5537  0.1784  0.0139
 1554TIP3    H126153   1.465   6.367   3.732  1.6937  1.2670 -1.9990
 1554TIP3    H226154   1.593   6.426   3.787  0.9133 -0.6055  2.1693
 1555TIP3   OH226155   2.715   4.614  11.581  0.0193  0.1836 -0.2156
 1555TIP3    H126156   2.673   4.626  11.666  3.5226  0.0111  1.7522
 1555TIP3    H226157   2.781   4.546  11.596  0.0895 -0.6130 -3.3970
 1556TIP3   OH226158   4.868   3.073  14.084 -0.4168 -0.3768  0.1267
 1556TIP3    H126159   4.791   3.018  14.068  0.2712 -1.0757 -0.9212
 1556TIP3    H226160   4.941   3.022  14.049  0.4498  0.5259  0.5877
 1557TIP3   OH226161   3.160   6.093  14.504 -0.4084 -0.2541  1.0634
 1557TIP3    H126162   3.152   6.142  14.586 -0.9670 -2.0362  2.1432
 1557TIP3    H226163   3.190   6.006  14.531  2.8595  0.0434 -0.9668
 1558TIP3   OH226164   4.581   3.943   3.165 -0.4811  0.0109 -0.1369
 1558TIP3    H126165   4.537   3.858   3.170  0.8275 -0.7436 -0.9897
 1558TIP3    H226166   4.513   4.003   3.134 -1.5426 -0.6036  0.8995
 1559TIP3   OH226167   5.547   4.427   1.568  0.2205 -0.6231 -0.2401
 1559TIP3    H126168   5.623   4.485   1.568  0.6668 -1.2023 -0.2664
 1559TIP3    H226169   5.532   4.407   1.476 -2.2131  2.3582 -0.6595
 1560TIP3   OH226170   5.089   4.778  15.740 -0.1376  0.2919  0.0739
 1560TIP3    H126171   4.998   4.749  15.727  0.0713  0.2382 -1.4902
 1560TIP3    H226172   5.127   4.710  15.796 -1.0645  0.3594  0.8295
 1561TIP3   OH226173   1.319   1.285   0.680 -0.8977 -0.4371 -0.7236
 1561TIP3    H126174   1.270   1.282   0.763  1.5057  1.8256  0.9661
 1561TIP3    H226175   1.273   1.351   0.628 -0.7924  0.2408  0.0229
 1562TIP3   OH226176   1.935   1.261   2.317 -0.0869 -0.5254 -0.5048
 1562TIP3    H126177   1.991   1.208   2.374 -0.4744 -0.2061  0.1882
 1562TIP3    H226178   1.964   1.241   2.228  2.0495  0.6395 -0.1252
 1563TIP3   OH226179   0.518   4.543  11.123  0.1153 -0.7465 -0.2555
 1563TIP3    H126180   0.562   4.536  11.208  1.7312  1.2470 -0.8439
 1563TIP3    H226181   0.498   4.636  11.113 -0.4319 -1.0004 -1.8612
 1564TIP3   OH226182   4.040   3.751   1.237  0.2591  0.9545  0.2096
 1564TIP3    H126183   4.065   3.760   1.329  0.3197  1.4045  0.1507
 1564TIP3    H226184   3.944   3.758   1.238  0.0477 -1.2929  0.4980
 1565TIP3   OH226185   4.700   3.036   4.804 -0.2570 -0.0780  0.3717
 1565TIP3    H126186   4.723   3.039   4.897  1.5699  1.4668 -0.0797
 1565TIP3    H226187   4.704   3.127   4.775 -3.0974 -0.1893 -0.7598
 1566TIP3   OH226188   5.943   6.439  10.579 -0.4525  0.1480 -0.2214
 1566TIP3    H126189   5.887   6.383  10.633  0.2937 -2.2919 -1.8721
 1566TIP3    H226190   6.031   6.404  10.591  0.0320  0.9144 -1.3938
 1567TIP3   OH226191   2.888   3.241  15.625  0.0672  0.0187 -0.3932
 1567TIP3    H126192   2.838   3.259  15.545 -0.2977 -0.9457 -0.4025
 1567TIP3    H226193   2.822   3.211  15.688  0.2651  1.3206  0.4742
 1568TIP3   OH226194   1.519   6.046   0.510  0.3211 -0.2322 -0.2701
 1568TIP3    H126195   1.582   5.975   0.500  0.3055 -0.3587  0.4396
 1568TIP3    H226196   1.569   6.126   0.494  0.4672 -0.3742 -0.5244
 1569TIP3   OH226197   3.012   0.960  11.502  0.1560 -0.3026  0.3365
 1569TIP3    H126198   3.086   0.935  11.558  0.2725  0.6223  0.6130
 1569TIP3    H226199   3.033   1.049  11.473  0.1400 -0.7988 -1.2634
 1570TIP3   OH226200   6.773   1.815   2.372 -0.4762  0.0177  0.0140
 1570TIP3    H126201   6.824   1.833   2.293  0.8932 -0.2219  0.8176
 1570TIP3    H226202   6.682   1.825   2.344  0.0160  1.5289 -1.1883
 1571TIP3   OH226203   0.113   1.356  12.338 -0.2827 -0.4087 -0.2197
 1571TIP3    H126204   0.051   1.398  12.278 -0.7574  1.9852  1.7890
 1571TIP3    H226205   0.169   1.303  12.281 -0.6508  1.7741 -2.7941
 1572TIP3   OH226206   1.338   4.007   4.032  0.2334  0.4594 -0.2277
 1572TIP3    H126207   1.277   3.964   3.973 -0.7813  2.6389 -0.8567
 1572TIP3    H226208   1.417   4.020   3.980 -0.0166  0.7614 -0.5339
 1573TIP3   OH226209   6.458   3.113   2.401  0.5581 -0.0364 -0.1379
 1573TIP3    H126210   6.525   3.053   2.435 -0.6553 -1.6978 -0.5072
 1573TIP3    H226211   6.455   3.093   2.307 -0.1908  0.2810 -0.1799
 1574TIP3   OH226212   4.900   1.756  15.513  0.3908 -0.0889  0.3000
 1574TIP3    H126213   4.840   1.710  15.571  1.2119 -1.0993  0.3623
 1574TIP3    H226214   4.954   1.687  15.474  0.5159  0.6607 -0.9065
 1575TIP3   OH226215   6.134   2.163  12.010 -0.3149  1.0092 -0.5207
 1575TIP3    H126216   6.172   2.212  12.083 -0.1924  0.2679 -0.0764
 1575TIP3    H226217   6.192   2.182  11.936  1.6392 -0.9083  0.3707
 1576TIP3   OH226218   1.313   5.286   2.387 -0.1625  0.4302  0.0296
 1576TIP3    H126219   1.264   5.229   2.446  0.1076  0.0706 -0.0868
 1576TIP3    H226220   1.257   5.362   2.374  0.2362  1.0488  1.6470
 1577TIP3   OH226221   1.253   6.363   0.557  0.5767 -0.0735 -0.4293
 1577TIP3    H126222   1.306   6.384   0.481  1.0416  1.7288  0.3489
 1577TIP3    H226223   1.179   6.424   0.554  0.7262  0.1933  0.6611
 1578TIP3   OH226224   4.855   1.427  12.831 -0.8770 -0.0129  0.2511
 1578TIP3    H126225   4.906   1.378  12.896 -0.2037  0.8583  0.4038
 1578TIP3    H226226   4.765   1.423  12.863 -0.8102 -0.9877  0.3496
 1579TIP3   OH226227   1.924   0.086  15.446  0.7922  0.3030 -0.3148
 1579TIP3    H126228   1.849   0.038  15.410  0.5238  0.1585  0.4152
 1579TIP3    H226229   1.980   0.103  15.371  0.3864 -0.2486 -0.7510
 1580TIP3   OH226230   1.338   1.240  15.823  0.0936  0.3094  0.0885
 1580TIP3    H126231   1.295   1.175  15.768  2.7842 -2.4608  0.9495
 1580TIP3    H226232   1.403   1.281  15.766 -0.9452  1.6379 -0.1939
 1581TIP3   OH226233   0.062   3.288  14.118  0.5505  0.4325 -0.1692
 1581TIP3    H126234   0.016   3.209  14.091  2.7706 -1.5653  1.4757
 1581TIP3    H226235  -0.004   3.340  14.165 -0.5394 -1.3299  0.3496
 1582TIP3   OH226236   4.892   3.323  12.759 -0.2196 -0.4528 -0.8385
 1582TIP3    H126237   4.918   3.412  12.736  0.5317 -0.5040 -0.2389
 1582TIP3    H226238   4.797   3.327  12.770 -0.3826 -0.0649 -2.2529
 1583TIP3   OH226239   3.963   5.346   0.057 -0.5125  0.6355 -0.3364
 1583TIP3    H126240   3.986   5.275   0.117  0.4917  0.7833 -0.5314
 1583TIP3    H226241   4.047   5.386   0.033 -1.0391  1.7279 -0.4289
 1584TIP3   OH226242   1.186   1.565  11.101 -0.4547 -0.0757 -0.1480
 1584TIP3    H126243   1.148   1.550  11.014 -0.4040 -1.0036 -0.0136
 1584TIP3    H226244   1.115   1.543  11.162  0.2640 -1.7986  0.1064
 1585TIP3   OH226245   2.618   1.163   1.385 -0.0409 -0.7232 -0.8070
 1585TIP3    H126246   2.634   1.088   1.328  1.6362 -1.7288  0.8710
 1585TIP3    H226247   2.583   1.231   1.327  0.3215 -2.1320 -2.7523
 1586TIP3   OH226248   4.414   0.013  16.768 -0.0396  0.3062 -0.5958
 1586TIP3    H126249   4.485   0.074  16.790 -0.1391  0.9592 -1.9962
 1586TIP3    H226250   4.381  -0.017  16.853  2.4934 -0.7294  0.1154
 1587TIP3   OH226251   0.792   5.668   6.175  0.2519 -0.3510 -0.8369
 1587TIP3    H126252   0.857   5.683   6.106  1.5107  1.3489  0.6096
 1587TIP3    H226253   0.745   5.751   6.182  0.4996 -0.3105  0.6521
 1588TIP3   OH226254   0.745   6.595  11.228 -0.1204  0.0943 -0.2136
 1588TIP3    H126255   0.783   6.604  11.315 -1.5439  1.7947  0.2823
 1588TIP3    H226256   0.812   6.630  11.169  0.8665 -1.1094  0.1384
 1589TIP3   OH226257   3.983   3.548   4.140 -0.3420  1.0673 -0.3126
 1589TIP3    H126258   4.069   3.587   4.156  0.4952  0.1831 -2.3399
 1589TIP3    H226259   3.989   3.512   4.052 -2.8405  1.0369 -0.5447
 1590TIP3   OH226260   5.457   6.723   0.692  0.2579 -0.6811  0.6206
 1590TIP3    H126261   5.541   6.767   0.709 -0.2639  0.4288  0.3970
 1590TIP3    H226262   5.427   6.696   0.778  0.8737 -1.1437  0.6982
 1591TIP3   OH226263   3.292   0.293   5.030  0.3476  0.2979 -0.1054
 1591TIP3    H126264   3.261   0.347   4.958  0.5779 -0.3686 -0.7189
 1591TIP3    H226265   3.213   0.269   5.078  0.0441 -0.3042 -0.8891
 1592TIP3   OH226266   1.936   3.374  16.207 -0.0827  0.1459  0.4432
 1592TIP3    H126267   1.958   3.385  16.300  1.1495  0.6578  0.1196
 1592TIP3    H226268   2.008   3.321  16.172 -0.4507  0.1003 -0.2541
 1593TIP3   OH226269   4.412   0.678   4.179 -0.5203 -0.2790  0.1233
 1593TIP3    H126270   4.464   0.715   4.250  0.2078  0.6474 -0.8563
 1593TIP3    H226271   4.353   0.616   4.222  0.4444 -0.3328  1.4256
 1594TIP3   OH226272   5.650   1.545  10.644  0.0080 -0.4734  0.0982
 1594TIP3    H126273   5.632   1.555  10.551  1.4513 -0.1824 -0.1675
 1594TIP3    H226274   5.592   1.608  10.687 -0.5807 -0.5286 -0.6002
 1595TIP3   OH226275   5.219   3.484   1.018  0.5373 -0.0423  0.5215
 1595TIP3    H126276   5.256   3.418   1.077  0.2877 -0.8354 -0.1764
 1595TIP3    H226277   5.154   3.435   0.967  0.0688  0.8444  0.2566
 1596TIP3   OH226278   1.997   0.054  13.176  0.2558 -0.6282 -0.1612
 1596TIP3    H126279   2.029   0.089  13.259 -0.1555  1.6243 -0.8830
 1596TIP3    H226280   1.945  -0.023  13.201 -1.0345  0.8112  1.8326
 1597TIP3   OH226281   1.739   2.084   0.035  0.1192 -0.7589  0.3936
 1597TIP3    H126282   1.827   2.070   0.068  0.1367 -0.2912  0.5541
 1597TIP3    H226283   1.704   2.156   0.088 -0.5012 -1.1997  0.6002
 1598TIP3   OH226284   4.275   2.988  12.431  0.2718 -0.6748  0.0220
 1598TIP3    H126285   4.236   2.901  12.439  0.6964 -0.8409  0.3434
 1598TIP3    H226286   4.211   3.047  12.469 -0.1605 -0.8068 -0.4900
 1599TIP3   OH226287   2.107   1.663   2.999  0.4929 -0.3899 -0.1767
 1599TIP3    H126288   2.063   1.621   3.073  0.9427  0.8762  0.8518
 1599TIP3    H226289   2.064   1.626   2.922 -0.1326 -1.5925  0.7078
 1600TIP3   OH226290   6.462   0.010  13.535  0.4166 -0.1615  0.0288
 1600TIP3    H126291   6.467   0.036  13.443 -0.6478 -1.3663 -0.3968
 1600TIP3    H226292   6.368   0.004  13.553  0.6172 -0.5731  1.0201
 1601TIP3   OH226293   6.781   1.464  17.154 -0.1584  0.7718  0.0227
 1601TIP3    H126294   6.802   1.432  17.241 -1.8750  1.0468  0.5828
 1601TIP3    H226295   6.823   1.550  17.148  1.4479  0.0001 -0.1213
 1602TIP3   OH226296   5.007   0.276  16.631 -0.1709  0.7066 -0.6335
 1602TIP3    H126297   5.052   0.205  16.677 -0.6398  0.3365 -0.7423
 1602TIP3    H226298   5.078   0.324  16.586  0.1154  0.1065 -0.8351
 1603TIP3   OH226299   0.413   4.420  12.991  0.3649  0.7502  0.6715
 1603TIP3    H126300   0.440   4.473  13.067 -1.0042  2.8260 -0.1847
 1603TIP3    H226301   0.328   4.383  13.016  0.1539  1.0151  0.3622
 1604TIP3   OH226302   5.898   0.514  14.731 -0.3176  0.0516 -0.2600
 1604TIP3    H126303   5.940   0.526  14.817 -0.2464  0.1121 -0.3034
 1604TIP3    H226304   5.965   0.474  14.677 -0.5379 -0.5032 -0.1306
 1605TIP3   OH226305   2.825   5.862   3.061 -0.4135 -0.7193  0.8195
 1605TIP3    H126306   2.793   5.895   3.145 -0.0371 -1.3854  1.2268
 1605TIP3    H226307   2.893   5.924   3.036  0.5338 -1.3541  1.7530
 1606TIP3   OH226308   1.430   2.816  13.152 -0.5195 -0.7762 -0.5690
 1606TIP3    H126309   1.497   2.799  13.218 -1.1026 -1.2193 -0.0785
 1606TIP3    H226310   1.429   2.911  13.143 -1.5324 -0.5652  1.2612
 1607TIP3   OH226311   1.408   5.080  15.260  0.3385  0.7452  0.7082
 1607TIP3    H126312   1.315   5.100  15.270 -0.2292 -1.0781 -0.3048
 1607TIP3    H226313   1.431   5.114  15.174  0.5846  1.1229  0.9230
 1608TIP3   OH226314   6.799   3.190   1.265 -0.3693  0.4433 -0.0516
 1608TIP3    H126315   6.833   3.138   1.193 -0.4547  0.4326 -0.0836
 1608TIP3    H226316   6.733   3.246   1.225 -0.6252  0.2299  0.0733
 1609TIP3   OH226317   3.645   5.960   5.985  0.3337 -0.0647 -0.5666
 1609TIP3    H126318   3.588   5.920   6.050  0.5831  1.6319  0.7734
 1609TIP3    H226319   3.718   5.899   5.976 -0.0207 -0.6265  0.2805
 1610TIP3   OH226320   4.018   3.533  14.356 -0.4139  0.5529  0.1121
 1610TIP3    H126321   3.956   3.586  14.306  0.4448  0.8813 -0.6384
 1610TIP3    H226322   3.965   3.463  14.394 -1.0468  0.1078 -1.5236
 1611TIP3   OH226323   1.464   4.325   1.514  0.0980  0.0463  0.3105
 1611TIP3    H126324   1.555   4.295   1.523 -0.2678 -1.2174 -0.0289
 1611TIP3    H226325   1.420   4.254   1.467 -1.4470 -0.1118  1.9091
 1612TIP3   OH226326   6.406   4.105  15.336  0.1044 -0.2650  0.8284
 1612TIP3    H126327   6.499   4.125  15.348 -0.1441  1.0396  0.7846
 1612TIP3    H226328   6.365   4.191  15.323 -1.0254 -0.8691  0.2809
 1613TIP3   OH226329   0.559   6.683  16.862  0.1624 -0.0942 -0.0749
 1613TIP3    H126330   0.553   6.774  16.832 -0.9635  0.0643  0.5685
 1613TIP3    H226331   0.651   6.660  16.850  0.4081  1.0306 -0.5237
 1614TIP3   OH226332   6.542   4.510  11.388  0.3792 -0.7172  0.4884
 1614TIP3    H126333   6.581   4.560  11.459 -0.5476 -0.1433  0.6160
 1614TIP3    H226334   6.600   4.523  11.314  1.2429 -1.1428  1.0636
 1615TIP3   OH226335   0.768   1.156  10.671 -0.6021  0.4137 -0.0448
 1615TIP3    H126336   0.792   1.066  10.692 -3.0754 -0.5431 -0.8476
 1615TIP3    H226337   0.825   1.180  10.598  0.4922 -0.2636  0.5658
 1616TIP3   OH226338   3.146   3.709  11.793 -0.0751  0.4006  0.1784
 1616TIP3    H126339   3.227   3.760  11.803  0.8240 -0.4487 -2.0554
 1616TIP3    H226340   3.171   3.620  11.818 -0.3097  0.1427 -0.4823
 1617TIP3   OH226341   5.295   6.520  11.802 -0.2000  0.0960 -0.3126
 1617TIP3    H126342   5.261   6.526  11.713 -0.5689  0.5143 -0.1413
 1617TIP3    H226343   5.224   6.551  11.857  0.6175  1.4244  0.0187
 1618TIP3   OH226344   2.845   2.329   1.884  1.0207 -0.0054  0.3088
 1618TIP3    H126345   2.862   2.238   1.911  0.3644  0.1287  1.2071
 1618TIP3    H226346   2.922   2.378   1.914  0.3588  0.1226  1.9127
 1619TIP3   OH226347   5.231   1.354  12.365  0.3630  0.4270 -0.2153
 1619TIP3    H126348   5.207   1.389  12.279  1.3014 -0.1978 -0.7571
 1619TIP3    H226349   5.201   1.420  12.427  0.0529  1.0973 -1.0569
 1620TIP3   OH226350   2.777   2.675  16.372  0.4294 -0.2764 -0.6223
 1620TIP3    H126351   2.780   2.586  16.407  0.4137  0.4007  1.2057
 1620TIP3    H226352   2.833   2.725  16.431 -0.1492  1.0748 -1.1862
 1621TIP3   OH226353   0.453   4.283   3.091 -0.2816 -0.1206  0.2941
 1621TIP3    H126354   0.385   4.322   3.146 -0.2897  1.0807 -0.5402
 1621TIP3    H226355   0.409   4.214   3.043 -1.2461  1.4228 -1.1393
 1622TIP3   OH226356   3.414   2.530  11.495  0.0566  0.3570  0.3659
 1622TIP3    H126357   3.376   2.443  11.483 -0.0927  0.5565 -0.6872
 1622TIP3    H226358   3.407   2.572  11.409 -0.1343  1.5222  0.9298
 1623TIP3   OH226359   2.346   5.206   0.651  0.2623  0.6437 -0.8551
 1623TIP3    H126360   2.434   5.231   0.680  0.1574  0.9270 -0.7727
 1623TIP3    H226361   2.288   5.241   0.718  0.0286  1.1682 -1.3124
 1624TIP3   OH226362   6.477   1.049  11.500  0.2673  0.2575 -0.7646
 1624TIP3    H126363   6.402   1.075  11.446  1.0963 -0.1696 -2.1640
 1624TIP3    H226364   6.453   0.962  11.532 -0.2538  0.5367 -0.3714
 1625TIP3   OH226365   2.752   2.980   2.703 -0.4868 -0.3083 -0.4371
 1625TIP3    H126366   2.775   2.896   2.665 -0.0514 -0.8595  0.9715
 1625TIP3    H226367   2.661   2.971   2.729 -1.2030  0.5247 -2.4634
 1626TIP3   OH226368   5.003   5.878  15.696  0.6729 -0.3575 -0.3332
 1626TIP3    H126369   5.067   5.841  15.634 -1.6615  0.3782 -3.4237
 1626TIP3    H226370   4.926   5.822  15.687  1.0235 -1.9906  4.2343
 1627TIP3   OH226371   5.671   1.223   3.900  0.3573  0.0947  0.3847
 1627TIP3    H126372   5.615   1.301   3.907  1.5059  0.9412  0.5066
 1627TIP3    H226373   5.760   1.258   3.891  1.2076 -1.1747  2.7558
 1628TIP3   OH226374   3.419   1.104  15.159 -0.1737  0.2961 -0.0435
 1628TIP3    H126375   3.481   1.119  15.087  3.0240 -1.8511  2.0077
 1628TIP3    H226376   3.418   1.009  15.170 -0.5198  0.5584  2.7593
 1629TIP3   OH226377   1.707   4.241   2.101 -0.8276 -0.1576  0.1161
 1629TIP3    H126378   1.796   4.266   2.076 -0.3517 -0.8363  1.0669
 1629TIP3    H226379   1.654   4.259   2.023  0.2869 -0.5235 -0.7512
 1630TIP3   OH226380   6.475   2.275  12.114 -0.4427 -0.3527 -0.0768
 1630TIP3    H126381   6.450   2.336  12.184 -1.8172 -0.1401 -0.7350
 1630TIP3    H226382   6.524   2.206  12.160 -1.3760 -0.2540  1.1195
 1631TIP3   OH226383   3.028   2.443  14.716  0.5493  0.8963 -0.0778
 1631TIP3    H126384   3.103   2.436  14.657  1.3652  1.0610  0.9201
 1631TIP3    H226385   3.023   2.537  14.737 -0.5031  1.0317 -0.8336
 1632TIP3   OH226386   6.309   5.578  16.726 -0.5660  0.0962 -0.1981
 1632TIP3    H126387   6.331   5.612  16.813 -2.5873  0.7836  0.1026
 1632TIP3    H226388   6.328   5.651  16.667 -0.3628  0.0571 -0.1827
 1633TIP3   OH226389   2.537   3.381  11.480 -0.0864 -0.2453 -1.1310
 1633TIP3    H126390   2.499   3.357  11.396  0.0714  0.5810 -1.4555
 1633TIP3    H226391   2.630   3.361  11.471  0.2714  1.4663 -1.8365
 1634TIP3   OH226392   1.568   4.196  16.105  0.0526  0.5532  0.2639
 1634TIP3    H126393   1.511   4.169  16.033 -0.6285 -1.7143  1.5547
 1634TIP3    H226394   1.586   4.288  16.087 -1.3420  0.4876 -1.9550
 1635TIP3   OH226395   4.907   4.949  15.464 -0.6535 -0.1811 -0.1254
 1635TIP3    H126396   4.872   5.022  15.515  0.9757 -1.2839  2.7914
 1635TIP3    H226397   4.981   4.985  15.417 -1.3724  0.5585 -0.7195
 1636TIP3   OH226398   2.718   2.785  13.766  0.9866  1.0389  0.2135
 1636TIP3    H126399   2.798   2.732  13.771  0.8701  0.8218 -0.1683
 1636TIP3    H226400   2.707   2.804  13.672 -0.0731  0.0310  0.1075
 1637TIP3   OH226401   4.926   0.741   5.602 -0.0998  0.4598  0.0510
 1637TIP3    H126402   4.920   0.831   5.635  0.3873  0.9712 -1.1963
 1637TIP3    H226403   4.987   0.747   5.528  0.1215 -0.9446  0.0957
 1638TIP3   OH226404   0.959   4.267   4.765 -0.6096  0.8139 -0.9344
 1638TIP3    H126405   0.977   4.361   4.758  0.3649  0.6935 -0.2684
 1638TIP3    H226406   0.953   4.250   4.859 -0.1269  0.1080 -1.0164
 1639TIP3   OH226407   3.035   1.453   6.345  0.0402  0.7316 -0.5849
 1639TIP3    H126408   3.038   1.395   6.421  1.8621  2.1160  0.4748
 1639TIP3    H226409   2.971   1.412   6.287 -1.7107 -0.1897  1.8230
 1640TIP3   OH226410   3.793   3.279   0.375  0.4597 -0.4573 -0.5453
 1640TIP3    H126411   3.885   3.273   0.351  0.1157 -2.1831 -1.6423
 1640TIP3    H226412   3.780   3.210   0.440  0.3062  0.9897  1.0187
 1641TIP3   OH226413   1.742   3.767  17.033  0.5885 -0.3047  0.1412
 1641TIP3    H126414   1.685   3.736  16.962  0.1053  0.5681  0.1295
 1641TIP3    H226415   1.759   3.690  17.086 -0.0124 -0.7290 -0.2741
 1642TIP3   OH226416   0.565   4.932  12.067  0.1680 -0.2899 -0.3853
 1642TIP3    H126417   0.542   4.925  12.160  0.5784 -5.2818 -0.3898
 1642TIP3    H226418   0.640   4.991  12.065  0.8243 -0.8678  2.6684
 1643TIP3   OH226419   1.239   1.096  13.666  0.7325  0.9532 -0.4810
 1643TIP3    H126420   1.219   1.002  13.668 -0.5742  1.2062 -0.8479
 1643TIP3    H226421   1.227   1.124  13.757 -1.0564  1.1669 -0.7482
 1644TIP3   OH226422   3.023   3.965  13.812 -0.1647  0.7730  0.2148
 1644TIP3    H126423   3.002   4.056  13.834  1.4976  1.4112 -0.7250
 1644TIP3    H226424   3.021   3.919  13.896  0.2814  1.9441  0.8833
 1645TIP3   OH226425   5.455   6.583   4.356 -0.1286  0.0650 -0.4656
 1645TIP3    H126426   5.369   6.544   4.341  0.1858 -0.2438 -1.5510
 1645TIP3    H226427   5.505   6.515   4.401 -0.9063  0.7965  1.5958
 1646TIP3   OH226428   0.949   4.356   0.836 -0.2291  0.1127 -0.0696
 1646TIP3    H126429   0.911   4.275   0.870 -1.1822  0.8605  0.7240
 1646TIP3    H226430   1.034   4.363   0.880 -1.0150  0.5546  1.4637
 1647TIP3   OH226431   3.465   3.444   0.160 -0.2634 -0.1511  0.1769
 1647TIP3    H126432   3.441   3.355   0.189  1.3669 -0.0988  1.8541
 1647TIP3    H226433   3.387   3.475   0.114 -1.6380 -1.6879  1.3173
 1648TIP3   OH226434   5.277   2.494   3.364  0.0468  0.2127 -0.0508
 1648TIP3    H126435   5.330   2.508   3.286  1.4611 -2.2489  0.3811
 1648TIP3    H226436   5.189   2.480   3.330  0.3174  0.8079 -1.0588
 1649TIP3   OH226437   1.947   6.727   1.934 -0.2159  0.0187  0.1692
 1649TIP3    H126438   1.923   6.688   1.850  1.2526  1.1726 -0.8399
 1649TIP3    H226439   1.962   6.652   1.992  1.0131 -0.9212 -1.2834
 1650TIP3   OH226440   6.154   4.119   0.235 -0.5452  0.0048 -0.1957
 1650TIP3    H126441   6.215   4.176   0.282  0.3657 -1.8055  0.9581
 1650TIP3    H226442   6.070   4.130   0.280 -0.5458  0.8851 -0.3995
 1651TIP3   OH226443   5.348   6.285  14.337  0.3932  0.4514 -0.1437
 1651TIP3    H126444   5.296   6.280  14.417  1.8259  0.0196  0.7948
 1651TIP3    H226445   5.322   6.369  14.297 -1.0564  0.2179  0.2265
 1652TIP3   OH226446   5.613   3.196  12.543  0.0630 -0.4843  0.5655
 1652TIP3    H126447   5.683   3.220  12.604 -0.2975  0.8138  0.4792
 1652TIP3    H226448   5.654   3.202  12.457  0.2210 -1.0936  0.5926
 1653TIP3   OH226449   3.392   1.276   0.601 -0.0712 -0.3961 -0.5728
 1653TIP3    H126450   3.355   1.188   0.597 -0.4639 -0.1901 -2.0672
 1653TIP3    H226451   3.440   1.285   0.519 -1.2403  1.2851 -1.1170
 1654TIP3   OH226452   0.123   2.852   2.028  0.0356  0.5248 -1.0267
 1654TIP3    H126453   0.123   2.948   2.021  2.0305  0.5875 -0.6673
 1654TIP3    H226454   0.205   2.825   1.988  0.9868 -0.7882  1.5706
 1655TIP3   OH226455   5.127   2.722   1.913 -0.8152 -0.0591 -0.0415
 1655TIP3    H126456   5.037   2.724   1.882 -1.4032  0.3819  1.5806
 1655TIP3    H226457   5.136   2.634   1.952 -1.4378  0.7640  2.1274
 1656TIP3   OH226458   4.792   1.059   4.080 -0.4389 -0.4299 -0.0193
 1656TIP3    H126459   4.734   1.002   4.031  1.0946 -0.3903 -2.0145
 1656TIP3    H226460   4.779   1.034   4.172 -2.8363 -1.0520 -0.4753
 1657TIP3   OH226461   1.229   3.181   0.583 -0.2583  0.5601  0.1111
 1657TIP3    H126462   1.277   3.173   0.665  0.4938  0.2119 -0.3537
 1657TIP3    H226463   1.283   3.134   0.519 -1.9189 -1.1297 -0.1430
 1658TIP3   OH226464   1.618   5.028  14.255 -0.5730  0.2802  0.0184
 1658TIP3    H126465   1.685   5.014  14.323 -1.9819 -1.3023  1.1711
 1658TIP3    H226466   1.623   4.949  14.201 -1.0389  0.4763 -0.3175
 1659TIP3   OH226467   3.262   2.268   1.509 -0.1489  0.1560  0.3793
 1659TIP3    H126468   3.188   2.233   1.558  0.3799 -0.9802  0.3986
 1659TIP3    H226469   3.311   2.191   1.481 -0.2720  0.7710 -1.6957
 1660TIP3   OH226470   0.102   4.076  16.431 -0.1435  0.4005  0.0146
 1660TIP3    H126471   0.101   4.086  16.336  0.5083 -0.6390 -0.1201
 1660TIP3    H226472   0.020   4.032  16.452 -0.5953  1.2320  0.0163
 1661TIP3   OH226473   6.153   3.196   1.081 -0.2023  0.3144 -0.3649
 1661TIP3    H126474   6.201   3.277   1.064  1.5707 -0.7438 -0.6468
 1661TIP3    H226475   6.131   3.163   0.994 -1.0670  0.5698 -0.2459
 1662TIP3   OH226476   5.165   3.776   1.527 -0.0318  0.1810  0.5214
 1662TIP3    H126477   5.143   3.722   1.451  0.4297  0.6974  0.0128
 1662TIP3    H226478   5.085   3.826   1.546 -0.2534 -0.1972  0.5904
 1663TIP3   OH226479   3.922   6.243   5.710 -0.0474 -0.2520  0.0289
 1663TIP3    H126480   3.867   6.260   5.634  0.5064 -1.2597 -0.6177
 1663TIP3    H226481   3.864   6.256   5.785 -0.5682  0.8744 -0.5398
 1664TIP3   OH226482   1.085   4.479   6.427 -0.3640 -0.0188 -0.1092
 1664TIP3    H126483   1.169   4.491   6.471 -0.5366 -2.0730  0.9325
 1664TIP3    H226484   1.048   4.567   6.422  0.8706  0.6537  1.4639
 1665TIP3   OH226485   3.820   1.082   4.706  0.0651 -0.2786 -0.0898
 1665TIP3    H126486   3.762   1.012   4.675 -0.8185  0.1475  0.5464
 1665TIP3    H226487   3.885   1.037   4.760 -0.3308 -0.6517  0.0844
 1666TIP3   OH226488   3.992   6.388  12.683  0.5863  0.4261  0.3534
 1666TIP3    H126489   4.043   6.421  12.610  0.8255  1.1575  0.8415
 1666TIP3    H226490   3.990   6.293  12.670  0.0488  0.5895 -0.9662
 1667TIP3   OH226491   6.486   6.703  10.713 -0.0431  0.0939 -0.8593
 1667TIP3    H126492   6.471   6.791  10.747  1.1028  0.5223 -1.4328
 1667TIP3    H226493   6.553   6.666  10.769  0.8262  0.2825 -1.7521
 1668TIP3   OH226494   4.675   4.204  14.906  0.4955  0.2736 -0.2700
 1668TIP3    H126495   4.637   4.160  14.830 -0.8456 -0.3535  0.7230
 1668TIP3    H226496   4.699   4.133  14.965 -1.3716  0.7883  1.1996
 1669TIP3   OH226497   0.417   5.260   1.436  0.0002  0.3524  0.4553
 1669TIP3    H126498   0.324   5.239   1.451 -0.0592 -0.3385 -0.7526
 1669TIP3    H226499   0.417   5.354   1.417 -0.6947  0.0680 -1.1189
 1670TIP3   OH226500   5.306   3.059   5.421 -0.0368  0.0096  0.2514
 1670TIP3    H126501   5.300   3.153   5.437 -0.2250 -0.2035  1.5640
 1670TIP3    H226502   5.279   3.048   5.330 -0.9546  1.1342  0.3614
 1671TIP3   OH226503   3.387   2.253   5.893  0.5087 -0.2573  0.4889
 1671TIP3    H126504   3.423   2.194   5.826  0.8579 -1.1605  1.4568
 1671TIP3    H226505   3.459   2.266   5.955  1.1147  2.7714 -0.6658
 1672TIP3   OH226506   3.995   5.022  12.738  0.3354 -0.0095 -0.2066
 1672TIP3    H126507   4.041   4.963  12.679 -0.5024  1.1372 -2.0950
 1672TIP3    H226508   4.057   5.093  12.755  0.4170 -0.1159 -0.0548
 1673TIP3   OH226509   6.452   6.321   3.968  0.5341 -0.5122 -0.0523
 1673TIP3    H126510   6.420   6.238   3.934 -0.3592 -0.1416 -0.1224
 1673TIP3    H226511   6.539   6.300   4.003  1.5113 -0.9292 -2.4939
 1674TIP3   OH226512   0.106   1.406   5.082 -0.5292 -0.5150  0.9272
 1674TIP3    H126513   0.053   1.392   5.003  0.9569 -0.6766 -0.0698
 1674TIP3    H226514   0.099   1.500   5.097 -1.4338 -0.5928  1.0576
 1675TIP3   OH226515   1.037   3.625   0.078  0.0914  0.9114  0.4868
 1675TIP3    H126516   1.123   3.662   0.099 -0.2009  0.7652  2.0728
 1675TIP3    H226517   0.979   3.701   0.072  0.5069  1.1257 -1.8019
 1676TIP3   OH226518   2.060   3.894  11.055  0.3376  0.1959  1.1178
 1676TIP3    H126519   2.062   3.918  11.148 -2.5337 -0.7075  1.4970
 1676TIP3    H226520   2.086   3.801  11.054 -0.2584  0.0294  1.0948
 1677TIP3   OH226521   3.050   1.679  16.655  0.1022 -0.6753 -0.0688
 1677TIP3    H126522   2.963   1.678  16.616 -0.3159  2.3908  0.5176
 1677TIP3    H226523   3.056   1.596  16.703 -2.2501 -1.1941 -0.5419
 1678TIP3   OH226524   2.274   6.825   5.977 -0.0591  0.0883 -0.3415
 1678TIP3    H126525   2.299   6.784   5.894  0.2767 -0.7747  0.1763
 1678TIP3    H226526   2.220   6.760   6.021  2.8271 -1.1016  1.7807
 1679TIP3   OH226527   6.553   4.664   0.074 -0.1030 -0.1605 -0.2081
 1679TIP3    H126528   6.622   4.639   0.011  1.5690  1.5789  0.8173
 1679TIP3    H226529   6.505   4.583   0.090  0.2645 -0.9534 -2.6842
 1680TIP3   OH226530   1.464   1.089  11.346  0.7630  0.0679  0.1808
 1680TIP3    H126531   1.413   1.137  11.281  0.8468  0.7804  0.6287
 1680TIP3    H226532   1.399   1.060  11.411  0.6910 -0.5706 -0.1675
 1681TIP3   OH226533   0.234   4.310   3.220  0.4535 -0.2620 -0.6658
 1681TIP3    H126534   0.220   4.229   3.268  1.4827  1.6338  3.2932
 1681TIP3    H226535   0.153   4.360   3.234  0.8063  0.3747 -0.8576
 1682TIP3   OH226536   4.346   4.522  15.582  0.5851 -0.1110  0.2566
 1682TIP3    H126537   4.426   4.508  15.531  0.2963 -0.2363 -0.1714
 1682TIP3    H226538   4.350   4.456  15.651 -0.1097 -1.4596 -0.9426
 1683TIP3   OH226539   5.720   4.128   4.782 -0.3885 -0.1368 -0.0348
 1683TIP3    H126540   5.760   4.111   4.867 -0.6873 -0.6212  0.0145
 1683TIP3    H226541   5.704   4.040   4.746  0.8100  0.0511 -1.0991
 1684TIP3   OH226542   1.546   3.491  11.225  0.3037 -0.5700 -0.1733
 1684TIP3    H126543   1.526   3.566  11.280  1.6550  0.1216 -0.5992
 1684TIP3    H226544   1.493   3.420  11.262 -1.8215  0.8007 -0.4119
 1685TIP3   OH226545   1.330   6.589   5.886  0.2718 -0.1484 -0.3592
 1685TIP3    H126546   1.345   6.535   5.964  1.6330 -0.2420 -0.6525
 1685TIP3    H226547   1.366   6.536   5.814  0.1279  0.4537 -0.8746
 1686TIP3   OH226548   4.540   5.173   2.504 -0.2851 -0.2461  0.4350
 1686TIP3    H126549   4.551   5.207   2.593 -2.1099  0.1533  0.5341
 1686TIP3    H226550   4.516   5.081   2.517 -1.1224 -0.0374  0.3837
 1687TIP3   OH226551   6.164   5.044  16.986  0.2656  0.6130 -0.0376
 1687TIP3    H126552   6.203   5.029  16.900  0.1719  0.4637 -0.0538
 1687TIP3    H226553   6.092   4.982  16.991  1.2796 -0.5385  0.8127
 1688TIP3   OH226554   4.142   4.914  11.173  0.1857 -0.2666  0.4286
 1688TIP3    H126555   4.099   4.999  11.185 -0.1432 -0.2859 -0.5098
 1688TIP3    H226556   4.083   4.852  11.216 -1.3297 -0.4285 -1.7321
 1689TIP3   OH226557   4.506   4.307  16.228 -0.4243  0.4087  0.9344
 1689TIP3    H126558   4.538   4.329  16.140 -0.1143 -1.0351  0.6635
 1689TIP3    H226559   4.419   4.268  16.212  0.8645 -2.7633  0.8846
 1690TIP3   OH226560   6.314   3.893  12.150  0.4469 -0.2338 -0.1275
 1690TIP3    H126561   6.247   3.950  12.190 -0.1146 -1.1963  0.3498
 1690TIP3    H226562   6.304   3.906  12.056 -0.0953 -0.0015 -0.0410
 1691TIP3   OH226563   4.150   3.672   3.305 -0.2655 -0.0943  0.4480
 1691TIP3    H126564   4.115   3.583   3.314 -0.0118 -0.6419 -2.8691
 1691TIP3    H226565   4.073   3.728   3.302 -0.5458 -0.5014 -0.0534
 1692TIP3   OH226566   5.187   1.073   3.984  0.1306  0.3850  0.1068
 1692TIP3    H126567   5.263   1.042   4.032  0.4849 -1.1962 -1.3644
 1692TIP3    H226568   5.177   1.011   3.912 -2.6513  0.4436  0.3161
 1693TIP3   OH226569   3.144   1.998  11.257 -0.5803 -0.5323  0.4497
 1693TIP3    H126570   3.219   2.020  11.202 -0.6588 -0.8029  0.2298
 1693TIP3    H226571   3.107   2.082  11.283 -0.7001 -0.3958 -0.1351
 1694TIP3   OH226572   2.438   4.626   3.001  0.0783 -0.0888  0.0088
 1694TIP3    H126573   2.481   4.576   2.931  3.0827  1.8759  0.2602
 1694TIP3    H226574   2.471   4.585   3.082 -0.2531  0.1051  0.2422
 1695TIP3   OH226575   0.786   2.842   0.857 -0.6418  0.3675  0.4099
 1695TIP3    H126576   0.780   2.753   0.820 -2.7520  0.5619  0.1893
 1695TIP3    H226577   0.812   2.828   0.948  3.1223 -0.1956 -0.5456
 1696TIP3   OH226578   2.732   0.202   0.857  0.0922  0.4251 -0.0724
 1696TIP3    H126579   2.726   0.212   0.952 -1.4618 -1.5115  0.0960
 1696TIP3    H226580   2.816   0.241   0.834  0.8500  0.2798  2.1870
 1697TIP3   OH226581   6.542   6.665   4.255 -0.5318  0.5416  0.2909
 1697TIP3    H126582   6.603   6.591   4.260 -0.7870  0.3653  0.7885
 1697TIP3    H226583   6.555   6.700   4.166  0.6715  0.8327  0.5591
 1698TIP3   OH226584   6.783   5.753   1.102  0.2873 -0.2297  0.1309
 1698TIP3    H126585   6.755   5.739   1.192  0.6239  2.2776  0.6970
 1698TIP3    H226586   6.704   5.780   1.056 -0.4212 -3.6997 -1.0165
 1699TIP3   OH226587   5.281   0.644   1.366  0.1282 -0.0080 -0.0227
 1699TIP3    H126588   5.238   0.573   1.414 -1.6593  1.1628  0.1844
 1699TIP3    H226589   5.284   0.613   1.275 -1.0953 -0.1538 -0.0230
 1700TIP3   OH226590   4.233   2.362   5.746 -0.3326 -0.6671  0.1176
 1700TIP3    H126591   4.250   2.306   5.670  3.7163 -2.5273  2.0627
 1700TIP3    H226592   4.270   2.314   5.820  1.1101  3.4070  2.3786
 1701TIP3   OH226593   2.022   3.170   1.628  0.3715  0.6922 -0.2728
 1701TIP3    H126594   1.937   3.184   1.586 -0.2928 -1.3846  0.2682
 1701TIP3    H226595   2.034   3.075   1.626  2.2064  0.8688  0.6155
 1702TIP3   OH226596   4.777   0.337   6.268  0.5225 -0.0582  0.2796
 1702TIP3    H126597   4.757   0.293   6.351 -0.8269 -0.0545 -0.0161
 1702TIP3    H226598   4.867   0.366   6.278  0.6521 -0.7694  1.4312
 1703TIP3   OH226599   2.933   3.825  13.259 -0.2099 -0.2134  0.4576
 1703TIP3    H126600   2.959   3.742  13.219  0.5949 -0.2015  0.9529
 1703TIP3    H226601   2.865   3.800  13.322  0.6198 -0.6087  1.2103
 1704TIP3   OH226602   6.450   3.921   4.793 -0.5642  0.1394  0.4273
 1704TIP3    H126603   6.360   3.933   4.823 -0.5768  0.5260  0.2400
 1704TIP3    H226604   6.445   3.930   4.698 -0.4255 -0.4520  0.3619
 1705TIP3   OH226605   5.915   2.120   2.607 -0.1491 -0.2111  0.0212
 1705TIP3    H126606   6.003   2.089   2.588 -0.4301 -1.0344  0.0441
 1705TIP3    H226607   5.870   2.045   2.645 -0.2693  0.7666  1.9340
 1706TIP3   OH226608   0.822   3.685   3.750  0.0013 -0.3367  0.6507
 1706TIP3    H126609   0.894   3.636   3.789  0.2674 -0.1929  0.3480
 1706TIP3    H226610   0.771   3.716   3.824  0.1304 -0.6225  0.8597
 1707TIP3   OH226611   4.566   0.674  11.897  0.4044 -0.5594 -0.1529
 1707TIP3    H126612   4.576   0.628  11.814  2.1839  0.2779 -0.4485
 1707TIP3    H226613   4.508   0.747  11.876  2.2879  0.7294 -1.1919
 1708TIP3   OH226614   6.345   0.274  16.809  0.1480 -0.1761  0.0662
 1708TIP3    H126615   6.377   0.243  16.725 -2.0505  0.0546 -0.9189
 1708TIP3    H226616   6.314   0.195  16.854 -2.1357  0.0459 -0.9639
 1709TIP3   OH226617   2.052   3.256  14.753  0.0284 -0.4768 -0.2849
 1709TIP3    H126618   2.046   3.264  14.848 -2.8791  1.8873 -0.5293
 1709TIP3    H226619   2.018   3.168  14.734 -1.8842 -0.0138  0.7767
 1710TIP3   OH226620   5.771   4.679  13.618  0.3896  0.1132 -0.1205
 1710TIP3    H126621   5.705   4.620  13.582  0.1659  1.1521 -1.4748
 1710TIP3    H226622   5.848   4.667  13.562  0.8502  0.0505  0.5045
 1711TIP3   OH226623   4.171   6.208  12.160 -0.3326 -0.0664 -0.2257
 1711TIP3    H126624   4.166   6.206  12.256  1.4222  1.1922 -0.0508
 1711TIP3    H226625   4.214   6.126  12.136 -1.4272 -0.7188 -0.0207
 1712TIP3   OH226626   1.679   2.270   1.612 -0.3477 -0.2360  0.2467
 1712TIP3    H126627   1.614   2.288   1.681  0.0545 -0.8637  0.8072
 1712TIP3    H226628   1.755   2.323   1.637 -0.5996  0.4323 -0.3630
 1713TIP3   OH226629   0.567   5.186   3.020  0.7810  0.2145 -0.6290
 1713TIP3    H126630   0.509   5.199   2.945  1.9974  0.0965 -1.6152
 1713TIP3    H226631   0.593   5.274   3.046 -3.3501  0.7823  2.8168
 1714TIP3   OH226632   3.950   3.653  14.028  0.4829  0.2182 -0.1300
 1714TIP3    H126633   3.887   3.596  13.985 -0.6238  0.2643  1.3483
 1714TIP3    H226634   3.951   3.733  13.976  0.1212 -0.1833 -0.7565
 1715TIP3   OH226635   4.516   5.397   3.571  0.0605 -0.1588  0.8796
 1715TIP3    H126636   4.556   5.346   3.501 -2.1617 -1.8919  0.7603
 1715TIP3    H226637   4.556   5.362   3.652  0.3352 -0.3545  0.6620
 1716TIP3   OH226638   3.003   0.714   4.580 -0.0201  0.7215 -0.5527
 1716TIP3    H126639   3.007   0.634   4.633 -0.0504  2.0336  1.5192
 1716TIP3    H226640   2.992   0.682   4.490 -2.2938 -1.5588  0.4202
 1717TIP3   OH226641   6.649   2.261  14.070  0.2640  0.7814 -0.2701
 1717TIP3    H126642   6.658   2.288  14.161 -0.7791 -1.1983  0.4749
 1717TIP3    H226643   6.706   2.184  14.062  0.7487  1.2328 -1.4564
 1718TIP3   OH226644   5.518   2.840  15.148  0.1250  0.3372  0.3827
 1718TIP3    H126645   5.568   2.793  15.214  0.2704  0.2643  0.2223
 1718TIP3    H226646   5.578   2.906  15.114 -0.6056  1.8178  1.8218
 1719TIP3   OH226647   5.320   4.894   2.132 -0.1766  0.4102  0.2909
 1719TIP3    H126648   5.385   4.863   2.068 -0.7608  0.4141 -0.3154
 1719TIP3    H226649   5.366   4.891   2.216  0.5728  0.3037 -0.1124
 1720TIP3   OH226650   5.922   1.980   1.180  0.2853 -0.5154 -0.8598
 1720TIP3    H126651   6.017   1.981   1.178  0.3294  0.1700  0.2885
 1720TIP3    H226652   5.899   1.908   1.239  0.1518  0.2176  0.0040
 1721TIP3   OH226653   5.513   3.004   2.828 -1.0709  0.0085 -0.1353
 1721TIP3    H126654   5.557   2.933   2.781 -0.6504 -0.4698  0.9352
 1721TIP3    H226655   5.557   3.083   2.798  1.5074 -0.5520  1.8438
 1722TIP3   OH226656   1.807   0.670  14.826  0.3354 -0.1950  0.2496
 1722TIP3    H126657   1.718   0.679  14.791 -0.2899  0.7105  1.9606
 1722TIP3    H226658   1.823   0.576  14.827 -0.6055 -0.3701 -0.0845
 1723TIP3   OH226659   2.874   3.431   3.783  0.2514 -0.5960  0.1550
 1723TIP3    H126660   2.826   3.496   3.731  2.5126 -0.3633 -1.7982
 1723TIP3    H226661   2.906   3.480   3.859 -1.1746 -0.3820  0.6540
 1724TIP3   OH226662   1.333   2.198   1.407 -0.3721 -0.8328  0.2645
 1724TIP3    H126663   1.276   2.260   1.362 -0.0158 -1.0197 -0.4628
 1724TIP3    H226664   1.324   2.220   1.500  1.2296  1.5835 -0.0663
 1725TIP3   OH226665   4.927   3.886   1.634  0.4739  0.7987 -0.2585
 1725TIP3    H126666   4.925   3.944   1.710 -0.3227 -1.7392  1.7934
 1725TIP3    H226667   4.843   3.841   1.636  1.2001 -0.7074 -1.5515
 1726TIP3   OH226668   3.805   5.899  13.382  0.4056 -0.0849  0.2198
 1726TIP3    H126669   3.870   5.957  13.341  0.4253  0.0176  0.3915
 1726TIP3    H226670   3.734   5.958  13.408  0.5861 -0.0799  0.7218
 1727TIP3   OH226671   5.778   0.197   2.268 -0.0778  0.0599  0.5795
 1727TIP3    H126672   5.792   0.276   2.320  0.9727  0.6597 -0.5729
 1727TIP3    H226673   5.762   0.128   2.333 -0.6824  1.1340  1.6100
 1728TIP3   OH226674   6.726   5.119   5.274 -0.3705  0.8597  0.2293
 1728TIP3    H126675   6.759   5.039   5.233  0.2982  1.6872 -0.8961
 1728TIP3    H226676   6.646   5.091   5.318 -0.9505 -0.1510 -1.3701
 1729TIP3   OH226677   6.267   1.327   0.164 -0.2822 -0.3275  0.2078
 1729TIP3    H126678   6.306   1.412   0.146 -1.8117  0.0630 -1.5649
 1729TIP3    H226679   6.189   1.324   0.109 -1.4929 -1.9867  1.8866
 1730TIP3   OH226680   5.116   2.221  15.895 -0.2493  0.1459 -0.2292
 1730TIP3    H126681   5.141   2.128  15.891 -0.9729 -0.0894  0.4108
 1730TIP3    H226682   5.033   2.225  15.848 -0.1970  0.4776 -0.2923
 1731TIP3   OH226683   6.203   5.764  15.262  0.2952  0.0854  0.0395
 1731TIP3    H126684   6.160   5.765  15.176  0.0429  1.4415  0.1673
 1731TIP3    H226685   6.268   5.834  15.257  0.8059 -0.3301  0.7008
 1732TIP3   OH226686   5.434   6.545  14.568  0.0420 -0.1130  0.1409
 1732TIP3    H126687   5.515   6.554  14.618  0.5520  0.9604 -0.8128
 1732TIP3    H226688   5.391   6.468  14.604  0.8891  0.0179  1.5038
 1733TIP3   OH226689   5.599   1.635  13.047 -0.1845  0.1364 -0.2095
 1733TIP3    H126690   5.663   1.622  12.977  0.5127 -1.3916  0.6465
 1733TIP3    H226691   5.648   1.616  13.128 -1.6607 -0.9667  0.4834
 1734TIP3   OH226692   2.260   3.965   0.349  0.0325  0.4279  0.0455
 1734TIP3    H126693   2.347   3.937   0.378  0.1610  1.5695  0.8582
 1734TIP3    H226694   2.242   4.043   0.402 -0.4015  1.7210 -1.8983
 1735TIP3   OH226695   0.202   4.111   4.871  0.1705  0.1016  0.5699
 1735TIP3    H126696   0.294   4.126   4.848 -0.3157  1.4961 -0.6264
 1735TIP3    H226697   0.193   4.016   4.873  1.8076 -0.0707  1.4666
 1736TIP3   OH226698   2.186   0.685  16.374 -0.2362  0.1113 -0.4401
 1736TIP3    H126699   2.136   0.692  16.292  0.1955 -0.4654 -0.7590
 1736TIP3    H226700   2.159   0.601  16.411  0.0606  0.0691 -0.3199
 1737TIP3   OH226701   0.180   3.126   5.249  0.3412  0.5175  0.2469
 1737TIP3    H126702   0.109   3.069   5.218  0.0963  1.3310 -0.7289
 1737TIP3    H226703   0.259   3.092   5.206  0.3625  0.3032  0.4534
 1738TIP3   OH226704   1.048   3.833   3.824 -0.1652 -0.3757  0.1820
 1738TIP3    H126705   1.004   3.911   3.857  2.8136  0.8523  1.7076
 1738TIP3    H226706   0.979   3.780   3.785 -2.5989  2.1558  0.7667
 1739TIP3   OH226707   3.296   3.420  11.552 -0.6702  0.5217 -0.2983
 1739TIP3    H126708   3.272   3.360  11.623  0.6062  0.1910 -0.1234
 1739TIP3    H226709   3.382   3.452  11.577 -0.5455  1.0034 -1.3245
 1740TIP3   OH226710   0.025   5.705   3.736 -0.8519 -0.1453  0.1237
 1740TIP3    H126711   0.024   5.640   3.807 -0.6893 -0.7393 -0.4158
 1740TIP3    H226712   0.101   5.681   3.682 -0.7517  0.5341 -0.0450
 1741TIP3   OH226713   4.693   5.537  14.169 -0.6261  0.2549 -0.0145
 1741TIP3    H126714   4.634   5.540  14.094 -0.6393  0.7808  0.0136
 1741TIP3    H226715   4.751   5.463  14.150 -1.2908 -0.2653 -0.0377
 1742TIP3   OH226716   1.485   0.678   4.483 -0.0347  0.1754 -0.5864
 1742TIP3    H126717   1.427   0.602   4.481 -2.3724  1.8382 -0.2393
 1742TIP3    H226718   1.485   0.709   4.392  2.5892 -1.2941 -1.2115
 1743TIP3   OH226719   2.131   3.584  14.673  0.0710  0.0456  0.2687
 1743TIP3    H126720   2.129   3.512  14.610  2.6513  0.8285 -0.8358
 1743TIP3    H226721   2.162   3.659  14.623 -0.5207  1.4206  1.8704
 1744TIP3   OH226722   5.870   5.947  15.760 -0.4524  0.1544  0.0403
 1744TIP3    H126723   5.794   5.963  15.704 -1.1789 -0.1253  0.9171
 1744TIP3    H226724   5.943   5.935  15.699 -0.8766  1.5420 -0.7933
 1745TIP3   OH226725   0.198   2.036  10.881  0.3691  0.2267 -0.6630
 1745TIP3    H126726   0.127   1.987  10.840  0.5756 -1.6291  1.0181
 1745TIP3    H226727   0.264   1.970  10.902  0.9085  1.2799  1.2400
 1746TIP3   OH226728   3.662   0.769   4.612 -0.3473  0.2486  0.1282
 1746TIP3    H126729   3.583   0.779   4.558  0.0862  0.8604 -0.3985
 1746TIP3    H226730   3.730   0.741   4.550 -0.5778 -2.2344  0.8786
 1747TIP3   OH226731   1.869   3.253   0.730  0.9204  0.9610  0.0689
 1747TIP3    H126732   1.864   3.329   0.789  1.1018  0.6647  0.4697
 1747TIP3    H226733   1.947   3.269   0.676  0.9042  1.1066  0.0886
 1748TIP3   OH226734   2.104   5.544  16.696 -0.5066 -0.7648  0.3824
 1748TIP3    H126735   2.034   5.607  16.681  0.0749 -0.3251 -0.5365
 1748TIP3    H226736   2.107   5.492  16.617 -0.4073 -1.3989  0.7960
 1749TIP3   OH226737   5.083   4.752   1.692 -0.0556  0.2101  0.6854
 1749TIP3    H126738   5.059   4.830   1.742 -0.9604  0.8013 -0.6141
 1749TIP3    H226739   5.177   4.743   1.705 -0.2785  0.2786  2.5494
 1750TIP3   OH226740   2.899   3.131   5.218  0.0218 -0.1000 -0.2788
 1750TIP3    H126741   2.830   3.103   5.278 -1.2043 -0.7342 -1.8992
 1750TIP3    H226742   2.936   3.210   5.258 -0.9881 -0.2872  1.0900
 1751TIP3   OH226743   4.187   0.396  15.812  0.3826  0.1749  0.1167
 1751TIP3    H126744   4.252   0.351  15.758 -0.0091  0.3587 -0.5075
 1751TIP3    H226745   4.213   0.488  15.809  1.2436  0.0045  1.4742
 1752TIP3   OH226746   1.340   6.348  15.738 -0.7226 -0.2708 -0.1538
 1752TIP3    H126747   1.403   6.276  15.734  0.8837  1.1067 -2.3684
 1752TIP3    H226748   1.385   6.416  15.789 -2.0966 -0.6253  1.6528
 1753TIP3   OH226749   5.250   1.655   2.159  0.4705 -0.4944  0.5130
 1753TIP3    H126750   5.177   1.682   2.103  0.4086 -0.2863  0.6922
 1753TIP3    H226751   5.299   1.736   2.174 -0.1929 -0.2871  1.7651
 1754TIP3   OH226752   5.080   1.816   1.995  0.7192  0.2533  0.2769
 1754TIP3    H126753   5.122   1.894   2.032  3.3530 -0.3096 -1.3390
 1754TIP3    H226754   5.093   1.824   1.901 -2.0513 -0.4892 -0.2637
 1755TIP3   OH226755   5.030   1.375   5.930  0.5603 -0.4485 -0.2823
 1755TIP3    H126756   4.949   1.340   5.892  0.6102  0.7048 -1.5407
 1755TIP3    H226757   5.005   1.462   5.962  0.6041 -1.2542  2.1487
 1756TIP3   OH226758   5.336   6.629  14.987  0.8254  0.3175  0.5190
 1756TIP3    H126759   5.340   6.671  15.073 -0.3077 -1.3377  1.4424
 1756TIP3    H226760   5.268   6.563  14.996  0.2046  0.5219 -1.8755
 1757TIP3   OH226761   0.070   1.123   2.989 -0.1226 -0.2018  0.2350
 1757TIP3    H126762   0.134   1.162   3.048 -0.4254 -1.0928  1.1758
 1757TIP3    H226763   0.098   1.151   2.902  1.4408 -0.4233  0.6398
 1758TIP3   OH226764   1.016   5.039   6.838  0.3904 -0.7424  0.3901
 1758TIP3    H126765   1.041   5.106   6.774 -0.8679  0.0600  0.6922
 1758TIP3    H226766   1.041   5.077   6.922  1.5716 -1.5729  0.4293
 1759TIP3   OH226767   0.091   6.191   2.715 -0.2072 -0.3107 -0.0216
 1759TIP3    H126768   0.045   6.125   2.766 -0.4929  1.3485  1.9941
 1759TIP3    H226769   0.023   6.252   2.687 -0.0142 -1.0433 -2.2429
 1760TIP3   OH226770   2.684   4.063   3.421 -0.0081 -0.1966  0.2098
 1760TIP3    H126771   2.594   4.030   3.416 -0.0282 -0.2347  0.7581
 1760TIP3    H226772   2.719   4.024   3.502  0.7165 -0.7215 -0.3367
 1761TIP3   OH226773   0.076   5.496   5.673  0.1261  0.0947  0.3541
 1761TIP3    H126774   0.029   5.529   5.596 -1.2397 -1.5728  0.4174
 1761TIP3    H226775   0.073   5.568   5.735  0.1050  1.0139 -0.6825
 1762TIP3   OH226776   4.951   3.588   3.631 -0.2780 -0.4833 -0.0712
 1762TIP3    H126777   4.908   3.511   3.594 -2.2443 -0.1819  1.3912
 1762TIP3    H226778   5.036   3.556   3.661 -1.0423 -2.1200  0.4802
 1763TIP3   OH226779   6.730   0.863   2.459  1.0133 -0.4765  0.3357
 1763TIP3    H126780   6.787   0.886   2.533 -0.4732  1.5071  0.9763
 1763TIP3    H226781   6.665   0.934   2.457 -0.1547 -1.5242 -1.6712
 1764TIP3   OH226782   0.470   5.146   2.270 -0.2940  0.4788  0.6791
 1764TIP3    H126783   0.482   5.126   2.363  1.4233 -1.4240  0.1337
 1764TIP3    H226784   0.557   5.175   2.240 -0.1082 -1.4008 -0.8099
 1765TIP3   OH226785   1.273   3.746   0.195 -0.1779  0.6316  0.4471
 1765TIP3    H126786   1.355   3.794   0.180 -0.4853  0.6009 -1.5800
 1765TIP3    H226787   1.300   3.668   0.244  1.0007  0.6906 -0.0723
 1766TIP3   OH226788   0.401   6.543   0.340 -0.5102 -0.2192 -0.5448
 1766TIP3    H126789   0.355   6.474   0.387  1.3002 -0.4024  1.0980
 1766TIP3    H226790   0.401   6.515   0.249 -1.6151 -1.3141 -0.2373
 1767TIP3   OH226791   2.299   5.111  12.432  0.2522 -0.6979 -0.2047
 1767TIP3    H126792   2.349   5.059  12.370  2.3445 -0.7834  1.4263
 1767TIP3    H226793   2.212   5.071  12.433  0.3830 -1.1264 -2.4848
 1768TIP3   OH226794   4.964   4.473  17.201 -0.7212 -0.3284  0.4575
 1768TIP3    H126795   5.050   4.442  17.174 -0.0077  1.8923  0.0348
 1768TIP3    H226796   4.909   4.465  17.123  0.5442  3.1922 -0.9683
 1769TIP3   OH226797   5.158   0.772  15.528  0.2070 -0.4074 -0.2897
 1769TIP3    H126798   5.250   0.795  15.515  0.0022 -0.3645 -1.8157
 1769TIP3    H226799   5.148   0.686  15.489 -0.5151 -0.1927 -0.5958
 1770TIP3   OH226800   4.839   4.217  15.182 -0.0560  0.1345  0.3659
 1770TIP3    H126801   4.752   4.205  15.220 -0.2037  1.2847  0.4246
 1770TIP3    H226802   4.896   4.236  15.257 -0.1450  1.3428  0.1512
 1771TIP3   OH226803   4.877   2.584   3.280 -0.2342 -0.1593  0.0794
 1771TIP3    H126804   4.935   2.535   3.338  1.5135  1.2173 -0.4005
 1771TIP3    H226805   4.843   2.519   3.219  0.8182 -1.0197  0.3759
 1772TIP3   OH226806   6.111   4.318  13.403 -0.5207 -0.3725  0.0377
 1772TIP3    H126807   6.195   4.364  13.401 -0.7781  0.1273  0.5487
 1772TIP3    H226808   6.108   4.271  13.319  0.3084 -0.4789  0.0540
 1773TIP3   OH226809   1.551   3.743  11.395 -0.0822  0.3531 -0.8823
 1773TIP3    H126810   1.637   3.710  11.369  0.7957  0.5353  1.5485
 1773TIP3    H226811   1.553   3.836  11.373  0.4208  0.3837 -0.7330
 1774TIP3   OH226812   6.060   1.237   4.152  0.5581  0.1756 -0.1031
 1774TIP3    H126813   6.143   1.254   4.195  0.5744  2.2710 -0.8774
 1774TIP3    H226814   6.059   1.296   4.077 -1.6933  0.3394 -0.0090
 1775TIP3   OH226815   1.384   5.700  15.792 -0.3391  0.4199  0.3854
 1775TIP3    H126816   1.366   5.759  15.865 -0.1438  0.3667  0.4766
 1775TIP3    H226817   1.464   5.654  15.817 -1.1644 -0.7832  0.8647
 1776TIP3   OH226818   1.815   4.067   3.622  0.1378 -0.0684  0.0440
 1776TIP3    H126819   1.842   4.151   3.658  0.7864 -0.0776 -0.4213
 1776TIP3    H226820   1.775   4.088   3.538 -1.8383  0.0039  0.9509
 1777TIP3   OH226821   5.773   0.513  11.898  0.4119 -0.1918  0.0612
 1777TIP3    H126822   5.836   0.539  11.831  0.7165 -0.1941  0.3470
 1777TIP3    H226823   5.688   0.525  11.856  0.6007 -3.5943 -1.6821
 1778TIP3   OH226824   2.011   6.541   5.558 -0.1849  0.0408  0.1204
 1778TIP3    H126825   1.984   6.505   5.474  2.4832 -1.8369 -0.0656
 1778TIP3    H226826   2.056   6.623   5.535 -0.9597  0.4251 -0.0662
 1779TIP3   OH226827   3.002   4.031  14.936  0.1556  0.1582 -0.0397
 1779TIP3    H126828   2.946   3.963  14.899 -0.1473 -0.8086  2.0383
 1779TIP3    H226829   3.086   3.988  14.950 -0.0098  0.2059  1.2019
 1780TIP3   OH226830   2.765   3.441   5.504 -0.2954 -0.4663  0.2346
 1780TIP3    H126831   2.705   3.471   5.573  0.8430  0.1282  0.9893
 1780TIP3    H226832   2.733   3.354   5.481 -0.6681 -0.7124  1.5721
 1781TIP3   OH226833   5.883   5.161   0.470 -0.4571  0.3121 -0.0129
 1781TIP3    H126834   5.870   5.067   0.478 -1.7031  0.4332 -0.3666
 1781TIP3    H226835   5.860   5.196   0.556  0.5777  0.2512  0.2997
 1782TIP3   OH226836   6.039   0.869  16.952 -0.5562 -0.0978  0.2910
 1782TIP3    H126837   5.969   0.914  16.906 -0.9604  2.5126  3.1123
 1782TIP3    H226838   6.118   0.890  16.902 -1.2863  0.2125 -0.7619
 1783TIP3   OH226839   4.870   2.606  12.031  0.3279 -0.0241  0.2585
 1783TIP3    H126840   4.875   2.683  11.974 -1.5355  1.1448  1.5217
 1783TIP3    H226841   4.960   2.591  12.060  0.7645  1.5985 -0.1575
 1784TIP3   OH226842   1.120   4.960   4.649  0.1487  0.6540 -0.4031
 1784TIP3    H126843   1.137   5.006   4.566  0.4388  0.5860 -0.3826
 1784TIP3    H226844   1.130   4.867   4.628 -3.2691  0.3473 -1.1365
 1785TIP3   OH226845   0.531   0.680  11.758  0.4885  0.1278 -0.3430
 1785TIP3    H126846   0.451   0.726  11.781  0.7124  0.4744 -0.2533
 1785TIP3    H226847   0.528   0.673  11.662  0.2681 -0.0199 -0.3267
 1786TIP3   OH226848   3.106   5.241  16.467 -0.4142 -0.0689 -0.4478
 1786TIP3    H126849   3.131   5.182  16.397  0.6143  2.1189 -2.0480
 1786TIP3    H226850   3.018   5.270  16.445  0.1967  1.2136 -1.3402
 1787TIP3   OH226851   4.661   4.013   5.332  0.2999 -0.4931 -0.4820
 1787TIP3    H126852   4.684   3.945   5.395  0.7847  0.1049  0.0058
 1787TIP3    H226853   4.683   4.095   5.376 -2.0756  0.1059 -0.2879
 1788TIP3   OH226854   5.229   0.357  15.454  0.8060  0.1176  0.0423
 1788TIP3    H126855   5.215   0.399  15.370  2.4457 -0.2411 -0.4410
 1788TIP3    H226856   5.143   0.321  15.478  0.6666 -1.2958 -2.3169
 1789TIP3   OH226857   0.519   6.767  12.388  0.3616 -0.5200  0.3007
 1789TIP3    H126858   0.442   6.734  12.434  0.4076 -4.2395 -1.9339
 1789TIP3    H226859   0.503   6.861  12.379 -2.8174 -0.7970  1.8774
 1790TIP3   OH226860   5.438   3.620   1.970 -0.3515 -0.1779  1.1120
 1790TIP3    H126861   5.434   3.695   2.029  1.3238  0.6973  0.2073
 1790TIP3    H226862   5.482   3.551   2.021  3.3817  1.3579  0.2777
 1791TIP3   OH226863   4.898   0.969   2.587 -0.6985  0.1643 -0.0161
 1791TIP3    H126864   4.939   0.951   2.503 -0.2382 -0.4630  0.3347
 1791TIP3    H226865   4.842   1.045   2.571 -0.4059  0.2163 -0.8174
 1792TIP3   OH226866   0.062   3.112  12.383 -0.1747 -0.3689  0.4167
 1792TIP3    H126867  -0.024   3.131  12.422  0.7344  0.8385  1.9537
 1792TIP3    H226868   0.054   3.140  12.292 -1.0778  0.8392  0.8427
 1793TIP3   OH226869   3.912   4.801   2.693 -0.3379  0.2257 -0.4070
 1793TIP3    H126870   3.817   4.806   2.695 -0.4586 -1.3115 -1.3232
 1793TIP3    H226871   3.932   4.708   2.706  1.0348  0.5101 -0.2990
 1794TIP3   OH226872   6.788   3.048   4.705  0.2104 -0.1953 -0.0239
 1794TIP3    H126873   6.705   3.019   4.743  0.8031 -0.9315  0.7717
 1794TIP3    H226874   6.768   3.130   4.660 -0.9716 -0.4516  0.0168
 1795TIP3   OH226875   3.248   2.157   6.169  0.0119  0.4739  0.5158
 1795TIP3    H126876   3.273   2.249   6.178  2.2534 -0.0061 -0.1714
 1795TIP3    H226877   3.303   2.111   6.233 -0.8284 -0.4344  0.6099
 1796TIP3   OH226878   6.814   1.717  11.970 -0.0636 -0.1365  0.4393
 1796TIP3    H126879   6.874   1.710  11.895 -0.2792 -0.8072  0.3253
 1796TIP3    H226880   6.734   1.674  11.941 -0.0886 -0.5621  1.1167
 1797TIP3   OH226881   4.619   0.285  10.691 -0.4688 -0.4233 -0.6042
 1797TIP3    H126882   4.592   0.376  10.679 -0.2355 -0.2068  0.4776
 1797TIP3    H226883   4.714   0.289  10.701 -0.4602 -0.7901 -0.5375
 1798TIP3   OH226884   3.150   5.354   2.956 -0.1104 -0.2624 -0.2311
 1798TIP3    H126885   3.223   5.351   3.017 -0.3359 -1.1413  0.0053
 1798TIP3    H226886   3.191   5.356   2.869  0.1999  0.3348 -0.0758
 1799TIP3   OH226887   5.065   4.684  12.408 -0.3247  0.1134  0.1359
 1799TIP3    H126888   5.083   4.736  12.329  0.3223  0.1620  0.3120
 1799TIP3    H226889   5.008   4.613  12.378  0.7588 -0.4712 -0.5875
 1800TIP3   OH226890   3.868   2.002  12.720  0.1254  0.2149 -0.1258
 1800TIP3    H126891   3.932   1.996  12.649  0.2668  1.1726 -0.0853
 1800TIP3    H226892   3.853   2.095  12.732  1.0479  0.1563  1.9520
 1801TIP3   OH226893   3.226   2.281   5.159 -0.4651  0.2597 -0.1751
 1801TIP3    H126894   3.183   2.245   5.237 -0.3986  1.0454  0.2345
 1801TIP3    H226895   3.192   2.229   5.087 -0.3467 -0.6441  0.4025
 1802TIP3   OH226896   1.864   0.769   0.094 -0.0371  0.1579  0.2740
 1802TIP3    H126897   1.817   0.686   0.080  0.5082 -0.0611 -0.2911
 1802TIP3    H226898   1.868   0.808   0.007  0.9046  0.1338  0.3010
 1803TIP3   OH226899   3.146   6.672  17.014 -0.2252 -0.0964  1.0259
 1803TIP3    H126900   3.093   6.653  16.937  0.8492 -2.0573  0.6981
 1803TIP3    H226901   3.082   6.680  17.086 -1.0022 -2.9050  0.7488
 1804TIP3   OH226902   0.778   1.703  16.264  0.3124 -0.0723  0.5676
 1804TIP3    H126903   0.722   1.697  16.341  0.6074 -2.2858  0.6906
 1804TIP3    H226904   0.866   1.717  16.299  0.1479  1.4003  0.4670
 1805TIP3   OH226905   4.297   5.562   2.024 -0.2979  0.2536 -0.0548
 1805TIP3    H126906   4.271   5.632   1.965  2.3280  0.8149 -0.7124
 1805TIP3    H226907   4.318   5.489   1.967  0.9540  0.3513  0.2369
 1806TIP3   OH226908   6.516   4.711   1.694  0.1374 -0.4569  0.1815
 1806TIP3    H126909   6.492   4.797   1.729 -1.7186 -1.0371  0.3940
 1806TIP3    H226910   6.582   4.679   1.756  0.4636  0.5713  0.4028
 1807TIP3   OH226911   3.224   4.305   4.608 -0.4664  0.3478 -0.1766
 1807TIP3    H126912   3.212   4.264   4.522 -0.1792  1.8667 -0.9684
 1807TIP3    H226913   3.143   4.354   4.623 -0.7338 -0.3260  0.6803
 1808TIP3   OH226914   3.277   1.466   2.138 -0.1439 -0.3297  0.1946
 1808TIP3    H126915   3.243   1.490   2.224  0.5190  1.8452 -0.0887
 1808TIP3    H226916   3.199   1.435   2.090 -1.5256  2.8635  0.1274
 1809TIP3   OH226917   4.775   1.439  15.639  0.7433  0.0947 -0.1907
 1809TIP3    H126918   4.814   1.358  15.609 -0.7813 -0.0703 -1.8652
 1809TIP3    H226919   4.722   1.413  15.715  0.5621 -0.4078 -0.4863
 1810TIP3   OH226920   0.227   6.604   2.954  0.0689 -0.1847 -0.1178
 1810TIP3    H126921   0.192   6.526   2.998  0.2868 -0.5857 -0.6511
 1810TIP3    H226922   0.168   6.675   2.980  0.8942 -0.1513  1.8524
 1811TIP3   OH226923   4.875   4.187  12.283  0.5009  0.2714 -0.0540
 1811TIP3    H126924   4.896   4.201  12.191  1.2674  2.5629  0.4059
 1811TIP3    H226925   4.799   4.244  12.299  0.0965 -0.4435  0.6324
 1812TIP3   OH226926   1.409   1.917  13.360 -0.1219  1.1031  0.2201
 1812TIP3    H126927   1.393   1.926  13.453  1.1070 -0.3776  0.6101
 1812TIP3    H226928   1.493   1.961  13.345 -0.6356  1.9260 -0.3276
 1813TIP3   OH226929   6.040   3.402   6.278 -0.0574  0.1080  0.3082
 1813TIP3    H126930   6.007   3.320   6.315 -0.7785 -0.5330 -1.6206
 1813TIP3    H226931   5.962   3.450   6.251  0.4321 -0.3689 -2.1604
 1814TIP3   OH226932   4.012   1.894   4.781  0.1236 -0.0674 -0.5002
 1814TIP3    H126933   3.936   1.840   4.759  0.2954 -0.6700  0.3418
 1814TIP3    H226934   4.087   1.844   4.747  0.4325 -1.2214  1.7180
 1815TIP3   OH226935   6.041   0.215   3.563  0.8191  0.4460 -0.7678
 1815TIP3    H126936   5.980   0.177   3.626  1.5710  0.3043 -0.1167
 1815TIP3    H226937   5.989   0.226   3.483 -0.3264  1.2101  0.0437
 1816TIP3   OH226938   1.697   0.150  14.726  0.3759 -0.7073  0.1088
 1816TIP3    H126939   1.781   0.187  14.699 -0.4461  1.5606  0.3981
 1816TIP3    H226940   1.697   0.061  14.691  2.0816 -0.0971 -1.5970
 1817TIP3   OH226941   4.913   0.176   3.511  0.0553  0.5714 -0.4864
 1817TIP3    H126942   4.972   0.246   3.537 -0.4671  1.3012 -1.2033
 1817TIP3    H226943   4.897   0.191   3.418 -2.2016  1.1497 -0.0763
 1818TIP3   OH226944   2.544   5.918  14.100 -0.0110 -0.4361 -0.3368
 1818TIP3    H126945   2.467   5.875  14.136 -0.5287  1.2608  0.6516
 1818TIP3    H226946   2.606   5.923  14.173  0.6793 -0.9057 -0.8659
 1819TIP3   OH226947   2.155   0.318  14.344 -0.2780  0.1338  0.2160
 1819TIP3    H126948   2.113   0.352  14.265 -0.1558 -0.0013  0.0914
 1819TIP3    H226949   2.236   0.369  14.351  0.3780 -0.7805 -0.5124
 1820TIP3   OH226950   4.697   5.237   0.773 -0.5932 -0.4668 -0.1963
 1820TIP3    H126951   4.704   5.332   0.785  0.2652 -0.6469  0.8935
 1820TIP3    H226952   4.619   5.226   0.719 -3.6241  0.6200  3.4921
 1821TIP3   OH226953   4.319   5.024  14.923  0.1777 -0.3017  0.6021
 1821TIP3    H126954   4.273   5.037  15.005  2.0818 -0.2172  1.7009
 1821TIP3    H226955   4.411   5.028  14.946  0.8300 -3.0779 -1.0350
 1822TIP3   OH226956   6.583   6.753  12.482  0.2318  0.3138 -0.6920
 1822TIP3    H126957   6.604   6.839  12.520  1.6288 -0.1620 -0.3421
 1822TIP3    H226958   6.497   6.766  12.441 -0.7442  1.1976  1.4850
 1823TIP3   OH226959   5.018   3.606  12.632  0.6231 -0.1492  0.6428
 1823TIP3    H126960   5.071   3.625  12.709  1.0332  2.1967 -0.1549
 1823TIP3    H226961   5.079   3.610  12.559 -0.1431 -0.2688 -0.0195
 1824TIP3   OH226962   5.810   1.892  12.498 -0.2098  0.2609  0.1098
 1824TIP3    H126963   5.757   1.816  12.520 -0.3271 -0.0278 -1.1000
 1824TIP3    H226964   5.868   1.903  12.573 -0.1534 -1.0585  0.2845
 1825TIP3   OH226965   1.684   4.710  11.627 -0.2442  0.4742  0.0125
 1825TIP3    H126966   1.621   4.659  11.678  2.5845  0.0704  3.4843
 1825TIP3    H226967   1.642   4.795  11.615 -1.9824 -0.2080  0.9146
 1826TIP3   OH226968   1.550   4.706  16.760  0.4513 -0.4306 -0.0387
 1826TIP3    H126969   1.597   4.662  16.831  0.7399  0.8929  0.6057
 1826TIP3    H226970   1.515   4.785  16.799  1.0664  0.6018 -1.4963
 1827TIP3   OH226971   2.494   4.342  12.433 -0.0228  0.0755  0.2894
 1827TIP3    H126972   2.582   4.361  12.403  0.9557  0.4511  3.0610
 1827TIP3    H226973   2.456   4.286  12.365  3.4126 -2.6376  0.3427
 1828TIP3   OH226974   4.054   0.012   5.815 -0.0306  0.2093  0.0747
 1828TIP3    H126975   4.120   0.082   5.818  0.2333 -0.0653  0.9085
 1828TIP3    H226976   3.980   0.052   5.768 -0.1236  1.2608  1.0652
 1829TIP3   OH226977   5.342   4.974  16.004  0.0785 -0.1153 -0.2925
 1829TIP3    H126978   5.346   5.036  15.931  2.0658 -0.2561 -0.3573
 1829TIP3    H226979   5.248   4.962  16.020 -0.3835  0.9690 -1.9089
 1830TIP3   OH226980   5.377   0.461  15.662 -0.2038 -0.6549  0.0288
 1830TIP3    H126981   5.463   0.421  15.663  0.4582  0.7184  0.1463
 1830TIP3    H226982   5.345   0.448  15.573  0.2117 -0.9853 -0.0724
 1831TIP3   OH226983   3.339   4.874  14.822  0.0960  0.0364 -0.0534
 1831TIP3    H126984   3.319   4.814  14.894  0.2429 -0.8317 -0.7111
 1831TIP3    H226985   3.306   4.959  14.851  0.5577 -0.1940  1.2180
 1832TIP3   OH226986   3.754   1.013   4.237 -0.0408  0.2942  0.5281
 1832TIP3    H126987   3.840   1.040   4.271 -0.1043  0.8178  0.2727
 1832TIP3    H226988   3.761   1.024   4.143  0.5903 -2.4246  0.1654
 1833TIP3   OH226989   3.156   1.734   4.333 -0.0130  0.1970 -0.3407
 1833TIP3    H126990   3.178   1.769   4.420  0.2667  0.5412 -0.5471
 1833TIP3    H226991   3.073   1.688   4.346  1.2019 -1.8896  0.6684
 1834TIP3   OH226992   5.426   4.058  15.266  0.2175  0.4065  0.2382
 1834TIP3    H126993   5.364   4.037  15.335  1.1697 -0.5181  0.8312
 1834TIP3    H226994   5.403   4.000  15.194 -1.0874  1.7047 -0.4572
 1835TIP3   OH226995   2.202   2.136   0.694 -0.0675  0.1191  0.0481
 1835TIP3    H126996   2.254   2.092   0.762 -0.0650  0.9193  0.5802
 1835TIP3    H226997   2.267   2.168   0.632 -0.0870 -0.8590 -0.4979
 1836TIP3   OH226998   4.592   6.433  17.104 -0.3344 -0.2703  0.1981
 1836TIP3    H126999   4.519   6.375  17.125 -0.8725  0.4089  0.2461
 1836TIP3    H227000   4.567   6.474  17.021  0.4836 -0.8157 -0.3272
 1837TIP3   OH227001   4.301   0.997  13.903  0.1745  0.0243  0.0095
 1837TIP3    H127002   4.366   1.017  13.836 -0.2461  0.6540 -0.2274
 1837TIP3    H227003   4.220   0.981  13.853  0.0567 -0.3674  0.3188
 1838TIP3   OH227004   2.754   1.680  11.988  0.0829  0.5058 -0.9673
 1838TIP3    H127005   2.759   1.645  12.077  1.3844  2.6447 -0.1216
 1838TIP3    H227006   2.837   1.655  11.948 -0.9462 -1.4167 -2.0380
 1839TIP3   OH227007   4.467   2.738   1.233 -0.8167  0.5525 -0.0547
 1839TIP3    H127008   4.478   2.652   1.193  1.9270  0.6183  0.3717
 1839TIP3    H227009   4.556   2.767   1.253 -1.8017  2.3376  2.2593
 1840TIP3   OH227010   2.826   5.597  10.877  0.1555 -0.3344  0.3192
 1840TIP3    H127011   2.892   5.554  10.823  0.2254 -0.0818  0.2001
 1840TIP3    H227012   2.842   5.691  10.864 -0.5582 -0.2657 -0.1340
 1841TIP3   OH227013   2.047   1.577  11.651  0.0014  0.3323  0.3699
 1841TIP3    H127014   2.141   1.566  11.665  0.0550  0.5274  0.1618
 1841TIP3    H227015   2.011   1.489  11.657  0.1146  0.3300  1.0771
 1842TIP3   OH227016   5.431   0.080  16.589 -0.0200 -0.1451  0.1360
 1842TIP3    H127017   5.465   0.051  16.504 -0.4358 -1.8241  0.5149
 1842TIP3    H227018   5.466   0.169  16.599 -0.8292  0.5166 -2.2572
 1843TIP3   OH227019   0.531   5.094   5.618 -0.2303  0.5881 -0.3188
 1843TIP3    H127020   0.450   5.050   5.591  0.6049 -1.0758 -0.2133
 1843TIP3    H227021   0.510   5.187   5.613 -2.0082  0.2034 -0.7369
 1844TIP3   OH227022   1.399   4.704   2.971  0.1136 -0.3435  0.1032
 1844TIP3    H127023   1.459   4.650   3.021 -0.4699 -0.1194  1.0716
 1844TIP3    H227024   1.342   4.744   3.037 -0.4211  0.2675 -0.7100
 1845TIP3   OH227025   3.587   2.086  13.936  0.4624 -0.1276 -0.1763
 1845TIP3    H127026   3.676   2.088  13.971  0.4052 -1.4354  0.0681
 1845TIP3    H227027   3.572   1.995  13.911  0.4637  0.6423 -3.5148
 1846TIP3   OH227028   4.715   0.488  17.141  0.1773  0.1551  0.0957
 1846TIP3    H127029   4.631   0.511  17.102  0.3860 -1.9574 -1.7811
 1846TIP3    H227030   4.696   0.410  17.193  1.0828 -0.8056 -0.9765
 1847TIP3   OH227031   1.879   5.942  15.095 -0.3405 -0.4479 -0.4919
 1847TIP3    H127032   1.975   5.948  15.100 -0.3409 -1.2068  1.6194
 1847TIP3    H227033   1.848   6.021  15.139 -0.6349 -1.1162  0.5407
 1848TIP3   OH227034   0.418   5.435   4.050  0.5507 -0.3826  0.5902
 1848TIP3    H127035   0.502   5.414   4.089 -0.1969  1.8757  3.8053
 1848TIP3    H227036   0.353   5.409   4.115 -1.1484 -0.3235 -0.9726
 1849TIP3   OH227037   0.292   4.939  11.560  0.0967 -0.6341 -0.1539
 1849TIP3    H127038   0.327   4.992  11.489 -1.5387  1.7115  0.6641
 1849TIP3    H227039   0.340   4.968  11.638 -0.7619 -0.3875  0.2956
 1850TIP3   OH227040   0.901   0.732   4.901  0.8755 -0.2418  0.3634
 1850TIP3    H127041   0.875   0.748   4.810  2.1618  0.5272  0.1112
 1850TIP3    H227042   0.872   0.642   4.919 -0.8766  0.1523 -0.2492
 1851TIP3   OH227043   6.054   5.378   3.179  0.0529 -0.9477 -0.2944
 1851TIP3    H127044   6.143   5.406   3.201 -0.8125  0.7180  1.3425
 1851TIP3    H227045   6.035   5.308   3.241  0.0411 -0.9544 -0.3055
 1852TIP3   OH227046   5.787   5.966   5.010 -0.1242  0.5479 -0.0323
 1852TIP3    H127047   5.795   5.916   5.092  1.7671  1.7902  0.6079
 1852TIP3    H227048   5.711   6.022   5.023 -0.0084  0.5306  0.7829
 1853TIP3   OH227049   5.149   5.809  12.855  0.0623  0.2985  0.0808
 1853TIP3    H127050   5.113   5.740  12.800  0.5527 -0.0186  0.1551
 1853TIP3    H227051   5.141   5.775  12.945  0.1342  0.4156  0.1314
 1854TIP3   OH227052   0.514   1.148   3.950  0.1418 -0.0287  0.1542
 1854TIP3    H127053   0.576   1.209   3.911  2.4625 -3.0951 -1.3895
 1854TIP3    H227054   0.565   1.069   3.967 -2.9378 -2.1097  0.5556
 1855TIP3   OH227055   5.605   0.711  12.212  0.5176 -0.4309 -0.1525
 1855TIP3    H127056   5.538   0.780  12.214  0.8456 -0.1278  0.6594
 1855TIP3    H227057   5.683   0.755  12.177  0.4242 -0.6779 -0.6905
 1856TIP3   OH227058   3.959   5.837  15.622  0.1406 -0.1604 -0.5615
 1856TIP3    H127059   3.911   5.830  15.539  1.1685  0.4100 -1.2223
 1856TIP3    H227060   3.987   5.928  15.626  0.0450 -0.1678  0.4602
 1857TIP3   OH227061   4.233   6.570  12.797  0.1615 -0.6397  0.1917
 1857TIP3    H127062   4.300   6.639  12.793  1.0612 -1.4876  0.2150
 1857TIP3    H227063   4.280   6.490  12.776 -0.9994 -1.1738 -0.4753
 1858TIP3   OH227064   2.467   1.633   4.666  0.7664  0.0659  0.0811
 1858TIP3    H127065   2.407   1.558   4.664 -0.8700  1.3067  0.2855
 1858TIP3    H227066   2.430   1.691   4.732  1.4857  1.4534 -0.6866
 1859TIP3   OH227067   5.177   5.347   3.500  0.1138 -0.1130  0.0366
 1859TIP3    H127068   5.259   5.381   3.537  0.9000  0.8691 -2.3769
 1859TIP3    H227069   5.199   5.329   3.408 -2.4590  0.3914 -0.7358
 1860TIP3   OH227070   2.655   2.350   4.836 -0.2437  0.4427 -0.0866
 1860TIP3    H127071   2.562   2.350   4.857 -0.6339 -0.2049 -1.6805
 1860TIP3    H227072   2.699   2.361   4.921 -1.7759  2.2545  0.5409
 1861TIP3   OH227073   2.731   6.022  15.705 -0.0383 -0.4130 -0.1721
 1861TIP3    H127074   2.666   6.021  15.635 -0.6148 -1.6321  0.3533
 1861TIP3    H227075   2.792   6.092  15.681 -1.2457  0.4046 -0.9409
 1862TIP3   OH227076   3.242   5.282  16.089 -0.1189  0.0531  0.1995
 1862TIP3    H127077   3.234   5.217  16.158  0.9125  0.4795  0.7316
 1862TIP3    H227078   3.230   5.233  16.008 -3.9401 -0.0769  0.6636
 1863TIP3   OH227079   6.811   2.156   1.632  0.6608  0.8967  0.3423
 1863TIP3    H127080   6.902   2.143   1.605  0.7536  1.1640  0.5222
 1863TIP3    H227081   6.804   2.249   1.650  0.4406  0.8220  0.6564
 1864TIP3   OH227082   4.100   6.075   2.468  0.7961  0.1912 -0.0737
 1864TIP3    H127083   4.102   5.980   2.456 -0.0885  0.2758 -1.1037
 1864TIP3    H227084   4.078   6.088   2.560  0.8983 -0.6011  0.0663
 1865TIP3   OH227085   0.819   0.266  15.409  0.0735 -0.7073 -0.2891
 1865TIP3    H127086   0.859   0.183  15.385  0.5964 -0.6704  0.4447
 1865TIP3    H227087   0.748   0.242  15.469 -0.6034 -0.7180 -1.0709
 1866TIP3   OH227088   1.238   4.274  13.115  0.5225  0.2858 -0.6500
 1866TIP3    H127089   1.325   4.306  13.091  0.6737 -1.2192 -2.2792
 1866TIP3    H227090   1.254   4.190  13.157 -0.1354  0.0456 -0.8746
 1867TIP3   OH227091   2.790   0.212  11.849 -0.5730 -0.1397  0.2868
 1867TIP3    H127092   2.806   0.163  11.768 -2.0175  0.0279 -0.1442
 1867TIP3    H227093   2.779   0.303  11.820  0.6056  0.2097  0.8961
 1868TIP3   OH227094   3.009   1.225  14.417  0.5850 -0.0073  0.3334
 1868TIP3    H127095   2.957   1.286  14.365  0.9267 -0.4710 -0.5689
 1868TIP3    H227096   2.979   1.239  14.507  0.4035  1.2232  0.0966
 1869TIP3   OH227097   3.050   5.228   0.193  0.0128 -0.7761 -0.4244
 1869TIP3    H127098   3.082   5.141   0.169 -1.7702 -1.7786  0.6165
 1869TIP3    H227099   2.978   5.245   0.132  0.5989  0.1674 -0.8758
 1870TIP3   OH227100   4.814   1.816  16.245 -0.0943  0.4914  0.1787
 1870TIP3    H127101   4.792   1.909  16.237  0.7102  0.5600 -1.6578
 1870TIP3    H227102   4.908   1.812  16.231 -0.6714 -1.0690 -5.6995
 1871TIP3   OH227103   4.027   0.914  15.284  0.0482 -0.2995  0.3792
 1871TIP3    H127104   4.063   0.955  15.363  0.9033 -1.5002  0.6427
 1871TIP3    H227105   4.062   0.825  15.285  1.6449  0.1703 -2.3252
 1872TIP3   OH227106   0.399   3.982   0.444 -0.3794  0.3416  0.3135
 1872TIP3    H127107   0.344   3.915   0.405  0.8231 -0.4766 -0.0529
 1872TIP3    H227108   0.362   3.996   0.532 -0.1585 -1.4446  0.7279
 1873TIP3   OH227109   4.261   1.877  12.207  0.0300  0.2981  0.3620
 1873TIP3    H127110   4.290   1.965  12.229  0.4016  0.2683 -0.0045
 1873TIP3    H227111   4.188   1.860  12.267  1.3999 -0.0167  2.0194
 1874TIP3   OH227112   3.888   4.016  16.798 -0.1147  0.3049  0.0420
 1874TIP3    H127113   3.963   3.958  16.787  0.0004 -0.1896  2.7218
 1874TIP3    H227114   3.812   3.965  16.770  0.3457  0.1877 -1.0205
 1875TIP3   OH227115   0.370   0.135   1.761  0.6343  0.3935 -0.1368
 1875TIP3    H127116   0.276   0.144   1.772  0.8019 -0.2051  2.3176
 1875TIP3    H227117   0.401   0.225   1.745 -0.2859  0.6427 -0.5933
 1876TIP3   OH227118   5.466   6.250  15.495  0.0858  0.0971  0.7622
 1876TIP3    H127119   5.407   6.176  15.485 -0.7621  0.5294  2.2930
 1876TIP3    H227120   5.509   6.236  15.579  1.1186  0.5228  0.3182
 1877TIP3   OH227121   0.355   5.908   3.049 -0.0323  0.2984  1.1234
 1877TIP3    H127122   0.438   5.859   3.046 -0.6044 -0.7601 -2.5779
 1877TIP3    H227123   0.381   6.000   3.043  0.8985  0.0278  0.8494
 1878TIP3   OH227124   0.237   3.047  14.115  0.4229 -0.6900 -0.3530
 1878TIP3    H127125   0.219   3.020  14.025  0.4044 -2.1308  0.0584
 1878TIP3    H227126   0.180   3.123  14.130 -2.0019 -2.3510 -0.5440
 1879TIP3   OH227127   1.082   4.273  16.369 -0.8755 -0.3871  0.2955
 1879TIP3    H127128   0.999   4.320  16.375 -0.1719  1.3466 -1.9920
 1879TIP3    H227129   1.139   4.318  16.432 -1.4007 -0.9861  1.2079
 1880TIP3   OH227130   2.274   2.343  13.354 -0.1008  0.0428 -0.1666
 1880TIP3    H127131   2.243   2.277  13.291  2.4958 -1.3640 -0.1010
 1880TIP3    H227132   2.339   2.393  13.306 -1.2458  1.8923  0.1400
 1881TIP3   OH227133   4.307   0.239  15.397  0.1224  0.2456  0.5146
 1881TIP3    H127134   4.257   0.202  15.470 -2.1865  1.8657 -0.1143
 1881TIP3    H227135   4.333   0.164  15.344 -1.3258 -0.7083  1.1058
 1882TIP3   OH227136   2.875   2.618   5.635  0.5487  0.1185 -0.3388
 1882TIP3    H127137   2.798   2.670   5.658 -0.5809 -0.9319 -1.5421
 1882TIP3    H227138   2.943   2.683   5.617  0.0468  1.0668  1.0161
 1883TIP3   OH227139   1.052   5.087  14.791 -0.5475  0.0219 -0.3581
 1883TIP3    H127140   0.967   5.130  14.802 -0.1827  0.6575  0.0399
 1883TIP3    H227141   1.074   5.056  14.879 -0.1364  0.3059 -0.3577
 1884TIP3   OH227142   6.039   2.188  13.250 -0.7132  0.4923  0.0016
 1884TIP3    H127143   5.963   2.134  13.226 -0.1528 -0.6934  0.7893
 1884TIP3    H227144   6.023   2.210  13.342 -0.9313  1.7013 -0.3097
 1885TIP3   OH227145   5.018   1.711  11.909 -0.0086  0.0659 -0.3657
 1885TIP3    H127146   4.986   1.698  11.998 -0.6990 -0.5588 -0.6925
 1885TIP3    H227147   4.945   1.751  11.862  0.4017  0.5291 -0.6203
 1886TIP3   OH227148   1.835   3.702   0.431  0.5384  0.0356  0.3925
 1886TIP3    H127149   1.899   3.762   0.467  0.8998 -0.3382  0.3773
 1886TIP3    H227150   1.754   3.754   0.425  0.4528  0.1010  1.7846
 1887TIP3   OH227151   2.730   4.923   2.439 -0.3936  0.2358 -0.0643
 1887TIP3    H127152   2.722   4.974   2.520  0.3076  1.5266 -0.7724
 1887TIP3    H227153   2.706   4.985   2.370 -0.0564 -0.5692 -0.9170
 1888TIP3   OH227154   6.634   1.515  14.307  0.3657 -0.2500 -0.7438
 1888TIP3    H127155   6.559   1.491  14.362  0.3948 -0.2934 -0.7240
 1888TIP3    H227156   6.632   1.611  14.306  1.4763 -0.1707  0.8664
 1889TIP3   OH227157   5.917   4.015   3.144  0.3292  0.2673 -0.1496
 1889TIP3    H127158   5.941   4.027   3.052 -1.2611  0.0976 -0.6158
 1889TIP3    H227159   5.932   3.922   3.161  0.4904  0.2694 -0.2757
 1890TIP3   OH227160   5.483   3.996   5.757  0.2888 -0.0792  0.3260
 1890TIP3    H127161   5.464   4.008   5.850 -0.7081 -0.5849  0.2081
 1890TIP3    H227162   5.398   4.009   5.714  0.7213  0.0421 -0.4936
 1891TIP3   OH227163   0.815   4.133   4.455  0.1149 -0.8546 -0.2486
 1891TIP3    H127164   0.792   4.094   4.539 -0.1031 -0.4772 -0.1291
 1891TIP3    H227165   0.869   4.067   4.412  0.1226 -1.1027  0.1337
 1892TIP3   OH227166   1.642   0.620   5.050  0.2013  0.2692 -0.4930
 1892TIP3    H127167   1.663   0.542   4.998 -0.4649 -0.1486 -0.1471
 1892TIP3    H227168   1.547   0.625   5.050  0.1075 -0.4269  1.6448
 1893TIP3   OH227169   0.680   6.282   6.212  0.2159 -0.2890  0.5054
 1893TIP3    H127170   0.710   6.260   6.300  0.7156  0.4661  0.5382
 1893TIP3    H227171   0.585   6.289   6.219  0.2640 -0.1293  1.0045
 1894TIP3   OH227172   1.238   5.056  11.645 -0.2112 -0.0869 -0.1951
 1894TIP3    H127173   1.311   5.087  11.590  1.7098 -1.1626  1.6023
 1894TIP3    H227174   1.234   4.962  11.628 -1.4362  0.0076 -0.5056
 1895TIP3   OH227175   5.558   3.779   5.992 -0.1998  0.3051 -0.3650
 1895TIP3    H127176   5.498   3.853   5.980 -1.6638 -0.8976 -0.7753
 1895TIP3    H227177   5.517   3.725   6.059  0.7680 -0.2305 -0.1858
 1896TIP3   OH227178   0.472   5.852  11.750  0.0969  0.4798 -0.4831
 1896TIP3    H127179   0.403   5.916  11.730  0.2835  1.1301  0.7862
 1896TIP3    H227180   0.487   5.864  11.844  0.8709 -0.7282 -0.4430
 1897TIP3   OH227181   2.651   3.692  16.814 -0.3929  0.2769 -0.0737
 1897TIP3    H127182   2.584   3.657  16.755 -0.0705  0.5590 -0.6251
 1897TIP3    H227183   2.624   3.666  16.901 -0.0116 -1.5925 -0.4791
 1898TIP3   OH227184   4.931   2.458  16.424 -0.4226 -0.3217  0.1726
 1898TIP3    H127185   4.871   2.410  16.480 -0.7606 -0.5265 -0.3583
 1898TIP3    H227186   4.993   2.392  16.394 -0.7502 -0.3783 -0.3759
 1899TIP3   OH227187   2.153   3.743   3.177  0.4822  0.4072 -0.0996
 1899TIP3    H127188   2.226   3.725   3.235 -1.0438  0.5577  1.9611
 1899TIP3    H227189   2.192   3.744   3.089  3.1646  1.8223  0.9975
 1900TIP3   OH227190   0.612   4.193   5.176  0.0241 -0.1335 -0.2251
 1900TIP3    H127191   0.584   4.111   5.135 -2.0206  0.1388  0.5325
 1900TIP3    H227192   0.613   4.257   5.105  0.0911 -0.4573 -0.5183
 1901TIP3   OH227193   2.396   0.715  12.414 -0.0788  0.4161  0.6466
 1901TIP3    H127194   2.416   0.807  12.393 -0.4473  0.1481 -0.9778
 1901TIP3    H227195   2.464   0.690  12.476  0.4206  1.5887  0.6083
 1902TIP3   OH227196   4.276   3.830   5.087 -0.3192 -0.1836 -0.0485
 1902TIP3    H127197   4.248   3.909   5.042 -2.0617 -0.7741 -0.0711
 1902TIP3    H227198   4.372   3.836   5.089 -0.3639  1.3516 -1.0500
 1903TIP3   OH227199   4.178   4.009   1.176 -0.1685  0.0393  0.2632
 1903TIP3    H127200   4.270   3.983   1.168 -0.3336 -0.4740  0.0029
 1903TIP3    H227201   4.130   3.946   1.122 -0.4576  1.7507 -1.5644
 1904TIP3   OH227202   6.175   3.839  11.765  0.5671  0.1110  0.4158
 1904TIP3    H127203   6.107   3.831  11.698  0.8286 -0.9181  0.2652
 1904TIP3    H227204   6.222   3.919  11.741 -0.2685  0.5670  0.2411
 1905TIP3   OH227205   5.859   2.532  12.747  0.3352  0.4443  0.4730
 1905TIP3    H127206   5.795   2.511  12.679  0.8003 -0.2905  0.2455
 1905TIP3    H227207   5.937   2.560  12.700  1.0336 -1.1318  0.6400
 1906TIP3   OH227208   3.797   5.048  11.861 -0.2312  0.3220  0.4311
 1906TIP3    H127209   3.862   5.119  11.852 -1.1179  1.1307  0.2980
 1906TIP3    H227210   3.717   5.092  11.887  0.0949 -1.0038  4.3220
 1907TIP3   OH227211   5.472   3.463   5.283 -0.1773  0.6953  0.0420
 1907TIP3    H127212   5.473   3.381   5.235 -0.0531 -0.2714  1.6365
 1907TIP3    H227213   5.546   3.458   5.343 -1.2810  1.1073  1.5152
 1908TIP3   OH227214   2.936   0.942   1.121  0.0055  0.1221  0.2186
 1908TIP3    H127215   2.909   1.033   1.108 -0.5291 -0.2351 -1.3039
 1908TIP3    H227216   3.007   0.929   1.059 -1.3669 -1.1086 -1.1684
 1909TIP3   OH227217   3.431   1.708   6.522  0.6886  0.0190 -0.7964
 1909TIP3    H127218   3.395   1.660   6.596  2.1951  0.6216  0.3867
 1909TIP3    H227219   3.524   1.689   6.524  1.0161  1.3989 -1.4935
 1910TIP3   OH227220   1.079   3.685   5.008 -0.1197 -0.0490 -0.4148
 1910TIP3    H127221   1.043   3.703   4.921 -0.2275 -0.3004 -0.4247
 1910TIP3    H227222   1.068   3.767   5.056  0.7535  0.3711 -0.9119
 1911TIP3   OH227223   2.592   6.794  10.535  0.5109 -0.6565  0.0774
 1911TIP3    H127224   2.643   6.872  10.556 -0.5227 -0.6458  3.0315
 1911TIP3    H227225   2.638   6.723  10.580 -0.4768 -1.1192  0.3815
 1912TIP3   OH227226   4.143   4.240   0.402 -0.1763 -0.3053  0.2061
 1912TIP3    H127227   4.094   4.271   0.326 -1.1792  0.0079  0.9565
 1912TIP3    H227228   4.223   4.202   0.366  1.1807  3.1214 -0.8040
 1913TIP3   OH227229   2.735   1.414   0.215  0.2000  0.0279  0.0341
 1913TIP3    H127230   2.795   1.486   0.200 -1.5248  1.8137  1.1553
 1913TIP3    H227231   2.755   1.383   0.304  0.5983 -0.5276 -0.2485
 1914TIP3   OH227232   5.563   5.900  12.400 -0.2116  0.7985  0.1425
 1914TIP3    H127233   5.510   5.965  12.353 -1.2016 -0.5882 -0.7308
 1914TIP3    H227234   5.561   5.822  12.344 -0.6997 -0.6469  2.0512
 1915TIP3   OH227235   1.934   2.423   1.954 -0.1331  0.1973  0.5320
 1915TIP3    H127236   2.025   2.432   1.923  0.0022  1.9014  1.3611
 1915TIP3    H227237   1.881   2.446   1.878  0.0848 -1.0269 -0.0273
 1916TIP3   OH227238   4.161   3.871  13.628 -0.5448 -0.0870 -0.0377
 1916TIP3    H127239   4.124   3.803  13.571 -2.4697  1.0929 -0.2805
 1916TIP3    H227240   4.237   3.903  13.581 -0.8563 -0.6283 -0.9288
 1917TIP3   OH227241   4.507   1.251  14.901  0.0393  0.0732 -0.1728
 1917TIP3    H127242   4.415   1.275  14.912 -0.4451 -1.3319 -0.8937
 1917TIP3    H227243   4.506   1.158  14.879  1.5962  0.1498 -0.7745
 1918TIP3   OH227244   4.447   0.720  11.297  0.6043 -0.8089 -0.0086
 1918TIP3    H127245   4.459   0.739  11.204 -2.0244 -0.0546 -0.2611
 1918TIP3    H227246   4.430   0.805  11.338  0.8045 -1.2377  1.0083
 1919TIP3   OH227247   0.350   4.484  15.816  0.8592  1.1371  0.2969
 1919TIP3    H127248   0.298   4.447  15.745  0.3170 -0.4540  1.4626
 1919TIP3    H227249   0.372   4.573  15.787 -0.5126  1.0115 -1.2315
 1920TIP3   OH227250   4.247   0.450  11.030  0.3246  0.0889  0.7275
 1920TIP3    H127251   4.183   0.430  10.962 -0.1498 -0.8213  1.4272
 1920TIP3    H227252   4.330   0.416  10.995  0.0718 -0.4269  0.6119
 1921TIP3   OH227253   0.738   6.697  14.772  0.8163  0.1248 -0.4643
 1921TIP3    H127254   0.796   6.773  14.768 -0.7630  1.3898 -0.2851
 1921TIP3    H227255   0.687   6.701  14.691  0.6101 -0.6645 -0.3823
 1922TIP3   OH227256   6.605   3.251  11.325 -0.0428  0.1099 -0.0009
 1922TIP3    H127257   6.599   3.275  11.233  1.8136 -0.4047 -0.2868
 1922TIP3    H227258   6.542   3.180  11.335 -0.0643 -0.0121 -0.9414
 1923TIP3   OH227259   2.095   3.658  14.091  0.2885  0.4971  0.2040
 1923TIP3    H127260   2.056   3.633  14.175  0.8290 -1.3355 -0.0501
 1923TIP3    H227261   2.182   3.691  14.114  0.7526 -0.7665  0.3163
 1924TIP3   OH227262   0.045   0.017  12.842 -0.0116 -0.0690 -0.4546
 1924TIP3    H127263   0.116   0.042  12.784  1.1154 -2.2122 -0.1155
 1924TIP3    H227264   0.072  -0.068  12.878 -2.0818 -0.2735  0.8076
 1925TIP3   OH227265   2.642   4.834  16.068 -0.0322  0.4915  0.2217
 1925TIP3    H127266   2.703   4.761  16.055  0.1450  0.5833  0.5245
 1925TIP3    H227267   2.599   4.845  15.983 -0.2224 -0.1121  0.2338
 1926TIP3   OH227268   4.598   4.898   1.270  0.0700  0.2791 -0.3781
 1926TIP3    H127269   4.551   4.936   1.195  0.2986 -1.4457 -1.4424
 1926TIP3    H227270   4.683   4.872   1.234  0.7840  0.8115  0.8632
 1927TIP3   OH227271   2.578   1.383  15.110 -0.4601  0.0904 -0.1592
 1927TIP3    H127272   2.589   1.470  15.149  0.6373 -0.2918  0.4457
 1927TIP3    H227273   2.668   1.353  15.095 -0.7899 -1.3390  0.5662
 1928TIP3   OH227274   2.788   5.349   5.712 -0.1050  0.1039 -0.2590
 1928TIP3    H127275   2.789   5.328   5.619  1.4768 -1.4222  0.0583
 1928TIP3    H227276   2.874   5.387   5.730 -0.8901  1.6998  0.3381
 1929TIP3   OH227277   4.502   4.886  14.685  0.2005 -0.3605 -0.2441
 1929TIP3    H127278   4.433   4.952  14.678  0.2267 -0.4717 -1.9769
 1929TIP3    H227279   4.456   4.805  14.704  0.0734 -0.0554  0.8169
 1930TIP3   OH227280   6.447   3.235   0.685 -0.2622 -0.3797 -0.1524
 1930TIP3    H127281   6.373   3.276   0.640 -1.8423 -0.3678  2.2628
 1930TIP3    H227282   6.418   3.145   0.700  0.4072 -0.5139  0.3636
 1931TIP3   OH227283   3.055   4.420   3.613  0.1395  0.7012  0.1208
 1931TIP3    H127284   3.011   4.349   3.565 -1.3332  0.8996  1.1137
 1931TIP3    H227285   3.008   4.499   3.587  1.4859  1.2733 -0.6351
 1932TIP3   OH227286   1.948   5.256   3.207  0.3268 -0.3759 -0.0224
 1932TIP3    H127287   2.001   5.224   3.135  2.0025  0.4880  0.7602
 1932TIP3    H227288   1.962   5.351   3.207 -1.3835 -0.0967  0.1028
 1933TIP3   OH227289   6.193   0.427   3.693  0.0923 -0.0942  0.1581
 1933TIP3    H127290   6.172   0.342   3.655 -0.8368  0.0903  0.2500
 1933TIP3    H227291   6.220   0.408   3.783  1.4924 -0.4449 -0.2983
 1934TIP3   OH227292   0.953   2.463  11.139  0.0301  0.0583  0.3827
 1934TIP3    H127293   1.020   2.528  11.159  0.3469 -0.0398 -0.3359
 1934TIP3    H227294   0.896   2.463  11.216 -0.1955  1.4677  0.2430
 1935TIP3   OH227295   3.379   4.234   3.163  0.4857 -0.4303 -0.1192
 1935TIP3    H127296   3.414   4.319   3.136 -1.0100 -0.2171 -1.5297
 1935TIP3    H227297   3.302   4.255   3.216  1.5737 -0.9205  1.7740
 1936TIP3   OH227298   6.785   5.750  13.617 -0.4546 -0.2223  0.3538
 1936TIP3    H127299   6.777   5.658  13.643 -1.9541  0.0165  0.8250
 1936TIP3    H227300   6.770   5.749  13.522 -1.1103 -0.3860  0.4599
 1937TIP3   OH227301   0.979   4.658  16.545 -0.3014 -0.4256  0.0682
 1937TIP3    H127302   1.003   4.711  16.469 -2.3409 -0.4001 -0.6279
 1937TIP3    H227303   0.952   4.574  16.508  0.2862 -1.0185  0.9342
 1938TIP3   OH227304   4.508   6.467  12.778  0.3288  0.1510  0.1179
 1938TIP3    H127305   4.517   6.372  12.785  0.9511  0.2854  1.8619
 1938TIP3    H227306   4.499   6.496  12.869 -1.1134  1.6561 -0.4635
 1939TIP3   OH227307   5.946   3.801   4.680  0.3497  0.3053  0.1818
 1939TIP3    H127308   5.972   3.860   4.609  0.9890  0.0374  0.1830
 1939TIP3    H227309   5.976   3.715   4.652 -1.1707 -0.1386 -0.1193
 1940TIP3   OH227310   4.448   3.282  14.547 -0.3792 -0.1226  0.0022
 1940TIP3    H127311   4.403   3.286  14.631  0.0900  1.2159  0.2219
 1940TIP3    H227312   4.402   3.345  14.492  0.9323  0.9801  0.1092
 1941TIP3   OH227313   1.805   3.521   2.056 -0.7494 -0.1963  0.1342
 1941TIP3    H127314   1.835   3.471   2.132 -3.1022 -0.8952  0.6805
 1941TIP3    H227315   1.814   3.612   2.082 -0.8362 -0.4144  0.9482
 1942TIP3   OH227316   1.467   4.083   4.264 -0.3714  0.5679 -0.4391
 1942TIP3    H127317   1.431   4.016   4.206  0.6607 -1.5277  1.1651
 1942TIP3    H227318   1.512   4.144   4.206 -1.5614  0.0270 -2.0043
 1943TIP3   OH227319   3.989   5.357   5.742 -0.1423 -0.3305  0.3247
 1943TIP3    H127320   4.049   5.430   5.726 -0.3497 -0.5392 -1.6734
 1943TIP3    H227321   3.911   5.397   5.780 -1.0193  0.8532 -2.4596
 1944TIP3   OH227322   1.404   6.711   0.797  0.1089 -0.4430 -1.2725
 1944TIP3    H127323   1.339   6.641   0.803  0.4035 -0.6524 -0.4551
 1944TIP3    H227324   1.485   6.672   0.829 -0.2704  0.9464  1.7796
 1945TIP3   OH227325   2.655   1.194   1.644  0.4202  0.1525  0.2591
 1945TIP3    H127326   2.647   1.102   1.669  0.1770  0.3809  1.0610
 1945TIP3    H227327   2.640   1.195   1.550 -2.7604 -0.2709  0.6530
 1946TIP3   OH227328   3.751   1.842  16.775  0.3651 -0.0851 -0.4207
 1946TIP3    H127329   3.795   1.890  16.706  0.2110 -0.4057 -0.7426
 1946TIP3    H227330   3.659   1.868  16.769  0.1585 -0.9146 -1.0259
 1947TIP3   OH227331   3.133   0.745   3.372  0.5534  0.2598 -0.2260
 1947TIP3    H127332   3.154   0.652   3.374 -2.9078 -0.6578  1.1369
 1947TIP3    H227333   3.078   0.756   3.294  0.7958  1.1449 -0.2828
 1948TIP3   OH227334   4.494   1.620   4.804 -0.0721  0.1058  0.3103
 1948TIP3    H127335   4.528   1.609   4.892 -1.4154  0.3157  0.8806
 1948TIP3    H227336   4.572   1.631   4.749  0.8017 -0.6800  1.3605
 1949TIP3   OH227337   0.039   4.478  11.957 -0.3175 -0.4721  0.3876
 1949TIP3    H127338  -0.012   4.469  11.876 -0.9567 -1.7437  0.8984
 1949TIP3    H227339   0.003   4.411  12.015  3.1216 -2.7753  0.1709
 1950TIP3   OH227340   2.867   6.455  15.597  0.5931 -0.3288 -0.4690
 1950TIP3    H127341   2.870   6.550  15.606 -0.9329 -0.2899  0.0162
 1950TIP3    H227342   2.840   6.440  15.507  0.9485 -0.3000 -0.5791
 1951TIP3   OH227343   2.279   1.268  14.777  0.1696  0.3471 -0.6718
 1951TIP3    H127344   2.262   1.181  14.742  1.6856 -0.3459  0.2180
 1951TIP3    H227345   2.357   1.257  14.832  0.3042  2.2376 -0.4262
 1952TIP3   OH227346   6.318   4.280  16.637  0.1139  0.1460 -0.3654
 1952TIP3    H127347   6.413   4.291  16.630  0.1457 -0.1286 -0.3702
 1952TIP3    H227348   6.306   4.216  16.707 -0.1083  0.9621  0.3690
 1953TIP3   OH227349   6.461   4.276   4.407  0.1846  0.3794  0.0489
 1953TIP3    H127350   6.378   4.238   4.378  1.5458 -1.0419 -2.2557
 1953TIP3    H227351   6.483   4.340   4.339  1.2867  0.2705  0.2897
 1954TIP3   OH227352   0.808   3.291   4.356  0.2133  0.0049 -0.3505
 1954TIP3    H127353   0.815   3.244   4.273  1.2685 -1.3417  0.4566
 1954TIP3    H227354   0.895   3.283   4.395 -0.2459  0.6848  0.8580
 1955TIP3   OH227355   4.908   5.192   4.530  0.0612 -0.1385 -0.0101
 1955TIP3    H127356   4.924   5.246   4.608 -1.6408  0.2192  0.1330
 1955TIP3    H227357   4.983   5.132   4.527  1.2646  1.2646  0.6501
 1956TIP3   OH227358   5.160   3.506  16.913 -0.4618 -0.6302  0.3357
 1956TIP3    H127359   5.192   3.418  16.936 -0.5880 -0.7497  0.0594
 1956TIP3    H227360   5.086   3.520  16.973 -0.7555 -0.9191  0.0491
 1957TIP3   OH227361   5.612   5.195  14.626 -0.4421  0.1765  0.5916
 1957TIP3    H127362   5.590   5.107  14.656 -0.4102  0.3022  0.9949
 1957TIP3    H227363   5.657   5.235  14.701  1.2612 -0.1044 -0.2338
 1958TIP3   OH227364   3.461   0.857  14.713 -0.2818 -0.0606  0.0459
 1958TIP3    H127365   3.417   0.933  14.674 -0.6190 -0.1291  0.2861
 1958TIP3    H227366   3.485   0.886  14.801 -2.8726 -1.0705  1.1983
 1959TIP3   OH227367   2.562   6.387   2.254 -0.3262  0.2715 -0.2971
 1959TIP3    H127368   2.483   6.440   2.240 -0.8060 -0.4288 -0.2730
 1959TIP3    H227369   2.565   6.329   2.178  0.4637  0.6487 -0.5654
 1960TIP3   OH227370   4.593   3.831  14.392 -0.0337 -0.1587 -0.2653
 1960TIP3    H127371   4.677   3.807  14.353 -0.6281  0.1286 -1.8164
 1960TIP3    H227372   4.565   3.753  14.440  1.1293 -0.2274  0.3330
 1961TIP3   OH227373   2.788   6.000  12.567 -0.1568  0.0111  0.1135
 1961TIP3    H127374   2.720   5.945  12.605 -0.4767  0.3403  0.0217
 1961TIP3    H227375   2.860   5.940  12.550 -0.3358 -0.2995  0.4261
 1962TIP3   OH227376   6.424   0.532   3.075  0.0178 -0.3990 -0.2881
 1962TIP3    H127377   6.505   0.573   3.107 -0.1640 -1.9084  2.4038
 1962TIP3    H227378   6.449   0.443   3.052 -0.8692 -0.9891  0.8853
 1963TIP3   OH227379   2.863   6.520  13.813  0.2228  0.6410 -0.1152
 1963TIP3    H127380   2.808   6.496  13.888  0.8833  1.0015  0.4992
 1963TIP3    H227381   2.917   6.443  13.797  0.5432  0.7929  0.2114
 1964TIP3   OH227382   2.800   6.413  13.580  0.0884  0.2900 -0.1661
 1964TIP3    H127383   2.766   6.325  13.598 -0.1857  0.4828  0.2716
 1964TIP3    H227384   2.779   6.463  13.659  2.3171  0.1572  0.5846
 1965TIP3   OH227385   5.116   6.739   4.464  0.3521 -0.4424  0.1414
 1965TIP3    H127386   5.128   6.755   4.557  0.3015  0.8611 -0.0646
 1965TIP3    H227387   5.037   6.787   4.440  1.6478  1.2582 -1.0304
 1966TIP3   OH227388   6.250   1.605  10.865  0.1010  0.5800  0.0749
 1966TIP3    H127389   6.287   1.649  10.941  1.0488  0.7900 -0.4916
 1966TIP3    H227390   6.276   1.513  10.874  0.1736  0.5959  0.0290
 1967TIP3   OH227391   1.471   1.069   3.246 -0.0344  0.1419  0.1100
 1967TIP3    H127392   1.469   1.093   3.154  1.3066  1.0510  0.2961
 1967TIP3    H227393   1.541   1.121   3.284 -0.3002 -0.4939  1.5775
 1968TIP3   OH227394   1.586   1.322  13.966 -0.6262 -0.0714  0.6151
 1968TIP3    H127395   1.666   1.313  13.914 -0.5529  0.8482  0.5606
 1968TIP3    H227396   1.558   1.412  13.952 -3.0750 -1.0337 -1.4141
 1969TIP3   OH227397   0.959   6.462   5.447 -0.0972  0.4989 -0.0403
 1969TIP3    H127398   0.875   6.417   5.437  0.0404 -0.5819  2.8143
 1969TIP3    H227399   0.936   6.552   5.467 -0.5089  0.5536 -0.7263
 1970TIP3   OH227400   2.824   2.176   3.457 -0.0189  0.3222 -0.5036
 1970TIP3    H127401   2.885   2.103   3.445 -0.0679  0.1032  0.5061
 1970TIP3    H227402   2.879   2.250   3.480 -0.2088 -0.3748  2.6308
 1971TIP3   OH227403   6.379   5.477   1.502 -0.1992  0.7136  0.8920
 1971TIP3    H127404   6.293   5.518   1.509 -0.9664 -0.7694  0.5329
 1971TIP3    H227405   6.402   5.484   1.410 -0.5944 -0.1599  0.7238
 1972TIP3   OH227406   1.755   3.252   3.055 -0.4213 -0.0799  0.6255
 1972TIP3    H127407   1.847   3.238   3.033 -0.5325 -0.4551  0.4015
 1972TIP3    H227408   1.709   3.180   3.013 -0.9585  0.7771 -0.2948
 1973TIP3   OH227409   1.081   6.177   0.431  0.2767 -0.4604  0.0492
 1973TIP3    H127410   1.145   6.240   0.463  0.6391  0.1352 -1.7394
 1973TIP3    H227411   1.118   6.092   0.453  1.3290 -0.1055 -0.2989
 1974TIP3   OH227412   5.589   2.327  15.722  0.2804 -0.0059 -0.1440
 1974TIP3    H127413   5.497   2.307  15.737  0.2915 -0.0371 -0.1152
 1974TIP3    H227414   5.589   2.409  15.672  0.2349 -0.0892 -0.2776
 1975TIP3   OH227415   5.455   1.405  14.443  0.4508  0.3802 -0.5167
 1975TIP3    H127416   5.516   1.477  14.427 -0.3434  1.0126 -0.7844
 1975TIP3    H227417   5.480   1.338  14.379 -0.5235  1.5181 -2.1555
 1976TIP3   OH227418   0.433   6.427  14.606 -0.7156  0.3402 -0.3673
 1976TIP3    H127419   0.466   6.448  14.519 -2.3649  0.7681 -0.9141
 1976TIP3    H227420   0.427   6.331  14.606  0.1523  0.2737 -0.3735
 1977TIP3   OH227421   2.488   4.999  16.614 -0.1409 -0.3714 -0.4646
 1977TIP3    H127422   2.415   4.976  16.557 -1.6054  2.7295 -0.0515
 1977TIP3    H227423   2.565   4.989  16.558 -1.1663 -0.8795 -1.8583
 1978TIP3   OH227424   2.357   2.602  12.961  0.9753  0.0858 -0.1095
 1978TIP3    H127425   2.418   2.638  12.896  0.2239  1.5143 -0.0556
 1978TIP3    H227426   2.270   2.622  12.926  0.5369 -0.9265  0.3676
 1979TIP3   OH227427   0.356   4.011   0.078 -0.3874  0.1462 -0.5496
 1979TIP3    H127428   0.446   3.999   0.051 -0.1956  1.0170 -0.3208
 1979TIP3    H227429   0.361   4.070   0.154 -1.1599  0.3882 -0.6755
 1980TIP3   OH227430   5.607   4.135   3.971  0.1993 -0.0360 -0.3032
 1980TIP3    H127431   5.586   4.189   4.047  0.0776  0.9866 -1.0407
 1980TIP3    H227432   5.565   4.051   3.989 -1.4024  0.7754 -0.0591
 1981TIP3   OH227433   2.937   4.387  16.524 -0.5625 -0.0560  0.1064
 1981TIP3    H127434   2.891   4.440  16.459 -1.3737 -0.4073  0.3870
 1981TIP3    H227435   3.030   4.406  16.509 -0.6365 -0.9804 -1.9126
 1982TIP3   OH227436   6.298   2.481   2.274 -0.2635  0.0919  0.1976
 1982TIP3    H127437   6.238   2.430   2.221 -1.6337  1.6728  0.1528
 1982TIP3    H227438   6.320   2.557   2.220  0.6873  0.2415  0.7572
 1983TIP3   OH227439   3.609   5.130  15.572 -0.8971  0.5465  0.0846
 1983TIP3    H127440   3.688   5.183  15.564 -1.2811  1.0368 -0.5283
 1983TIP3    H227441   3.557   5.174  15.638 -0.4091 -0.1087  0.9285
 1984TIP3   OH227442   1.828   6.037   5.564  0.5250 -0.5773 -0.2302
 1984TIP3    H127443   1.734   6.031   5.580  0.5631 -0.1858  0.1665
 1984TIP3    H227444   1.869   6.006   5.645  0.7470 -1.3795 -0.6408
 1985TIP3   OH227445   3.619   3.112  15.169 -0.2936  0.2634 -0.3687
 1985TIP3    H127446   3.695   3.090  15.222 -0.3473 -0.7851 -0.7160
 1985TIP3    H227447   3.580   3.188  15.213  0.8333  0.6924 -0.0778
 1986TIP3   OH227448   5.729   0.562   3.345 -0.1864  0.1324  0.2612
 1986TIP3    H127449   5.661   0.495   3.355 -0.3591  0.4150  1.0848
 1986TIP3    H227450   5.713   0.599   3.259  0.3938 -1.4085 -0.5458
 1987TIP3   OH227451   5.812   5.356  10.773 -0.1555 -0.1967  0.0468
 1987TIP3    H127452   5.749   5.421  10.741 -0.8579 -1.2828 -0.8535
 1987TIP3    H227453   5.813   5.288  10.705  2.7843  0.2711 -0.4916
 1988TIP3   OH227454   1.643   6.303   1.882 -0.5249  0.6402  0.2698
 1988TIP3    H127455   1.708   6.235   1.902 -0.9941  0.6686  2.1350
 1988TIP3    H227456   1.598   6.317   1.966 -2.4514  1.1280 -0.7903
 1989TIP3   OH227457   5.442   4.686   1.964  0.3030  0.1270 -0.5141
 1989TIP3    H127458   5.406   4.598   1.970  1.0537 -0.5234 -3.8502
 1989TIP3    H227459   5.535   4.676   1.984  0.6875 -0.1777 -2.2797
 1990TIP3   OH227460   3.210   1.517  13.184  0.0362  0.2650  0.4762
 1990TIP3    H127461   3.252   1.432  13.178  0.0604  0.3245 -0.2775
 1990TIP3    H227462   3.194   1.543  13.093  0.1620  1.1305  0.6907
 1991TIP3   OH227463   1.026   6.172  12.819 -0.0706  0.3869  0.1413
 1991TIP3    H127464   1.010   6.084  12.786 -1.7701  0.1024  1.5648
 1991TIP3    H227465   1.060   6.221  12.744  2.6622 -1.8648 -0.2631
 1992TIP3   OH227466   1.578   0.544   2.901  0.3612  0.4479 -0.8553
 1992TIP3    H127467   1.647   0.481   2.923  1.9205  1.7021 -1.9199
 1992TIP3    H227468   1.527   0.552   2.981  1.0183 -1.0462 -0.2446
 1993TIP3   OH227469   3.566   2.175   1.912  0.1204 -0.3343 -0.0717
 1993TIP3    H127470   3.614   2.258   1.913  0.7927 -0.4741 -3.8849
 1993TIP3    H227471   3.505   2.184   1.838 -0.5316 -2.8364  0.0780
 1994TIP3   OH227472   2.818   0.627  11.008  0.4853 -0.5879  0.1174
 1994TIP3    H127473   2.826   0.714  11.048  1.5399 -0.3434 -0.5996
 1994TIP3    H227474   2.778   0.574  11.077  1.4826  0.0243  1.2219
 1995TIP3   OH227475   3.917   3.806   0.360 -1.0661 -0.4728  0.3138
 1995TIP3    H127476   3.923   3.863   0.283  0.2299  0.8848  1.3705
 1995TIP3    H227477   3.870   3.858   0.425 -3.5660 -2.1829  0.0233
 1996TIP3   OH227478   6.451   1.727   6.501 -0.1635 -0.5227 -0.0412
 1996TIP3    H127479   6.383   1.791   6.481  1.2352  0.4321 -2.1068
 1996TIP3    H227480   6.403   1.651   6.533 -2.0816  0.5795 -0.1143
 1997TIP3   OH227481   4.189   3.259  14.362  0.0260  0.5094 -0.4095
 1997TIP3    H127482   4.191   3.193  14.294 -1.3059 -0.8499  0.7863
 1997TIP3    H227483   4.191   3.343  14.315  0.5704 -0.3716 -2.0149
 1998TIP3   OH227484   1.990   0.098   0.156 -0.3552 -0.0760  0.0529
 1998TIP3    H127485   1.978   0.191   0.139 -1.7951  0.0174  1.4105
 1998TIP3    H227486   2.069   0.093   0.210 -0.5286  0.4072  0.3544
 1999TIP3   OH227487   0.209   6.356  10.774 -0.2117 -0.0283 -0.1875
 1999TIP3    H127488   0.215   6.442  10.815  1.3717 -0.5782  0.8386
 1999TIP3    H227489   0.242   6.369  10.685 -1.2629  0.6547 -0.5087
 2000TIP3   OH227490   2.199   6.093   0.103 -0.0261  0.3403 -0.0674
 2000TIP3    H127491   2.189   6.107   0.197 -0.1880  0.5932 -0.1200
 2000TIP3    H227492   2.213   5.999   0.094 -3.0750 -0.2464 -0.0083
 2001TIP3   OH227493   0.565   5.681  12.800 -0.3181  0.2740  0.7982
 2001TIP3    H127494   0.652   5.643  12.788 -0.2927  0.4249  0.5080
 2001TIP3    H227495   0.548   5.672  12.894 -1.0271 -2.0456  0.5204
 2002TIP3   OH227496   4.843   6.002   4.846  0.0281 -0.3635  0.0900
 2002TIP3    H127497   4.894   5.921   4.842  0.0003 -0.3886  0.2222
 2002TIP3    H227498   4.829   6.017   4.939 -2.6781 -1.9506  0.0704
 2003TIP3   OH227499   3.860   6.422  14.692 -0.2225  0.7707  0.4174
 2003TIP3    H127500   3.929   6.420  14.626 -1.6197  0.0015 -1.0542
 2003TIP3    H227501   3.789   6.471  14.651  0.0003  3.1191  2.5539
 2004TIP3   OH227502   2.233   0.220  16.481  0.3197 -0.2618  0.1829
 2004TIP3    H127503   2.254   0.135  16.441  0.1486 -0.7328  1.0818
 2004TIP3    H227504   2.311   0.273  16.466 -0.1111 -0.0626 -1.7010
 2005TIP3   OH227505   1.240   2.772  11.563  0.1689 -0.0742  0.4792
 2005TIP3    H127506   1.213   2.686  11.532 -0.5162  0.2599  0.1374
 2005TIP3    H227507   1.187   2.787  11.641  0.8272 -0.2768  0.9738
 2006TIP3   OH227508   4.186   4.045   3.204 -0.2640  0.1034  0.0776
 2006TIP3    H127509   4.213   4.028   3.295  0.3060  0.5189 -0.0085
 2006TIP3    H227510   4.134   4.126   3.209 -0.0991  0.2129  0.0089
 2007TIP3   OH227511   3.415   2.261   0.754  0.0690 -0.3595 -0.2164
 2007TIP3    H127512   3.404   2.212   0.672 -1.1135 -0.4038 -0.0506
 2007TIP3    H227513   3.344   2.229   0.810  0.9829 -0.4850  0.9145
 2008TIP3   OH227514   6.314   5.867   1.411  0.5183  0.4793  0.0832
 2008TIP3    H127515   6.360   5.946   1.381 -0.4118  1.2134  0.5198
 2008TIP3    H227516   6.354   5.847   1.496  1.7153 -0.3645 -0.6531
 2009TIP3   OH227517   2.289   5.732  16.420 -0.5341 -0.1400  0.4466
 2009TIP3    H127518   2.329   5.662  16.473  0.6156 -1.1107 -1.5985
 2009TIP3    H227519   2.197   5.707  16.413 -0.5382 -0.4147  1.2915
 2010TIP3   OH227520   4.848   2.067  14.593 -0.1374 -0.9472 -0.1413
 2010TIP3    H127521   4.881   2.064  14.683  0.1910 -0.1075 -0.2227
 2010TIP3    H227522   4.794   2.146  14.591  0.5249 -0.5037 -0.8983
 2011TIP3   OH227523   1.045   6.175  16.552 -0.0565  0.1650  0.4471
 2011TIP3    H127524   1.027   6.091  16.595  1.2913 -0.7589 -0.6803
 2011TIP3    H227525   1.119   6.212  16.599  0.5174 -0.1741 -0.1676
 2012TIP3   OH227526   0.056   1.928   4.904 -0.3514 -0.4607  0.2598
 2012TIP3    H127527   0.059   1.839   4.868  0.4348 -0.4700  0.3364
 2012TIP3    H227528   0.108   1.923   4.985 -0.7807 -0.0667  0.5633
 2013TIP3   OH227529   1.514   2.126  14.425  0.1132  0.8232 -0.4680
 2013TIP3    H127530   1.564   2.071  14.365 -1.7896 -0.8329 -0.6578
 2013TIP3    H227531   1.440   2.157  14.372 -0.0944  1.6521  0.2838
 2014TIP3   OH227532   2.810   2.559   6.323 -0.2438  0.1023 -0.3596
 2014TIP3    H127533   2.753   2.483   6.312  0.5298 -0.3600 -1.4640
 2014TIP3    H227534   2.896   2.521   6.340 -0.2056  0.7822  1.0869
 2015TIP3   OH227535   2.650   1.638  11.326 -0.2513  0.6998  0.2117
 2015TIP3    H127536   2.579   1.619  11.386  0.7218 -0.2821  1.1051
 2015TIP3    H227537   2.729   1.635  11.380  0.6273  0.1274 -1.0386
 2016TIP3   OH227538   4.504   4.347  16.850  0.2747 -0.2016 -0.0597
 2016TIP3    H127539   4.416   4.357  16.812  0.8036  0.6093 -1.1275
 2016TIP3    H227540   4.498   4.267  16.902 -2.0928  1.6621  2.8456
 2017TIP3   OH227541   3.315   0.891  13.983 -0.1203  0.3754 -0.2745
 2017TIP3    H127542   3.363   0.962  14.025 -0.3774  0.0763  0.5440
 2017TIP3    H227543   3.381   0.825  13.963 -0.1934 -0.0693  0.9197
 2018TIP3   OH227544   2.191   0.750   0.349  0.0840 -0.0043  0.6628
 2018TIP3    H127545   2.126   0.819   0.363 -1.2005 -0.4558 -2.2478
 2018TIP3    H227546   2.161   0.705   0.270  2.1004 -2.4894  1.1848
 2019TIP3   OH227547   1.449   2.038  12.553  0.1892  0.3931  0.4047
 2019TIP3    H127548   1.446   1.977  12.478 -0.2741 -0.5611  1.1751
 2019TIP3    H227549   1.504   2.110  12.523  1.2042 -0.6583 -0.3662
 2020TIP3   OH227550   1.365   4.891   3.467  0.4054  0.0315 -0.0837
 2020TIP3    H127551   1.383   4.877   3.560  0.2225 -1.2191 -0.2196
 2020TIP3    H227552   1.447   4.926   3.432  1.1308 -1.3263  0.1894
 2021TIP3   OH227553   4.776   0.376  11.145 -0.1902 -0.6548  0.2257
 2021TIP3    H127554   4.830   0.403  11.071 -0.4321  3.3792  1.3123
 2021TIP3    H227555   4.839   0.344  11.210  0.5913  0.5980  0.1254
 2022TIP3   OH227556   3.751   6.588  13.557  0.0310  0.6088 -0.1725
 2022TIP3    H127557   3.712   6.532  13.491 -0.7997  0.1321  0.6957
 2022TIP3    H227558   3.810   6.531  13.606 -0.2730  0.6538  0.2553
 2023TIP3   OH227559   1.924   3.721   3.302 -0.4668 -0.0070 -0.3905
 2023TIP3    H127560   2.001   3.720   3.245 -0.3568  0.4934 -0.2624
 2023TIP3    H227561   1.941   3.793   3.362 -1.6782  1.0399 -1.2493
 2024TIP3   OH227562   6.254   5.951   0.662  0.1221  0.2939  0.0913
 2024TIP3    H127563   6.197   6.028   0.655 -0.8783 -0.2195  1.8901
 2024TIP3    H227564   6.209   5.884   0.611 -0.1219  0.3174  0.2709
 2025TIP3   OH227565   5.541   1.415   3.186 -0.7749 -0.2807  0.0073
 2025TIP3    H127566   5.509   1.375   3.105  0.0338 -0.2487 -0.3361
 2025TIP3    H227567   5.634   1.428   3.171 -0.7452  0.3475  0.6952
 2026TIP3   OH227568   2.021   4.061  13.645  0.1796  0.3637 -0.5197
 2026TIP3    H127569   2.044   4.128  13.580  0.2561  1.0876  0.2328
 2026TIP3    H227570   2.086   3.993  13.634 -0.0876  0.2569 -1.5172
 2027TIP3   OH227571   3.495   4.108   2.900 -0.0740 -0.0283 -0.6584
 2027TIP3    H127572   3.440   4.040   2.860  0.0564 -0.3453 -0.3113
 2027TIP3    H227573   3.457   4.120   2.987 -0.3891  0.6935 -0.8912
 2028TIP3   OH227574   6.017   5.781  16.472  0.3704  0.8048 -0.3351
 2028TIP3    H127575   6.069   5.789  16.392 -0.5185 -1.0593 -1.1451
 2028TIP3    H227576   5.927   5.801  16.445 -0.0780 -0.6975 -0.0260
 2029TIP3   OH227577   2.361   3.156  15.821 -0.3626 -0.0557 -0.8107
 2029TIP3    H127578   2.401   3.130  15.904 -1.5778 -1.0837 -0.4953
 2029TIP3    H227579   2.434   3.182  15.765  0.4342  1.2481  0.7679
 2030TIP3   OH227580   5.240   4.062  14.092 -0.3260  0.0163  0.4601
 2030TIP3    H127581   5.313   4.123  14.086 -0.8759  0.5562 -2.5152
 2030TIP3    H227582   5.177   4.105  14.150  0.9537  0.3167  1.6885
 2031TIP3   OH227583   5.235   0.110  11.528  0.0554 -0.2352 -0.3243
 2031TIP3    H127584   5.206   0.055  11.456 -2.5711  1.4038 -0.6406
 2031TIP3    H227585   5.161   0.112  11.588  0.5555  1.8712  0.3008
 2032TIP3   OH227586   0.341   5.071  15.552 -0.2375 -0.0542  0.2725
 2032TIP3    H127587   0.354   5.014  15.628  0.6468  1.6978  1.5074
 2032TIP3    H227588   0.415   5.053  15.495  0.1265 -0.0250  0.7318
 2033TIP3   OH227589   5.415   2.650  11.383  0.2333  0.1180  0.1811
 2033TIP3    H127590   5.436   2.624  11.293 -0.6389 -2.1789  0.5703
 2033TIP3    H227591   5.324   2.677  11.380 -0.1302 -1.0376  0.5613
 2034TIP3   OH227592   1.754   5.097   4.421  0.4129  0.3905 -0.1085
 2034TIP3    H127593   1.775   5.187   4.446 -1.2745  0.7721  0.0289
 2034TIP3    H227594   1.674   5.104   4.369  0.0817 -1.0709  0.1573
 2035TIP3   OH227595   3.739   5.494   0.039 -0.1876 -0.1226 -0.1039
 2035TIP3    H127596   3.826   5.456   0.052  0.4587  0.9259 -1.1494
 2035TIP3    H227597   3.750   5.553  -0.036 -2.0846 -0.8760 -1.0377
 2036TIP3   OH227598   0.197   4.543  16.074 -0.3997 -0.4310 -0.2165
 2036TIP3    H127599   0.275   4.503  16.036 -0.8174 -1.0634 -0.4344
 2036TIP3    H227600   0.163   4.601  16.006 -0.7032 -0.9608 -0.5252
 2037TIP3   OH227601   2.072   3.045   5.772 -0.8088  0.4232 -0.1227
 2037TIP3    H127602   1.986   3.051   5.814  0.4453  0.9531  2.5794
 2037TIP3    H227603   2.124   2.991   5.832  0.9105  0.5800 -1.3940
 2038TIP3   OH227604   2.118   2.619   5.456  0.1227  0.1713 -0.2293
 2038TIP3    H127605   2.160   2.703   5.442 -1.1524  0.9483  0.3917
 2038TIP3    H227606   2.058   2.609   5.382  0.3446 -0.2588 -0.3592
 2039TIP3   OH227607   4.685   6.205   2.685  0.8650  0.7498  0.3338
 2039TIP3    H127608   4.628   6.238   2.615 -0.1141 -0.7277  0.3781
 2039TIP3    H227609   4.624   6.176   2.753  1.7239  0.2476  0.9037
 2040TIP3   OH227610   2.189   2.606  15.518 -0.1714 -0.0753  0.4106
 2040TIP3    H127611   2.180   2.535  15.454 -1.1688  0.5226 -0.1413
 2040TIP3    H227612   2.251   2.573  15.583  0.7348 -0.7576 -0.7815
 2041TIP3   OH227613   0.553   6.259   0.764 -0.1317 -0.3091 -0.0039
 2041TIP3    H127614   0.573   6.279   0.673  0.8035  0.7161  0.4003
 2041TIP3    H227615   0.528   6.167   0.764  1.1904 -0.7028 -1.0971
 2042TIP3   OH227616   0.374   5.397  14.837  0.2210  0.2957 -0.4850
 2042TIP3    H127617   0.298   5.451  14.816 -2.1908 -1.8909  1.8308
 2042TIP3    H227618   0.339   5.326  14.890  3.9359 -0.8007  0.8396
 2043TIP3   OH227619   3.320   2.279   2.673  0.2955  0.0704  0.4829
 2043TIP3    H127620   3.313   2.186   2.695 -0.1070  0.4155  1.8852
 2043TIP3    H227621   3.277   2.286   2.588  3.1831 -1.5646 -1.3279
 2044TIP3   OH227622   5.923   6.054  12.219  0.0987  0.2182  0.2240
 2044TIP3    H127623   5.962   6.069  12.133  0.2348 -1.3727 -0.0254
 2044TIP3    H227624   5.837   6.095  12.214  1.1404  2.5256  0.2908
 2045TIP3   OH227625   1.038   4.596  11.689  0.5751  0.1800 -0.1287
 2045TIP3    H127626   1.111   4.592  11.750  1.2762  0.8723 -0.8984
 2045TIP3    H227627   1.026   4.506  11.659 -0.4421 -0.3704  1.7462
 2046TIP3   OH227628   4.670   3.277   2.700  0.2766  0.4280 -0.2707
 2046TIP3    H127629   4.691   3.316   2.785  0.7676  0.1742 -0.2718
 2046TIP3    H227630   4.750   3.230   2.675 -0.1719 -0.2366 -0.4579
 2047TIP3   OH227631   4.507   5.242  16.198 -0.6002 -0.5134 -0.3775
 2047TIP3    H127632   4.489   5.333  16.174 -2.5603 -0.7999 -0.1567
 2047TIP3    H227633   4.600   5.241  16.220 -0.6590  1.5699  0.2000
 2048TIP3   OH227634   4.407   1.313   5.915  0.0277  0.6009  0.5163
 2048TIP3    H127635   4.459   1.284   5.990 -0.8048 -0.3087  0.7584
 2048TIP3    H227636   4.319   1.328   5.951 -0.8539 -1.5470 -0.5688
 2049TIP3   OH227637   6.057   2.131   1.511 -0.3065  0.4842 -0.2771
 2049TIP3    H127638   6.130   2.102   1.566 -0.5196 -0.8337 -0.6428
 2049TIP3    H227639   6.003   2.053   1.500  1.0284 -0.1492 -4.3881
 2050TIP3   OH227640   0.613   4.271  15.592 -0.5521  0.1351  0.1976
 2050TIP3    H127641   0.596   4.305  15.504 -0.6265 -0.4268 -0.0074
 2050TIP3    H227642   0.700   4.305  15.614 -0.6943  0.5949  0.0668
 2051TIP3   OH227643   4.328   3.071   2.272 -0.3344  0.0006  0.0707
 2051TIP3    H127644   4.263   3.136   2.245 -1.5896 -0.7250  1.2385
 2051TIP3    H227645   4.397   3.122   2.315 -0.8984  0.6473  0.2277
 2052TIP3   OH227646   0.803   5.057  17.003 -0.4937  0.0133  0.3794
 2052TIP3    H127647   0.745   5.106  16.945 -0.8821 -0.2750  0.5190
 2052TIP3    H227648   0.838   5.123  17.064  0.8101  0.5312 -0.8689
 2053TIP3   OH227649   6.237   5.948  11.806  0.0549 -0.3146  0.8271
 2053TIP3    H127650   6.294   5.875  11.784 -1.0827 -0.9803  0.0154
 2053TIP3    H227651   6.279   6.024  11.765  0.5768 -0.7154  0.6038
 2054TIP3   OH227652   4.900   3.926  16.868  0.2880  0.3719 -0.3252
 2054TIP3    H127653   4.960   3.890  16.933  0.0800  0.5627 -0.0251
 2054TIP3    H227654   4.840   3.982  16.918 -2.4958 -2.5868 -0.0316
 2055TIP3   OH227655   5.852   5.260  16.086 -0.1797  0.2649 -0.0724
 2055TIP3    H127656   5.921   5.296  16.030 -0.9326  0.4632 -0.8992
 2055TIP3    H227657   5.831   5.331  16.147 -1.7963  1.4093 -1.8226
 2056TIP3   OH227658   4.444   4.372   4.559 -0.6780  0.2084  0.3027
 2056TIP3    H127659   4.422   4.428   4.633 -2.4222 -0.8209  0.6341
 2056TIP3    H227660   4.415   4.422   4.482  1.1345  1.2772  0.2661
 2057TIP3   OH227661   2.146   0.953  14.709  0.0723 -0.7338 -0.0621
 2057TIP3    H127662   2.183   0.967  14.622 -0.8097 -1.5033 -0.5755
 2057TIP3    H227663   2.123   0.860  14.711  2.0652 -1.2493  1.7953
 2058TIP3   OH227664   6.285   4.960   1.375 -0.0830  0.8006 -0.1803
 2058TIP3    H127665   6.271   4.917   1.291  1.5704 -0.5313  0.1654
 2058TIP3    H227666   6.272   5.053   1.357 -0.1158  0.5026 -1.8195
 2059TIP3   OH227667   4.485   2.511   0.820 -0.1142  0.0068 -0.8383
 2059TIP3    H127668   4.550   2.463   0.770 -0.2825 -1.4016  0.2313
 2059TIP3    H227669   4.521   2.599   0.830  1.3261 -0.5670 -0.8182
 2060TIP3   OH227670   6.611   1.511  14.742  0.2838 -0.0284 -0.3956
 2060TIP3    H127671   6.536   1.469  14.784  1.1879 -0.7372  0.5431
 2060TIP3    H227672   6.674   1.523  14.812  1.4629 -0.3685 -1.3695
 2061TIP3   OH227673   0.144   2.045  13.759  0.2048  0.4935  0.0393
 2061TIP3    H127674   0.170   2.029  13.668 -1.0829  2.1316 -0.6700
 2061TIP3    H227675   0.198   2.119  13.786  2.1598 -1.2941  1.4256
 2062TIP3   OH227676   2.376   2.501  16.526  0.0300 -0.4834 -0.1182
 2062TIP3    H127677   2.420   2.579  16.493  0.7842 -1.0540 -0.5147
 2062TIP3    H227678   2.428   2.474  16.602 -0.1819 -0.6358 -0.0277
 2063TIP3   OH227679   0.578   2.875   2.537  0.3874  0.0416  0.7144
 2063TIP3    H127680   0.577   2.967   2.509  0.6020  0.6285  2.4993
 2063TIP3    H227681   0.589   2.879   2.632 -1.5683 -1.7899  1.0895
 2064TIP3   OH227682   0.706   6.512   6.035  0.4188 -0.5855 -0.6532
 2064TIP3    H127683   0.798   6.523   6.056  0.2869 -1.3066  0.4099
 2064TIP3    H227684   0.679   6.436   6.087 -1.8401  2.1315  2.6319
 2065TIP3   OH227685   5.006   2.564  14.371 -0.3359 -0.4905 -0.0191
 2065TIP3    H127686   5.015   2.540  14.463 -0.0125 -1.4641 -0.2877
 2065TIP3    H227687   5.057   2.644  14.361 -1.4544  0.3742  0.9151
 2066TIP3   OH227688   5.735   1.617   2.773 -0.2194 -0.2136  0.4124
 2066TIP3    H127689   5.672   1.643   2.841 -0.3641 -2.2966  1.1426
 2066TIP3    H227690   5.681   1.587   2.700 -0.0610  0.4366  0.0239
 2067TIP3   OH227691   0.901   1.809  13.912  0.0595  0.1713  0.2413
 2067TIP3    H127692   0.813   1.804  13.875 -0.1475  0.6758  0.6496
 2067TIP3    H227693   0.905   1.895  13.954  1.0669  0.5454 -0.5656
 2068TIP3   OH227694   5.607   1.345  15.605  0.8272  0.3858 -0.0123
 2068TIP3    H127695   5.588   1.409  15.673  1.0346  0.4048  0.0278
 2068TIP3    H227696   5.625   1.396  15.526 -0.7201  0.3370 -0.4294
 2069TIP3   OH227697   5.920   1.763  11.438  0.4113  0.5436 -0.2178
 2069TIP3    H127698   5.912   1.798  11.527  0.3609 -3.1908  1.4333
 2069TIP3    H227699   5.832   1.729  11.419  1.2859 -1.9465 -0.0891
 2070TIP3   OH227700   1.620   1.138   1.209  0.0592  0.0974 -0.2858
 2070TIP3    H127701   1.582   1.064   1.161 -0.2293  0.3076 -0.3857
 2070TIP3    H227702   1.579   1.134   1.296 -1.1029  1.0160 -0.7630
 2071TIP3   OH227703   3.126   3.479   0.804 -0.5484 -0.3772 -0.1150
 2071TIP3    H127704   3.147   3.482   0.898 -1.3904  0.5561  0.0542
 2071TIP3    H227705   3.192   3.536   0.764 -0.3706 -0.5428 -0.0638
 2072TIP3   OH227706   3.998   2.941  12.695 -0.2298  0.1091 -0.0153
 2072TIP3    H127707   3.949   2.903  12.622 -1.4919 -0.2962  1.0115
 2072TIP3    H227708   4.050   2.869  12.729 -0.7443 -0.0833  0.3795
 2073TIP3   OH227709   3.441   4.717   3.848  0.5031 -0.6339 -0.1476
 2073TIP3    H127710   3.453   4.642   3.790 -1.2497  1.1791 -3.0939
 2073TIP3    H227711   3.496   4.786   3.811  0.9087  0.0511  1.6094
 2074TIP3   OH227712   3.200   5.960   1.521  0.0216  0.1514 -0.5894
 2074TIP3    H127713   3.146   6.039   1.512  0.1551  0.2654 -0.3700
 2074TIP3    H227714   3.193   5.917   1.435 -0.9884 -0.1977 -0.3472
 2075TIP3   OH227715   2.460   1.786   0.286  0.2360 -0.4374  0.5032
 2075TIP3    H127716   2.379   1.735   0.274 -0.2777  0.4605  0.0565
 2075TIP3    H227717   2.437   1.850   0.353  1.1798 -1.3804  1.7844
 2076TIP3   OH227718   0.722   3.005  15.804 -0.2963  0.1676  0.1726
 2076TIP3    H127719   0.706   3.033  15.713  1.5854  0.1491 -0.1995
 2076TIP3    H227720   0.713   2.910  15.802 -0.5681  0.1943  0.0777
 2077TIP3   OH227721   6.648   3.546   1.318 -0.0368 -0.1653 -0.2833
 2077TIP3    H127722   6.689   3.502   1.393  1.4367 -0.1274 -1.0217
 2077TIP3    H227723   6.690   3.633   1.316 -2.3744  1.0709  0.7158
 2078TIP3   OH227724   5.169   0.425  12.801  0.0480  0.1975  0.0571
 2078TIP3    H127725   5.106   0.455  12.866  0.9644  0.3156  0.9082
 2078TIP3    H227726   5.250   0.470  12.823  0.3164  0.4646 -1.3538
 2079TIP3   OH227727   6.422   2.916   3.446  0.8416  0.3993  0.3231
 2079TIP3    H127728   6.329   2.914   3.422  0.9228 -0.8987  0.0167
 2079TIP3    H227729   6.422   2.907   3.541  0.6606 -2.2809  0.1511
 2080TIP3   OH227730   2.927   3.327   0.067  0.0112  0.1621  0.2779
 2080TIP3    H127731   2.856   3.357   0.010 -0.9588 -0.1260  1.2925
 2080TIP3    H227732   2.940   3.400   0.128  1.4668  0.7215 -0.6587
 2081TIP3   OH227733   3.072   2.901  15.767 -0.8382 -0.6143  0.2656
 2081TIP3    H127734   3.023   2.929  15.690 -0.4312 -1.8415 -0.4797
 2081TIP3    H227735   3.066   2.805  15.766  1.6389 -0.8446  0.0402
 2082TIP3   OH227736   6.417   4.448   4.180  0.5179 -0.2500 -0.2334
 2082TIP3    H127737   6.371   4.526   4.148  0.7716  0.0893  0.2151
 2082TIP3    H227738   6.427   4.393   4.103  0.3739  0.1843 -0.5688
 2083TIP3   OH227739   5.536   0.777  15.113  0.7217  0.7341  0.2721
 2083TIP3    H127740   5.578   0.692  15.127  0.4369  0.5129 -0.1824
 2083TIP3    H227741   5.526   0.783  15.018  0.9508  1.3822  0.2909
 2084TIP3   OH227742   6.504   4.039  16.030 -0.5836 -0.8050 -0.4354
 2084TIP3    H127743   6.548   3.992  16.100  0.0587  1.7319  0.9868
 2084TIP3    H227744   6.411   4.019  16.042 -0.4709 -0.4822  1.1181
 2085TIP3   OH227745   2.603   3.432  14.816 -0.2080 -0.2425 -0.8781
 2085TIP3    H127746   2.523   3.463  14.774  0.3001  0.9098 -1.0374
 2085TIP3    H227747   2.585   3.341  14.839 -2.6917  0.7659  1.8406
 2086TIP3   OH227748   5.082   0.075  15.736 -0.0876  0.4007 -0.3670
 2086TIP3    H127749   5.107   0.166  15.753  2.6069 -0.1380 -1.0375
 2086TIP3    H227750   5.087   0.067  15.640 -1.0759 -0.2766 -0.3719
 2087TIP3   OH227751   2.532   5.699  15.204  0.1663 -0.0545  0.1826
 2087TIP3    H127752   2.588   5.686  15.281 -0.8424 -1.2627  0.7413
 2087TIP3    H227753   2.526   5.613  15.164 -0.1995  0.3461 -0.6402
 2088TIP3   OH227754   1.428   2.672  11.719  0.0053 -0.1919  0.2561
 2088TIP3    H127755   1.383   2.677  11.635 -0.2170  0.4909  0.4074
 2088TIP3    H227756   1.422   2.761  11.755  2.8762  0.3882 -0.4417
 2089TIP3   OH227757   5.849   1.173  13.613  0.2398 -0.2783  0.0301
 2089TIP3    H127758   5.819   1.134  13.695  2.7827 -2.1162  0.2220
 2089TIP3    H227759   5.867   1.099  13.556 -0.4514  0.9282 -1.8390
 2090TIP3   OH227760   3.713   6.443  12.898 -0.2125 -0.0738 -0.4011
 2090TIP3    H127761   3.763   6.361  12.898  0.5318  0.3534 -1.7616
 2090TIP3    H227762   3.651   6.433  12.826 -1.4942 -0.2070  0.6698
 2091TIP3   OH227763   3.429   5.174  12.774  0.1627  0.2541  0.5117
 2091TIP3    H127764   3.434   5.126  12.856  0.2801 -1.1259 -0.2668
 2091TIP3    H227765   3.356   5.134  12.727  0.9668  0.0809 -0.6259
 2092TIP3   OH227766   4.213   2.605   2.640  0.0271  0.4814  0.7739
 2092TIP3    H127767   4.305   2.581   2.644  0.3625  1.3794 -0.6867
 2092TIP3    H227768   4.211   2.697   2.667 -0.3541  0.6265  0.2644
 2093TIP3   OH227769   2.463   4.829   0.004 -0.1090  0.3250  0.2280
 2093TIP3    H127770   2.435   4.824  -0.088  0.3322 -0.5863  0.1286
 2093TIP3    H227771   2.486   4.921   0.017  3.3714 -0.1226 -1.6787
 2094TIP3   OH227772   3.296   1.999  13.445  0.3798 -0.7499  0.2366
 2094TIP3    H127773   3.340   1.949  13.514  2.0665 -1.5693 -1.3555
 2094TIP3    H227774   3.203   1.981  13.458  0.6196 -0.7696  2.3382
 2095TIP3   OH227775   2.713   2.278  16.257  0.1671 -0.0952 -0.0345
 2095TIP3    H127776   2.709   2.200  16.312  2.2998 -0.6862 -0.6477
 2095TIP3    H227777   2.734   2.349  16.318  1.5704 -0.5856  0.0896
 2096TIP3   OH227778   1.191   1.317  15.253 -0.0261  0.2692  0.0082
 2096TIP3    H127779   1.281   1.334  15.226  0.3745  2.1076  2.2123
 2096TIP3    H227780   1.146   1.401  15.242 -0.9453 -0.0974  0.7810
 2097TIP3   OH227781   1.307   3.374   5.553  0.4571  0.4440 -0.9669
 2097TIP3    H127782   1.381   3.421   5.514  0.3329  0.3889 -1.2751
 2097TIP3    H227783   1.282   3.426   5.629 -0.2116  1.3354 -1.7677
 2098TIP3   OH227784   1.753   1.385   4.154 -0.4080 -0.1229  0.1436
 2098TIP3    H127785   1.703   1.426   4.083 -1.5198 -0.4291  0.7146
 2098TIP3    H227786   1.703   1.406   4.233  0.7014  0.0462  0.8196
 2099TIP3   OH227787   2.076   5.194  14.964 -0.2368  0.4317  0.1406
 2099TIP3    H127788   2.103   5.174  15.054 -0.2184 -1.3310 -0.2275
 2099TIP3    H227789   1.987   5.159  14.958 -0.3739  0.8668 -0.4300
 2100TIP3   OH227790   2.348   0.774   4.668 -0.3415 -0.4435 -0.1163
 2100TIP3    H127791   2.403   0.696   4.670 -0.3472 -0.4476 -0.1275
 2100TIP3    H227792   2.259   0.741   4.676 -0.2895 -0.3813  0.8788
 2101TIP3   OH227793   5.165   6.070   2.328  0.2804  0.3037 -0.1377
 2101TIP3    H127794   5.136   6.073   2.237  2.3961  1.3070 -0.8421
 2101TIP3    H227795   5.222   5.993   2.332  2.1032  1.5826 -0.3374
 2102TIP3   OH227796   3.280   5.324   4.295  0.2835 -0.0439 -0.1265
 2102TIP3    H127797   3.235   5.381   4.357 -1.4213 -0.9347 -0.4881
 2102TIP3    H227798   3.370   5.317   4.329  0.0847  1.4987  0.8155
 2103TIP3   OH227799   5.931   0.978   1.273 -0.0872  0.2532 -0.5479
 2103TIP3    H127800   6.026   0.974   1.267  0.1200 -1.3331  2.2179
 2103TIP3    H227801   5.901   0.891   1.249 -0.6177  0.0615  0.7124
 2104TIP3   OH227802   4.914   4.199  16.547 -0.1459  0.0317 -0.2275
 2104TIP3    H127803   4.857   4.209  16.623  0.0939 -1.0049  0.1000
 2104TIP3    H227804   4.856   4.207  16.471 -0.1702  2.5789 -0.0209
 2105TIP3   OH227805   2.060   4.915  15.518 -0.0645  0.4004 -0.7552
 2105TIP3    H127806   2.027   4.829  15.492 -0.1329 -0.5382  2.1280
 2105TIP3    H227807   2.142   4.925  15.470 -0.5203 -0.8448 -1.8415
 2106TIP3   OH227808   6.666   1.915   4.064  0.0015  0.2106 -0.1433
 2106TIP3    H127809   6.608   1.951   3.997  1.7728 -0.5754 -2.2325
 2106TIP3    H227810   6.685   1.988   4.122 -1.6272  0.9133 -0.4387
 2107TIP3   OH227811   4.772   2.114  15.238  0.0234 -0.1695 -0.2741
 2107TIP3    H127812   4.836   2.043  15.244  0.7514  0.6054  3.5367
 2107TIP3    H227813   4.702   2.088  15.298  0.3434  2.2820  1.2900
 2108TIP3   OH227814   5.658   6.623   0.934 -0.2690 -0.5293  0.1267
 2108TIP3    H127815   5.690   6.654   0.849  1.2610  0.8404  1.1299
 2108TIP3    H227816   5.738   6.614   0.987 -1.3633  1.0342  2.1481
 2109TIP3   OH227817   6.113   6.781   3.814 -0.3540 -0.2864  0.2337
 2109TIP3    H127818   6.157   6.699   3.835  1.3398  0.5648  0.1713
 2109TIP3    H227819   6.089   6.818   3.899  0.9527  0.2209  0.4058
 2110TIP3   OH227820   5.293   2.709  17.067 -0.1714  0.4678  0.4120
 2110TIP3    H127821   5.336   2.627  17.087  0.9963  0.7240 -0.9077
 2110TIP3    H227822   5.222   2.686  17.007 -0.0449  0.3876  0.2947
 2111TIP3   OH227823   1.893   2.709   0.082  0.2038  0.0669 -0.4322
 2111TIP3    H127824   1.879   2.787   0.029 -0.1074  0.3971  0.1156
 2111TIP3    H227825   1.832   2.645   0.047 -0.6037  0.5530  0.0485
 2112TIP3   OH227826   5.839   3.203  11.038  0.0485  0.0003 -0.6362
 2112TIP3    H127827   5.759   3.175  11.083  0.7800  0.3883  0.9723
 2112TIP3    H227828   5.817   3.288  11.002 -0.7471 -0.5889 -1.6054
 2113TIP3   OH227829   0.977   3.602  15.057  0.8093  0.5674  0.4216
 2113TIP3    H127830   0.884   3.606  15.082  1.3646  0.9178  2.6271
 2113TIP3    H227831   0.975   3.602  14.962 -1.4858 -0.0951  0.3834
 2114TIP3   OH227832   4.066   1.745  14.484  0.0401  1.2576 -0.0771
 2114TIP3    H127833   4.120   1.756  14.406 -2.3982 -0.9491 -2.2187
 2114TIP3    H227834   4.129   1.722  14.553  1.9454 -0.2992 -2.1964
 2115TIP3   OH227835   5.630   4.237  11.370 -0.4988 -0.0660 -0.1591
 2115TIP3    H127836   5.720   4.251  11.341 -0.9815  0.6137 -1.4406
 2115TIP3    H227837   5.579   4.303  11.322 -1.8626 -1.3716 -0.5884
 2116TIP3   OH227838   0.832   4.504  15.352  0.1950  0.0423 -0.2642
 2116TIP3    H127839   0.868   4.496  15.441 -0.4060  2.2047  0.2334
 2116TIP3    H227840   0.908   4.527  15.298  0.1589  1.2126  0.1631
 2117TIP3   OH227841   1.251   0.777   3.783  0.0292 -0.1510 -0.4429
 2117TIP3    H127842   1.258   0.800   3.875 -1.7457  1.6250 -0.6802
 2117TIP3    H227843   1.157   0.761   3.769  0.4626 -2.0872 -1.5994
 2118TIP3   OH227844   3.985   6.739   6.226  0.7125  0.1316 -0.1905
 2118TIP3    H127845   3.939   6.718   6.307  1.9497 -0.7116  0.3379
 2118TIP3    H227846   4.022   6.826   6.241  0.5774  0.1597 -0.0203
 2119TIP3   OH227847   5.203   6.193   2.033 -0.0215  0.4501 -0.2492
 2119TIP3    H127848   5.126   6.250   2.025 -0.6446 -0.4188 -0.5500
 2119TIP3    H227849   5.265   6.245   2.084 -1.8325  0.1372  2.4965
 2120TIP3   OH227850   0.706   4.189   0.422  0.3322 -0.8196 -0.4837
 2120TIP3    H127851   0.689   4.101   0.389  1.3283 -1.0640 -0.3966
 2120TIP3    H227852   0.785   4.217   0.376  1.0056 -0.6588  0.7060
 2121TIP3   OH227853   2.528   5.180   5.244 -0.2854  0.6235 -0.0653
 2121TIP3    H127854   2.511   5.085   5.241 -0.1228  0.6140 -1.3459
 2121TIP3    H227855   2.488   5.209   5.325 -0.0675 -0.6014  0.5117
 2122TIP3   OH227856   1.749   0.487  11.963 -0.5269 -0.2684  0.1711
 2122TIP3    H127857   1.804   0.413  11.940 -1.1743 -0.5801 -0.4196
 2122TIP3    H227858   1.795   0.563  11.928 -1.2580 -0.6868 -1.8385
 2123TIP3   OH227859   4.769   2.649  17.024 -0.2828 -0.0656  0.2543
 2123TIP3    H127860   4.716   2.723  16.996  1.7527  0.5501 -2.4024
 2123TIP3    H227861   4.765   2.587  16.951  4.0914  0.9160 -1.1191
 2124TIP3   OH227862   6.102   4.373   4.906 -0.0048  0.4851  0.0311
 2124TIP3    H127863   6.170   4.321   4.864 -0.5922 -0.9750  0.8317
 2124TIP3    H227864   6.021   4.349   4.860 -0.6516 -1.1201  1.8909
 2125TIP3   OH227865   3.719   0.689   5.793 -0.0774 -0.3297  0.5882
 2125TIP3    H127866   3.728   0.784   5.796 -0.1270 -0.3217  0.4968
 2125TIP3    H227867   3.797   0.659   5.746 -0.4241 -0.2755 -0.0354
 2126TIP3   OH227868   0.471   1.142   2.109 -0.1886  0.1867 -0.2052
 2126TIP3    H127869   0.563   1.154   2.131 -0.4996 -0.9428  2.0129
 2126TIP3    H227870   0.425   1.208   2.162 -0.7004  0.4770 -0.9860
 2127TIP3   OH227871   2.309   4.555  15.126 -0.1719 -0.6040  0.4158
 2127TIP3    H127872   2.310   4.475  15.178 -2.9080  0.4816  2.4266
 2127TIP3    H227873   2.216   4.578  15.121  0.4784  2.2217 -0.4232
 2128TIP3   OH227874   0.553   6.560   1.545 -0.1381  0.1725  0.0470
 2128TIP3    H127875   0.625   6.588   1.602  0.7492  0.1979 -1.0461
 2128TIP3    H227876   0.478   6.611   1.574  0.6716  1.3109  0.1967
 2129TIP3   OH227877   2.128   1.674  16.414 -0.5412  0.1705 -0.2897
 2129TIP3    H127878   2.194   1.613  16.381 -0.8552 -0.0694 -0.4781
 2129TIP3    H227879   2.062   1.678  16.345  0.6877  2.6899 -1.4321
 2130TIP3   OH227880   1.860   0.341   1.241  0.0690 -0.0156  0.1447
 2130TIP3    H127881   1.789   0.405   1.252  0.8207  0.9941 -0.7167
 2130TIP3    H227882   1.904   0.368   1.160  0.2873 -1.7467 -0.3471
 2131TIP3   OH227883   1.691   3.088  16.822  0.2370  0.1536 -0.3478
 2131TIP3    H127884   1.637   3.134  16.758 -0.0868 -0.1771 -0.3232
 2131TIP3    H227885   1.694   3.146  16.898 -0.5366 -0.0486 -0.1521
 2132TIP3   OH227886   5.292   1.171   3.229  0.5432 -0.5575 -0.2538
 2132TIP3    H127887   5.233   1.179   3.155 -1.4645 -0.5562  1.2598
 2132TIP3    H227888   5.286   1.255   3.274  1.0919 -0.8337  0.3497
 2133TIP3   OH227889   4.148   2.903   1.862  0.2408 -0.1692 -0.3604
 2133TIP3    H127890   4.198   2.983   1.879 -0.9213  0.5189 -0.1083
 2133TIP3    H227891   4.166   2.847   1.938  0.2342  0.2746 -0.0278
 2134TIP3   OH227892   3.828   6.730   1.788 -0.4440  0.0597 -0.4472
 2134TIP3    H127893   3.759   6.705   1.726  0.1382 -0.4302 -0.9182
 2134TIP3    H227894   3.885   6.788   1.738 -0.4957  0.4388 -0.0695
 2135TIP3   OH227895   0.137   1.641  11.754 -0.3621  0.3996 -0.7656
 2135TIP3    H127896   0.129   1.728  11.714 -0.4299  0.4822 -0.5743
 2135TIP3    H227897   0.134   1.581  11.680 -0.5067  0.5507 -0.8856
 2136TIP3   OH227898   4.524   6.120   4.269 -0.3512  0.3391 -0.0114
 2136TIP3    H127899   4.529   6.145   4.177 -1.8731 -0.8860 -0.4765
 2136TIP3    H227900   4.441   6.072   4.276 -0.7306  1.1919  2.1865
 2137TIP3   OH227901   1.540   5.415  15.785  0.5002 -0.4583 -0.5608
 2137TIP3    H127902   1.613   5.469  15.755  0.1559  0.1852 -0.2738
 2137TIP3    H227903   1.573   5.326  15.784  1.1351 -0.2201 -0.8931
 2138TIP3   OH227904   2.240   4.091  14.427 -0.1456  0.3091  0.6915
 2138TIP3    H127905   2.291   4.137  14.360  0.2417 -0.1423  0.6744
 2138TIP3    H227906   2.152   4.087  14.390 -0.0377  0.4613  0.4078
 2139TIP3   OH227907   4.259   6.607  14.734  0.4041  0.6901  0.2499
 2139TIP3    H127908   4.197   6.587  14.805 -0.8092  0.1413 -0.9135
 2139TIP3    H227909   4.210   6.589  14.654  1.7419  1.2869 -0.7451
 2140TIP3   OH227910   0.251   2.083   5.322 -0.5319 -0.5792  0.3133
 2140TIP3    H127911   0.199   2.062   5.400 -1.7613 -0.8409 -0.5516
 2140TIP3    H227912   0.341   2.087   5.354 -1.2374  2.5757  2.4591
 2141TIP3   OH227913   6.408   0.934  14.399  0.6381  0.0571  0.1149
 2141TIP3    H127914   6.353   1.013  14.405  2.0325  1.0376  0.5246
 2141TIP3    H227915   6.478   0.958  14.338  0.1672 -1.4714 -1.0814
 2142TIP3   OH227916   2.537   2.335   4.398  0.2790  0.1077 -0.1807
 2142TIP3    H127917   2.565   2.320   4.308  1.3315 -2.1606  0.4511
 2142TIP3    H227918   2.617   2.322   4.450 -0.0452  2.4319  1.0534
 2143TIP3   OH227919   1.129   4.629   0.579 -0.2343 -0.3705  0.0008
 2143TIP3    H127920   1.175   4.585   0.651 -0.3793 -1.5821 -0.6176
 2143TIP3    H227921   1.196   4.647   0.514 -0.0588  0.9486  0.5078
 2144TIP3   OH227922   2.855   1.760   3.527 -0.2364 -0.0844  0.1636
 2144TIP3    H127923   2.827   1.675   3.562  0.1621 -0.9620 -1.5300
 2144TIP3    H227924   2.773   1.807   3.509 -0.6191 -1.3398 -1.6824
 2145TIP3   OH227925   6.160   1.662   2.116  0.2943 -0.0490  0.0464
 2145TIP3    H127926   6.187   1.745   2.075 -2.1766  1.0595  0.4692
 2145TIP3    H227927   6.119   1.613   2.045  1.7189 -0.9651 -0.1936
 2146TIP3   OH227928   0.868   2.839  14.021  0.4113  0.0423 -0.1801
 2146TIP3    H127929   0.791   2.863  14.072  0.0540 -0.5456 -0.4314
 2146TIP3    H227930   0.939   2.891  14.058 -0.3783  1.6876 -0.8892
 2147TIP3   OH227931   6.764   3.989  13.058 -0.5950 -0.0280 -0.1807
 2147TIP3    H127932   6.693   3.941  13.013 -0.4980  0.0171 -0.3847
 2147TIP3    H227933   6.727   4.076  13.074 -0.5216  0.0578 -0.4610
 2148TIP3   OH227934   2.882   4.742  16.363 -0.1021  0.0893  0.0223
 2148TIP3    H127935   2.804   4.797  16.359  0.0139  0.1720 -1.3158
 2148TIP3    H227936   2.858   4.662  16.316 -0.1239 -0.8636  1.5733
 2149TIP3   OH227937   2.199   6.147   4.000 -0.2751 -0.3027  0.3995
 2149TIP3    H127938   2.104   6.145   3.988 -0.0335  0.5240 -2.4583
 2149TIP3    H227939   2.226   6.056   3.985 -0.5978 -0.6145  1.5753
 2150TIP3   OH227940   3.353   1.598  15.329  0.0122 -0.2002 -0.1865
 2150TIP3    H127941   3.277   1.638  15.372 -1.9213 -0.3883 -3.1228
 2150TIP3    H227942   3.336   1.504  15.333 -1.1896 -0.1826 -2.7435
 2151TIP3   OH227943   4.832   3.397   3.912 -0.0186  0.1580  0.4654
 2151TIP3    H127944   4.853   3.491   3.912 -0.6639  0.3120 -0.1964
 2151TIP3    H227945   4.753   3.390   3.857 -0.0993 -0.7447  0.6820
 2152TIP3   OH227946   3.680   6.739  14.437  0.1767  0.3152 -0.2360
 2152TIP3    H127947   3.614   6.742  14.368  1.3304 -0.8810 -1.4674
 2152TIP3    H227948   3.748   6.801  14.408  0.9736 -0.6730 -0.5403
 2153TIP3   OH227949   2.980   2.753   1.376 -0.2912 -0.4338  0.0875
 2153TIP3    H127950   3.016   2.669   1.403 -1.9877 -1.7805 -1.5154
 2153TIP3    H227951   2.981   2.806   1.455 -0.0270 -2.2848  1.3964
 2154TIP3   OH227952   5.362   2.614   0.751 -0.2721 -0.4806  0.1989
 2154TIP3    H127953   5.425   2.682   0.774  0.2814 -0.8324 -0.2613
 2154TIP3    H227954   5.325   2.643   0.667 -0.3828 -0.5134  0.2358
 2155TIP3   OH227955   1.714   2.187   0.847 -0.5230 -0.0090 -0.2242
 2155TIP3    H127956   1.674   2.258   0.795  0.3029  0.0099 -0.8451
 2155TIP3    H227957   1.711   2.220   0.937 -0.2617  0.7752 -0.4875
 2156TIP3   OH227958   5.683   5.507   5.798 -0.0984 -0.4311  0.4262
 2156TIP3    H127959   5.716   5.418   5.793  1.0167 -0.0889  1.1835
 2156TIP3    H227960   5.660   5.519   5.891  1.0610  0.4852  0.6152
 2157TIP3   OH227961   6.431   2.734   4.708 -0.0928 -0.0308 -0.4710
 2157TIP3    H127962   6.362   2.693   4.760  2.6111 -1.1807  2.5203
 2157TIP3    H227963   6.476   2.662   4.665  1.2972  0.2739  0.3929
 2158TIP3   OH227964   4.323   5.514  12.980 -0.1013 -0.0615  0.1926
 2158TIP3    H127965   4.308   5.420  12.969  1.4002 -0.0389 -3.8228
 2158TIP3    H227966   4.245   5.556  12.945 -0.1487  0.1889  0.5883
 2159TIP3   OH227967   2.655   0.363  15.366  0.4456  0.0706  0.3639
 2159TIP3    H127968   2.608   0.436  15.327 -1.2603 -0.2639  1.6477
 2159TIP3    H227969   2.656   0.383  15.460  2.1503 -0.3737  0.4785
 2160TIP3   OH227970   4.073   2.346   1.327  0.0827 -0.2179  0.2126
 2160TIP3    H127971   4.037   2.423   1.283 -0.8533 -0.5455  0.3891
 2160TIP3    H227972   4.144   2.316   1.269  0.2570  0.5952  0.0017
 2161TIP3   OH227973   6.729   5.620   5.873 -0.2359  0.0189 -0.0386
 2161TIP3    H127974   6.706   5.651   5.785 -2.0186 -1.0354 -0.0091
 2161TIP3    H227975   6.651   5.638   5.926 -0.4197 -2.1239  0.5409
 2162TIP3   OH227976   5.967   2.386   4.369  0.0181 -0.0523 -0.0926
 2162TIP3    H127977   5.977   2.383   4.274  1.4538  1.0648 -0.0103
 2162TIP3    H227978   6.021   2.460   4.397  1.5016 -1.7381  1.8340
 2163TIP3   OH227979   4.748   0.621   4.288 -0.5940  0.3501 -0.3623
 2163TIP3    H127980   4.818   0.621   4.353 -1.8560  1.6094  1.0593
 2163TIP3    H227981   4.783   0.569   4.215  1.7140  0.7671  0.3743
 2164TIP3   OH227982   1.918   2.212   4.792 -0.1368 -0.2253  0.1206
 2164TIP3    H127983   1.933   2.294   4.745 -5.6145  0.0213 -1.8770
 2164TIP3    H227984   1.903   2.238   4.883 -0.6514  0.8433 -0.2600
 2165TIP3   OH227985   0.981   0.935  11.624  0.9364 -0.2644  0.2652
 2165TIP3    H127986   0.977   1.025  11.658 -0.7007 -1.1587  2.6928
 2165TIP3    H227987   0.920   0.886  11.678  1.3698 -2.7744 -1.3541
 2166TIP3   OH227988   5.394   3.332   3.934 -0.2163 -0.1313  0.7765
 2166TIP3    H127989   5.299   3.319   3.941 -0.4139  0.2123 -0.8383
 2166TIP3    H227990   5.418   3.291   3.851  1.0657 -0.2691  1.2000
 2167TIP3   OH227991   3.870   4.323   5.266 -0.0685  0.7091  0.5791
 2167TIP3    H127992   3.947   4.343   5.318 -0.4565  1.3108  0.9348
 2167TIP3    H227993   3.844   4.235   5.296  0.9910  0.1085 -0.1987
 2168TIP3   OH227994   3.187   4.382  14.351 -0.3956 -0.3682  0.1976
 2168TIP3    H127995   3.154   4.398  14.439  1.0661  0.1025  0.6842
 2168TIP3    H227996   3.242   4.304  14.359 -2.0615 -1.7288 -0.7968
 2169TIP3   OH227997   1.768   1.640   0.542  0.3555  0.1341 -0.1503
 2169TIP3    H127998   1.714   1.663   0.618  1.9127  1.3631  0.6359
 2169TIP3    H227999   1.785   1.723   0.498 -0.6404 -0.5712 -1.9801
 2170TIP3   OH228000   5.483   3.221  15.959  0.2633  0.9175 -0.1905
 2170TIP3    H128001   5.398   3.223  16.002 -0.6497  2.1482 -1.9350
 2170TIP3    H228002   5.537   3.283  16.008  0.4097 -0.3769  1.3424
 2171TIP3   OH228003   5.867   2.972   2.576  0.1058 -0.3639 -0.2017
 2171TIP3    H128004   5.865   3.053   2.626 -0.2460 -0.6265  0.2277
 2171TIP3    H228005   5.932   2.917   2.621 -0.0304 -0.5080 -0.1774
 2172TIP3   OH228006   6.729   4.401   5.099  0.4671  0.7537  0.1358
 2172TIP3    H128007   6.720   4.374   5.008  0.2588 -0.1776  0.4192
 2172TIP3    H228008   6.822   4.393   5.118  0.2758 -0.8908  0.5300
 2173TIP3   OH228009   5.337   2.106   0.726 -0.3522  0.1830  0.2864
 2173TIP3    H128010   5.367   2.026   0.684 -2.3755 -0.5263  0.0696
 2173TIP3    H228011   5.319   2.166   0.653  2.7339  1.5494  0.4847
 2174TIP3   OH228012   2.008   3.805   5.889  0.2599 -0.2533 -0.3314
 2174TIP3    H128013   1.958   3.747   5.946  1.4830 -0.6888  0.3225
 2174TIP3    H228014   1.951   3.881   5.877  0.7870  0.8770  3.2920
 2175TIP3   OH228015   6.355   2.564  13.741  0.0620  0.0789 -0.1074
 2175TIP3    H128016   6.328   2.598  13.655 -0.4233 -1.3685 -0.5564
 2175TIP3    H228017   6.286   2.502  13.765  1.5505 -1.5743  0.0494
 2176TIP3   OH228018   1.264   0.831   5.293 -0.5187 -0.6243 -0.1490
 2176TIP3    H128019   1.340   0.774   5.305  0.3284  0.0409 -1.9766
 2176TIP3    H228020   1.276   0.900   5.359  2.1938  1.1549 -2.2608
 2177TIP3   OH228021   6.777   5.764  11.959 -0.1453  0.2962  0.6246
 2177TIP3    H128022   6.824   5.746  12.040  0.0903 -2.0097  0.0349
 2177TIP3    H228023   6.705   5.701  11.958  0.8682 -0.9309 -1.7387
 2178TIP3   OH228024   1.007   6.769  15.123  0.3572  0.7372  0.0297
 2178TIP3    H128025   0.968   6.683  15.105  3.1943 -0.6368 -0.0683
 2178TIP3    H228026   1.078   6.777  15.060 -0.1273  3.4239 -0.2563
 2179TIP3   OH228027   5.609   2.937  13.900  0.0821  0.0135  0.2713
 2179TIP3    H128028   5.555   2.998  13.849  1.6103 -0.1351 -1.6318
 2179TIP3    H228029   5.593   2.962  13.991 -0.8314  1.9649 -0.3646
 2180TIP3   OH228030   2.502   0.204  12.493  0.1962 -0.4348  0.1048
 2180TIP3    H128031   2.470   0.124  12.534 -0.3625 -0.0683  0.3952
 2180TIP3    H228032   2.495   0.187  12.399  2.3222 -1.6216  0.0782
 2181TIP3   OH228033   1.038   3.216  14.345 -0.5274 -0.2478 -0.5121
 2181TIP3    H128034   1.022   3.234  14.437 -0.4075 -0.0762 -0.5258
 2181TIP3    H228035   1.109   3.275  14.320 -0.3733 -0.4861 -0.6440
 2182TIP3   OH228036   1.947   0.132   3.985 -0.1897 -0.2503  0.1562
 2182TIP3    H128037   1.934   0.135   3.890 -2.2078 -0.2406  0.3865
 2182TIP3    H228038   1.960   0.039   4.005 -2.1405 -0.5719  0.0946
 2183TIP3   OH228039   0.379   6.145  12.874  0.0996 -0.2624 -0.2263
 2183TIP3    H128040   0.461   6.178  12.912 -0.2423 -1.2592  1.4767
 2183TIP3    H228041   0.388   6.050  12.878 -1.9717 -0.4412  1.9994
 2184TIP3   OH228042   3.819   2.699  15.083  0.2135  0.0251  0.1197
 2184TIP3    H128043   3.736   2.696  15.132  0.9302 -2.2438  1.3311
 2184TIP3    H228044   3.867   2.623  15.114  1.7338 -0.1276 -2.4264
 2185TIP3   OH228045   5.373   0.898  12.189  0.5445  0.7148 -0.0680
 2185TIP3    H128046   5.293   0.934  12.149  0.3494 -0.5546 -0.8916
 2185TIP3    H228047   5.409   0.970  12.241 -2.0902  0.8269  1.8071
 2186TIP3   OH228048   5.911   3.538  14.196 -0.1586  0.0864  0.4440
 2186TIP3    H128049   5.992   3.491  14.174 -1.7940 -2.0675 -1.5509
 2186TIP3    H228050   5.894   3.515  14.287  0.4311 -1.1559  0.2613
 2187TIP3   OH228051   1.490   5.016  12.566 -0.2079  0.3281 -0.1432
 2187TIP3    H128052   1.462   5.061  12.486 -2.0802 -0.0389  0.2592
 2187TIP3    H228053   1.508   5.087  12.628 -0.2419  0.5762 -0.4154
 2188TIP3   OH228054   5.830   0.429   5.991  0.1765  0.6801 -0.2381
 2188TIP3    H128055   5.755   0.476   6.027 -0.9883 -0.9315 -0.4298
 2188TIP3    H228056   5.833   0.347   6.042  1.2866  0.3608 -0.7970
 2189TIP3   OH228057   6.083   2.787  16.541 -0.3247 -0.9635 -0.0771
 2189TIP3    H128058   6.165   2.770  16.588 -0.1554 -0.1005 -0.0288
 2189TIP3    H228059   6.070   2.882  16.551 -1.0369 -1.0064 -0.5577
 2190TIP3   OH228060   6.822   6.227  13.837  0.1544 -0.1191 -0.4398
 2190TIP3    H128061   6.823   6.273  13.753  1.3108  1.1755  0.2353
 2190TIP3    H228062   6.736   6.244  13.874  0.1205  0.4349 -0.7731
 2191TIP3   OH228063   5.072   2.178   3.757  0.4296  0.3263  0.4175
 2191TIP3    H128064   5.114   2.182   3.842  1.0634 -0.3657  0.1441
 2191TIP3    H228065   5.085   2.265   3.720 -0.8800  1.0198  1.4887
 2192TIP3   OH228066   4.934   0.413   5.292  0.2056 -0.0752 -0.1086
 2192TIP3    H128067   4.941   0.435   5.199 -0.2017  0.5928  0.0103
 2192TIP3    H228068   4.925   0.498   5.336 -0.2702 -0.4196  0.4812
 2193TIP3   OH228069   3.003   5.167  12.749 -0.5582 -0.2624  0.0243
 2193TIP3    H128070   3.097   5.162  12.732 -0.0301  0.3787  2.4079
 2193TIP3    H228071   2.989   5.112  12.826 -1.5449  2.0042  1.5984
 2194TIP3   OH228072   6.126   0.886   2.843 -0.1821 -0.0171 -0.0958
 2194TIP3    H128073   6.036   0.871   2.814  0.2284  0.0622 -1.4451
 2194TIP3    H228074   6.138   0.823   2.914 -0.5887 -1.6479 -1.4063
 2195TIP3   OH228075   6.096   3.767   2.670  0.2176 -0.0282  0.1552
 2195TIP3    H128076   6.047   3.773   2.588 -1.5914 -0.7611  1.1510
 2195TIP3    H228077   6.154   3.844   2.668 -0.5698  0.5734 -1.2837
 2196TIP3   OH228078   1.388   2.620  15.065  0.5475  0.0844  0.2288
 2196TIP3    H128079   1.299   2.599  15.094  1.4683 -1.3044  2.2198
 2196TIP3    H228080   1.411   2.700  15.112 -0.1007  1.3335 -1.4254
 2197TIP3   OH228081   4.607   4.277   1.983 -0.2244  0.3778  0.0923
 2197TIP3    H128082   4.654   4.197   2.005  0.2218  0.5566 -0.1819
 2197TIP3    H228083   4.669   4.348   2.003 -0.5968  0.6526  0.2923
 2198TIP3   OH228084   0.678   6.691  13.529  0.3265 -0.5106  0.7109
 2198TIP3    H128085   0.660   6.749  13.454 -1.0867 -0.1362  1.3057
 2198TIP3    H228086   0.767   6.661  13.514 -0.0006 -0.6676 -1.2828
 2199TIP3   OH228087   4.752   2.055  13.078 -0.4053 -0.3723  0.2164
 2199TIP3    H128088   4.788   2.056  13.167 -0.5504 -1.1520  0.2984
 2199TIP3    H228089   4.738   2.147  13.056  0.1011 -0.1509  0.8096
 2200TIP3   OH228090   2.618   5.935   0.587 -0.1072  0.1720 -0.3370
 2200TIP3    H128091   2.639   5.843   0.570 -1.7871 -0.2033 -0.5730
 2200TIP3    H228092   2.548   5.955   0.525 -2.5022  0.4340  2.2513
 2201TIP3   OH228093   5.321   5.381   5.380 -0.0423 -0.2548  0.6774
 2201TIP3    H128094   5.390   5.324   5.413  2.1236  2.5865  1.4411
 2201TIP3    H228095   5.267   5.401   5.456 -1.3072 -1.8454  0.2414
 2202TIP3   OH228096   5.054   4.699   4.847 -0.1535 -0.2389  0.0813
 2202TIP3    H128097   4.996   4.646   4.792 -0.6424 -0.2278  0.5818
 2202TIP3    H228098   5.074   4.643   4.922 -1.4126  0.5991  1.0722
 2203TIP3   OH228099   4.739   0.099  11.408 -0.0180 -0.1484  0.5414
 2203TIP3    H128100   4.683   0.135  11.477 -2.9117 -0.6134 -1.3866
 2203TIP3    H228101   4.715   0.007  11.402 -0.4228  0.0389 -1.5355
 2204TIP3   OH228102   4.468   0.135   1.747  0.2733 -0.3873 -0.3083
 2204TIP3    H128103   4.521   0.095   1.815  0.4332  1.3143  0.6470
 2204TIP3    H228104   4.378   0.131   1.781  0.3574  0.4958  0.0487
 2205TIP3   OH228105   5.137   5.731   1.575  0.5373  0.1302  0.1963
 2205TIP3    H128106   5.205   5.736   1.507 -0.4727  0.2947 -0.8470
 2205TIP3    H228107   5.115   5.638   1.580  0.7742  0.0883  0.4704
 2206TIP3   OH228108   2.726   4.025  17.104  0.5368  0.1504  0.1599
 2206TIP3    H128109   2.637   4.028  17.070  0.2380  0.5637  0.9437
 2206TIP3    H228110   2.716   3.989  17.193  0.7580  2.9490  1.4101
 2207TIP3   OH228111   4.942   0.653  15.159 -0.0941 -0.1129 -0.5943
 2207TIP3    H128112   4.861   0.661  15.109 -1.2975 -1.7871  0.9283
 2207TIP3    H228113   4.951   0.738  15.203 -0.4001  0.4726 -1.6207
 2208TIP3   OH228114   6.553   4.378   5.961  0.1714 -0.5011 -0.1776
 2208TIP3    H128115   6.490   4.443   5.994  0.9428  0.2745 -0.1912
 2208TIP3    H228116   6.628   4.430   5.934  1.2495 -1.5024  0.8289
 2209TIP3   OH228117   5.160   1.656  15.062  0.3047 -0.3033  0.5330
 2209TIP3    H128118   5.200   1.743  15.064  0.1200 -0.1084 -1.4135
 2209TIP3    H228119   5.218   1.601  15.113  2.2846  0.2967 -0.9617
 2210TIP3   OH228120   1.017   0.149  11.265  0.2886  0.2001  0.5748
 2210TIP3    H128121   1.080   0.196  11.319 -1.2705 -0.1515  2.8249
 2210TIP3    H228122   0.933   0.160  11.310 -0.6438 -2.2117 -0.4099
 2211TIP3   OH228123   0.910   1.218   5.244  0.1048  0.2830  0.3990
 2211TIP3    H128124   0.832   1.219   5.300  0.1711 -0.8511  0.5366
 2211TIP3    H228125   0.972   1.164   5.292  0.3812 -0.2033 -0.4892
 2212TIP3   OH228126   5.885   1.207  11.401  0.7962  0.6491 -0.0638
 2212TIP3    H128127   5.796   1.240  11.392  0.2421 -1.1764 -1.7363
 2212TIP3    H228128   5.899   1.152  11.325  2.0689 -2.0405  1.9429
 2213TIP3   OH228129   1.496   3.383   4.108  0.7534  0.0009 -0.1828
 2213TIP3    H128130   1.559   3.455   4.099  0.1391  0.6147  0.3588
 2213TIP3    H228131   1.440   3.410   4.180 -2.2041  1.0578 -2.6723
 2214TIP3   OH228132   1.233   0.387  16.026 -0.1763 -0.1251  0.2516
 2214TIP3    H128133   1.176   0.342  15.963  1.2816  1.1156 -2.0966
 2214TIP3    H228134   1.185   0.382  16.109 -1.7593 -2.6747 -0.6926
 2215TIP3   OH228135   6.210   0.537   1.524 -0.2263  0.7831 -0.1467
 2215TIP3    H128136   6.115   0.531   1.520 -0.2192  0.9283 -0.6181
 2215TIP3    H228137   6.229   0.629   1.505  0.1163  0.2864 -2.5222
 2216TIP3   OH228138   6.757   0.629   5.844 -0.2193  0.3402 -0.4863
 2216TIP3    H128139   6.714   0.657   5.924  0.4377 -1.8309  0.6893
 2216TIP3    H228140   6.689   0.581   5.796 -0.1198  0.0729 -0.3615
 2217TIP3   OH228141   6.381   3.923   0.446  0.3532 -0.2637  0.1744
 2217TIP3    H128142   6.306   3.981   0.459  0.4115 -0.4197  1.3863
 2217TIP3    H228143   6.352   3.839   0.483  1.1791 -0.2732  0.8187
 2218TIP3   OH228144   2.641   2.841   0.261 -0.4681  0.0689  0.7812
 2218TIP3    H128145   2.598   2.870   0.180 -0.7594  1.0267  1.2654
 2218TIP3    H228146   2.619   2.908   0.325 -0.6629 -0.9537  1.8026
 2219TIP3   OH228147   5.137   3.926  13.529 -0.0752 -0.7366  0.6934
 2219TIP3    H128148   5.089   4.007  13.508 -1.6948 -1.0685  2.8141
 2219TIP3    H228149   5.142   3.925  13.624  1.2778 -2.4134  0.6453
 2220TIP3   OH228150   6.191   6.594  16.158  0.0786 -0.0344 -0.2505
 2220TIP3    H128151   6.098   6.576  16.144 -0.4078  0.1447  2.4038
 2220TIP3    H228152   6.198   6.689  16.152 -0.8281  0.4432  3.7727
 2221TIP3   OH228153   0.070   5.371  10.662  0.2135 -0.0072  0.6239
 2221TIP3    H128154  -0.016   5.400  10.692  0.3515 -0.7800  1.8008
 2221TIP3    H228155   0.057   5.279  10.638 -0.5239  1.0750 -4.2050
 2222TIP3   OH228156   6.147   4.404  16.485  0.0739  0.0342 -0.1633
 2222TIP3    H128157   6.203   4.349  16.541 -0.6936 -0.6803 -0.0817
 2222TIP3    H228158   6.207   4.469  16.448  0.3718  1.5390  2.7022
 2223TIP3   OH228159   1.759   3.058   2.581  0.0194  0.1335  0.0896
 2223TIP3    H128160   1.671   3.080   2.551  0.3225 -0.4555 -1.3175
 2223TIP3    H228161   1.763   2.962   2.576 -0.2458 -0.1147  3.0811
 2224TIP3   OH228162   4.867   3.086   3.264 -0.5117 -0.5207  0.1212
 2224TIP3    H128163   4.923   3.008   3.267 -0.7992 -0.7301  0.0838
 2224TIP3    H228164   4.903   3.139   3.193 -0.0289 -0.4024  0.4516
 2225TIP3   OH228165   6.418   3.935   0.900  0.0127 -0.1370 -0.0788
 2225TIP3    H128166   6.437   3.943   0.994 -2.2009  0.2504  0.3971
 2225TIP3    H228167   6.450   4.018   0.863 -0.3143  0.2919  0.5739
 2226TIP3   OH228168   5.616   2.706   4.368  0.0282 -0.0430 -0.3342
 2226TIP3    H128169   5.615   2.725   4.462 -1.4525  1.1090 -0.5381
 2226TIP3    H228170   5.536   2.747   4.335  1.1069  0.6072 -2.2950
 2227TIP3   OH228171   6.514   6.262  15.022 -0.4764 -0.2321  0.4912
 2227TIP3    H128172   6.526   6.318  15.099  1.9404  1.5494 -1.0333
 2227TIP3    H228173   6.494   6.323  14.951  1.8476 -1.2638 -1.1585
 2228TIP3   OH228174   3.880   6.221  14.873  0.2818  0.1080  0.2009
 2228TIP3    H128175   3.818   6.167  14.823  1.0877 -1.6675  1.0227
 2228TIP3    H228176   3.880   6.306  14.828 -0.3708 -0.8439 -1.7093
 2229TIP3   OH228177   0.211   0.439   3.328  0.3459 -0.1357 -0.1073
 2229TIP3    H128178   0.203   0.482   3.413 -2.0982 -0.5486 -0.0592
 2229TIP3    H228179   0.272   0.366   3.343 -0.7283 -0.7430  1.5446
 2230TIP3   OH228180   4.255   4.563  11.138  0.3373 -0.0715 -0.8108
 2230TIP3    H128181   4.294   4.527  11.059  1.9005  1.0328 -0.6029
 2230TIP3    H228182   4.202   4.636  11.107  1.8126  1.0547 -0.8191
 2231TIP3   OH228183   0.071   4.807   5.029  0.4012  0.0377 -1.0454
 2231TIP3    H128184   0.052   4.898   5.007 -1.6956 -0.2677 -0.6808
 2231TIP3    H228185   0.051   4.800   5.122  0.6090 -0.7860 -1.0520
 2232TIP3   OH228186   6.047   1.398  12.677  0.5804 -0.4028  0.1375
 2232TIP3    H128187   6.105   1.353  12.616  1.1339  0.5153 -0.0466
 2232TIP3    H228188   5.962   1.355  12.667  0.4375  0.2498 -1.9172
 2233TIP3   OH228189   1.786   3.200   5.334  0.1835 -0.4367  0.1296
 2233TIP3    H128190   1.759   3.199   5.425 -0.9763  0.4951 -0.1881
 2233TIP3    H228191   1.782   3.292   5.308 -2.9624 -0.9564 -1.8220
 2234TIP3   OH228192   0.890   4.827   5.372  0.2375 -0.0907  0.4177
 2234TIP3    H128193   0.839   4.908   5.374 -0.4469 -0.4703 -0.9461
 2234TIP3    H228194   0.848   4.773   5.306  2.9312 -0.0638 -1.4586
 2235TIP3   OH228195   0.303   4.320  16.546 -0.3988  0.4281 -0.4379
 2235TIP3    H128196   0.275   4.346  16.459 -0.7397  1.1202 -0.1336
 2235TIP3    H228197   0.221   4.312  16.596 -0.1956  0.2430 -0.1294
 2236TIP3   OH228198   3.197   3.034   2.078  0.1013 -0.2814  0.5016
 2236TIP3    H128199   3.124   3.095   2.065 -0.3344 -0.8704  0.1340
 2236TIP3    H228200   3.264   3.086   2.123 -0.2918  0.4456  0.2671
 2237TIP3   OH228201   0.991   2.476   4.997 -0.5152  0.5729  0.4606
 2237TIP3    H128202   0.917   2.439   5.044 -0.3378  1.2258  1.2747
 2237TIP3    H228203   1.012   2.556   5.044  1.4637 -0.1823  0.9903
 2238TIP3   OH228204   1.538   1.349  12.816 -0.3941 -0.2699  0.5475
 2238TIP3    H128205   1.575   1.436  12.831 -1.0269 -0.0526  0.9013
 2238TIP3    H228206   1.575   1.295  12.885  0.6107 -0.4798 -0.1360
 2239TIP3   OH228207   1.269   0.002   1.185 -0.2967  0.2629  0.8928
 2239TIP3    H128208   1.255  -0.093   1.185  0.0244  0.2102  0.2153
 2239TIP3    H228209   1.182   0.038   1.168 -0.2184  0.0482  0.0105
 2240TIP3   OH228210   1.954   1.054  16.709 -0.1886 -0.2630 -0.6477
 2240TIP3    H128211   1.879   1.050  16.769  0.0996 -1.4918 -0.3624
 2240TIP3    H228212   1.943   1.138  16.664 -0.7275  0.4231  0.7034
 2241TIP3   OH228213   0.629   6.199   5.925 -0.0141  0.3321 -0.0678
 2241TIP3    H128214   0.543   6.241   5.920 -0.3917 -0.4579 -0.4008
 2241TIP3    H228215   0.660   6.218   6.014 -1.9666 -2.0883  1.2371
 2242TIP3   OH228216   6.092   0.930   1.931  0.3023  0.4068 -0.1520
 2242TIP3    H128217   6.018   0.989   1.935  0.4130  0.5900 -0.7250
 2242TIP3    H228218   6.098   0.893   2.019 -1.2589 -0.5864 -0.4260
 2243TIP3   OH228219   5.611   0.767  10.919 -0.8871 -0.3114 -0.3659
 2243TIP3    H128220   5.676   0.696  10.922 -1.1770 -0.5679  1.8596
 2243TIP3    H228221   5.656   0.839  10.876  0.5183 -0.8281  0.1770
 2244TIP3   OH228222   6.234   0.455  15.111 -0.5062 -0.5298  0.4732
 2244TIP3    H128223   6.326   0.462  15.138 -0.0652 -2.5024 -0.3543
 2244TIP3    H228224   6.206   0.370  15.145 -1.3921 -0.8732 -1.0590
 2245TIP3   OH228225   5.211   0.220   5.087  0.0218 -0.3490  0.1073
 2245TIP3    H128226   5.125   0.178   5.092  0.3709 -1.1738 -0.5912
 2245TIP3    H228227   5.236   0.212   4.995  1.0919 -0.6385  0.4125
 2246TIP3   OH228228   6.579   2.855  11.670  0.0923 -0.0143 -0.0930
 2246TIP3    H128229   6.585   2.835  11.576  3.0150 -0.9050  0.1782
 2246TIP3    H228230   6.515   2.793  11.703  0.4859 -1.0676 -1.2093
 2247TIP3   OH228231   1.348   3.962   3.015 -0.6224  0.0239 -0.0200
 2247TIP3    H128232   1.336   3.956   2.920  2.2116  1.0609 -0.5527
 2247TIP3    H228233   1.259   3.964   3.050 -1.7751 -1.7096 -2.5221
 2248TIP3   OH228234   1.085   0.074   3.971  0.0685  0.1064  0.1538
 2248TIP3    H128235   1.135   0.145   4.011 -0.4759 -0.1606  1.3186
 2248TIP3    H228236   1.020   0.118   3.917 -1.3385  0.5658  2.1392
 2249TIP3   OH228237   1.515   5.675  13.213 -0.0043 -0.0963  0.2517
 2249TIP3    H128238   1.473   5.720  13.287 -1.4001 -0.8795 -0.0226
 2249TIP3    H228239   1.599   5.719  13.204  0.5597 -0.4687  2.7895
 2250TIP3   OH228240   1.297   3.938  12.990 -0.1549 -0.8711 -0.3339
 2250TIP3    H128241   1.227   3.896  12.940 -1.0940 -0.3838  0.5335
 2250TIP3    H228242   1.259   3.951  13.077 -0.2275  2.4636 -0.7507
 2251TIP3   OH228243   1.152   6.240  15.575 -0.1563  0.1936 -0.0165
 2251TIP3    H128244   1.190   6.283  15.651 -0.0289 -0.7681  0.4871
 2251TIP3    H228245   1.130   6.152  15.607 -0.3699 -0.1232 -1.0141
 2252TIP3   OH228246   1.084   3.841  11.269  0.7020 -0.1551  0.1985
 2252TIP3    H128247   1.122   3.901  11.205 -0.8248  0.2099 -0.3903
 2252TIP3    H228248   1.146   3.767  11.271  0.2153 -0.7910 -2.6684
 2253TIP3   OH228249   1.233   0.486   5.324 -0.3556 -0.5296 -0.3376
 2253TIP3    H128250   1.234   0.569   5.372 -0.0822  0.2981 -1.7377
 2253TIP3    H228251   1.145   0.480   5.287 -0.9793 -1.7704  1.2262
 2254TIP3   OH228252   2.679   6.190   4.703 -0.2504  0.7062  0.5111
 2254TIP3    H128253   2.667   6.233   4.787  1.3245  1.9091  0.1724
 2254TIP3    H228254   2.711   6.259   4.645  1.2004 -0.6300 -0.3794
 2255TIP3   OH228255   5.994   4.464   5.780  0.1058 -0.0928  0.0282
 2255TIP3    H128256   6.019   4.492   5.868  2.4822 -0.2290 -0.5550
 2255TIP3    H228257   6.037   4.379   5.768 -2.4185 -1.4448 -0.3154
 2256TIP3   OH228258   2.659   1.095   5.025 -0.1041  0.2528  0.5879
 2256TIP3    H128259   2.612   1.061   4.950  1.3321  1.1213 -0.7566
 2256TIP3    H228260   2.616   1.054   5.101 -2.0181 -0.1121 -0.6324
 2257TIP3   OH228261   2.392   5.695  11.391  0.0359 -0.8924 -0.2142
 2257TIP3    H128262   2.433   5.609  11.384 -1.9054 -1.9669  0.8361
 2257TIP3    H228263   2.453   5.747  11.443  1.3723 -1.5110 -1.1115
 2258TIP3   OH228264   2.419   0.400   5.792 -0.0941  1.1575  0.3561
 2258TIP3    H128265   2.332   0.419   5.827  0.1328  1.7826  0.5907
 2258TIP3    H228266   2.420   0.441   5.706 -0.1412  0.8669  0.2138
 2259TIP3   OH228267   2.914   4.133  11.237  0.0104 -0.1236 -0.1409
 2259TIP3    H128268   2.959   4.180  11.166 -0.1840 -1.3518 -1.1165
 2259TIP3    H228269   2.978   4.070  11.268 -0.1275 -0.0251  0.3467
 2260TIP3   OH228270   4.875   0.837   4.638 -0.3839  0.2338  0.1489
 2260TIP3    H128271   4.793   0.886   4.649 -1.5539 -1.7197  0.5152
 2260TIP3    H228272   4.936   0.901   4.602 -1.5582  2.2243  1.4808
 2261TIP3   OH228273   5.806   6.251   1.658 -0.6859  0.5329  0.3016
 2261TIP3    H128274   5.724   6.207   1.632 -0.2965 -0.7807  1.2107
 2261TIP3    H228275   5.820   6.224   1.748  0.8760  0.5569  0.0877
 2262TIP3   OH228276   2.506   5.851   1.855 -0.2840  0.1739  0.6700
 2262TIP3    H128277   2.487   5.937   1.816 -0.0799 -0.6921 -1.4735
 2262TIP3    H228278   2.595   5.860   1.891  0.3720  0.4444 -0.9330
 2263TIP3   OH228279   3.746   6.323  16.087  0.2991 -0.2154  0.7432
 2263TIP3    H128280   3.670   6.367  16.126 -0.8859 -0.5159 -1.1188
 2263TIP3    H228281   3.788   6.390  16.033 -0.2799 -0.7813 -0.4325
 2264TIP3   OH228282   1.092   5.507   3.034 -0.7243  0.2437 -0.2054
 2264TIP3    H128283   1.034   5.581   3.048  0.0999  0.8954 -0.1107
 2264TIP3    H228284   1.169   5.545   2.990 -1.1060 -0.8793 -1.9375
 2265TIP3   OH228285   3.267   1.348  15.187 -0.2305 -0.0538  0.5359
 2265TIP3    H128286   3.284   1.380  15.098 -0.6386 -1.1465  0.0421
 2265TIP3    H228287   3.293   1.256  15.185 -1.3750 -0.4164  1.1940
 2266TIP3   OH228288   3.844   5.104   5.812  0.0039 -0.0047  0.6018
 2266TIP3    H128289   3.887   5.164   5.752 -0.2482 -1.1421 -0.7795
 2266TIP3    H228290   3.751   5.125   5.804 -0.2977 -1.7798 -1.3813
 2267TIP3   OH228291   5.753   1.149   1.408  0.1681 -0.5059  0.2045
 2267TIP3    H128292   5.820   1.144   1.477  1.3069 -0.1507 -0.8429
 2267TIP3    H228293   5.784   1.089   1.341 -1.0303 -0.9897  0.0574
 2268TIP3   OH228294   4.046   2.803  11.970  0.3431 -0.5048 -0.2730
 2268TIP3    H128295   4.048   2.832  12.061  2.8071  0.4276 -0.5424
 2268TIP3    H228296   4.129   2.757  11.958  0.3663 -0.0181 -2.2311
 2269TIP3   OH228297   5.876   3.500   4.917  0.0221  0.0785 -0.0338
 2269TIP3    H128298   5.800   3.444   4.900  1.2457 -1.2359 -1.4379
 2269TIP3    H228299   5.941   3.473   4.852  1.7098  1.1434  1.1260
 2270TIP3   OH228300   4.771   2.615  10.925 -0.1821  0.4080 -0.5633
 2270TIP3    H128301   4.742   2.662  10.847 -1.5387  2.1375  0.8856
 2270TIP3    H228302   4.853   2.573  10.899  0.3273  2.3723 -2.3889
 2271TIP3   OH228303   0.679   3.088  11.845  0.9078  0.1112 -0.6125
 2271TIP3    H128304   0.705   3.011  11.897  1.1522  0.2798 -0.4836
 2271TIP3    H228305   0.733   3.159  11.879 -0.8972  0.8559  0.7868
 2272TIP3   OH228306   2.132   1.111  17.122 -0.0360  0.3394  0.0589
 2272TIP3    H128307   2.076   1.182  17.154  0.8823  1.5613 -0.9384
 2272TIP3    H228308   2.203   1.155  17.076  0.8863 -1.2229 -0.1033
 2273TIP3   OH228309   3.850   4.905   5.612  0.2934  0.0723 -0.2064
 2273TIP3    H128310   3.891   4.967   5.672 -0.7495  0.0002  0.6139
 2273TIP3    H228311   3.847   4.823   5.661  0.5966 -0.3309 -0.8457
 2274TIP3   OH228312   1.853   1.969  12.706 -0.0593 -0.1921 -0.0097
 2274TIP3    H128313   1.894   2.002  12.787  0.9571 -1.4765  0.0421
 2274TIP3    H228314   1.899   2.014  12.636 -1.2934  1.3106  0.1129
 2275TIP3   OH228315   1.216   4.373   0.977  0.1705 -0.2496 -0.0762
 2275TIP3    H128316   1.311   4.363   0.969  0.0883 -2.2190  0.7386
 2275TIP3    H228317   1.203   4.406   1.065  0.0812 -1.2042  0.2870
 2276TIP3   OH228318   6.118   1.279  13.825 -0.1444  0.1267 -0.1939
 2276TIP3    H128319   6.068   1.244  13.899  0.4020  1.1308  0.6805
 2276TIP3    H228320   6.173   1.206  13.797 -0.8335 -0.4638 -0.0468
 2277TIP3   OH228321   3.116   0.443   1.950 -0.3682  0.3359 -0.4919
 2277TIP3    H128322   3.025   0.415   1.949 -0.2513 -0.1821  0.9794
 2277TIP3    H228323   3.116   0.520   2.008  0.2752 -0.2678  0.3246
 2278TIP3   OH228324   0.681   1.365  11.905 -0.2428 -0.3470 -0.1918
 2278TIP3    H128325   0.621   1.436  11.924 -0.7637 -0.9747  0.5465
 2278TIP3    H228326   0.761   1.388  11.952 -0.0653  0.2230 -0.7502
 2279TIP3   OH228327   3.894   3.707  11.669  0.2581 -0.2972  0.5150
 2279TIP3    H128328   3.916   3.616  11.650  0.4729 -0.4430  1.3988
 2279TIP3    H228329   3.973   3.742  11.710  0.4760  0.5320 -0.5528
 2280TIP3   OH228330   4.248   1.111  15.498 -0.9153 -0.0340  0.0378
 2280TIP3    H128331   4.342   1.124  15.485 -0.7406 -1.2462 -0.0516
 2280TIP3    H228332   4.207   1.174  15.439 -0.1377 -0.5359 -1.0770
 2281TIP3   OH228333   2.120   1.780   6.853  0.2256  0.2737 -0.8483
 2281TIP3    H128334   2.133   1.690   6.823 -1.0355  0.0806 -0.9100
 2281TIP3    H228335   2.026   1.796   6.838  0.8245  2.3987 -3.0152
 2282TIP3   OH228336   3.514   4.954   4.956 -0.3729 -0.1338  0.6249
 2282TIP3    H128337   3.464   5.033   4.935 -0.1935  0.0721  0.9435
 2282TIP3    H228338   3.452   4.882   4.946  0.2034 -0.3281 -2.6839
 2283TIP3   OH228339   2.378   0.694  17.107 -0.0923  0.0053  0.4615
 2283TIP3    H128340   2.368   0.732  17.195  2.6875  1.3473  0.2994
 2283TIP3    H228341   2.311   0.738  17.055  0.2518  1.5332  1.2506
 2284TIP3   OH228342   5.529   4.194   2.031 -0.3938  0.2736 -0.6510
 2284TIP3    H128343   5.573   4.272   1.998 -1.4863  1.2570  0.1119
 2284TIP3    H228344   5.505   4.144   1.953 -0.8697  1.3874 -1.2330
 2285TIP3   OH228345   5.850   4.689   5.100 -0.0774 -0.4769 -0.1630
 2285TIP3    H128346   5.763   4.695   5.140  0.5151  0.0227  1.1089
 2285TIP3    H228347   5.906   4.742   5.157  1.1543 -1.1709 -0.6987
 2286TIP3   OH228348   2.985   6.709   3.590 -0.5717 -0.1626  0.2476
 2286TIP3    H128349   2.914   6.705   3.526 -1.0101 -2.0583  0.7664
 2286TIP3    H228350   3.065   6.710   3.538 -0.9440  1.0503 -0.3312
 2287TIP3   OH228351   3.227   6.227  11.129  0.0392 -1.0809  0.7659
 2287TIP3    H128352   3.310   6.219  11.082 -0.3323 -1.9569  0.2379
 2287TIP3    H228353   3.201   6.318  11.118 -0.3892 -1.4200 -1.3346
 2288TIP3   OH228354   2.599   5.817  11.509  0.0340 -0.1638 -0.0582
 2288TIP3    H128355   2.651   5.862  11.442 -0.5598 -2.4247 -2.1841
 2288TIP3    H228356   2.657   5.748  11.541 -0.1579  0.0796  0.8437
 2289TIP3   OH228357   2.737   6.763   0.326  0.0718  0.2032 -0.0850
 2289TIP3    H128358   2.653   6.721   0.310 -0.2513 -0.2461  2.3203
 2289TIP3    H228359   2.799   6.691   0.334  0.0416  0.3029  1.3139
 2290TIP3   OH228360   6.810   1.215   1.923  0.3622 -0.0384  0.8180
 2290TIP3    H128361   6.896   1.178   1.943  1.6999  2.7846  0.8022
 2290TIP3    H228362   6.818   1.308   1.946 -2.5383  0.4326  0.3204
 2291TIP3   OH228363   2.539   4.421   1.350 -0.6182  0.3178  0.2827
 2291TIP3    H128364   2.570   4.511   1.355 -0.9464  0.4430  0.1329
 2291TIP3    H228365   2.488   4.409   1.430  0.7484 -0.2547  1.0884
 2292TIP3   OH228366   4.533   3.077   2.017  0.1983 -0.7445 -0.0493
 2292TIP3    H128367   4.532   3.128   1.936  0.4092  0.4756  0.6942
 2292TIP3    H228368   4.471   3.121   2.074  0.1966 -1.4833  0.5384
 2293TIP3   OH228369   6.420   0.393   6.014 -0.2411 -0.7530 -0.0175
 2293TIP3    H128370   6.333   0.424   5.988  0.3022  0.0586 -0.9476
 2293TIP3    H228371   6.466   0.473   6.040 -0.6546 -1.4611  3.3386
 2294TIP3   OH228372   1.973   3.100   6.766 -0.3827 -0.1166 -0.5207
 2294TIP3    H128373   1.933   3.027   6.719 -1.4507  0.2280 -0.1792
 2294TIP3    H228374   1.901   3.136   6.819  0.4374  0.4078  0.2528
 2295TIP3   OH228375   1.624   3.384   2.588  0.2320 -0.1284  0.3844
 2295TIP3    H128376   1.555   3.430   2.635 -0.5942 -2.0506  1.1703
 2295TIP3    H228377   1.582   3.304   2.557  0.7070  0.9710 -3.7005
 2296TIP3   OH228378   0.083   0.927   2.678 -0.2710  0.0116  0.8631
 2296TIP3    H128379   0.035   0.932   2.761  0.6698  0.9149  1.3804
 2296TIP3    H228380   0.149   0.996   2.685 -1.5245  1.5874 -1.5281
 2297TIP3   OH228381   6.581   2.184   5.564  0.3433 -0.7001 -0.7528
 2297TIP3    H128382   6.599   2.277   5.574 -1.5266 -0.1097 -2.1462
 2297TIP3    H228383   6.524   2.162   5.637 -1.0370 -0.1437 -1.6131
 2298TIP3   OH228384   2.398   3.803   1.782 -0.2225 -0.7593 -0.0189
 2298TIP3    H128385   2.395   3.743   1.856 -1.1682  1.6409  2.0392
 2298TIP3    H228386   2.308   3.805   1.748 -0.2667 -0.2825  0.1205
 2299TIP3   OH228387   3.902   3.909  16.015 -0.1014  0.2016 -0.1335
 2299TIP3    H128388   3.871   3.865  15.936  0.8506  0.2899 -0.5729
 2299TIP3    H228389   3.823   3.943  16.056 -0.4345  2.5567 -2.4775
 2300TIP3   OH228390   3.584   5.841   1.152  0.1394  0.9229 -0.5872
 2300TIP3    H128391   3.626   5.927   1.153  0.6046  0.7728 -2.4661
 2300TIP3    H228392   3.559   5.828   1.060  3.4712 -2.4739 -1.2551
 2301TIP3   OH228393   1.869   2.593  14.695  0.0001  0.3041 -0.4630
 2301TIP3    H128394   1.919   2.671  14.674 -0.3258  1.0759  1.4277
 2301TIP3    H228395   1.778   2.623  14.699  0.0153  0.1791  1.6606
 2302TIP3   OH228396   5.722   5.984  14.459  0.0535 -0.7990 -0.5924
 2302TIP3    H128397   5.680   5.905  14.427 -0.7444 -1.1630  1.2099
 2302TIP3    H228398   5.727   5.972  14.554 -1.5850  1.9727 -0.0213
 2303TIP3   OH228399   4.278   2.678  16.864  0.5653  0.3896  0.5071
 2303TIP3    H128400   4.213   2.748  16.864 -0.6560 -0.3880 -3.9673
 2303TIP3    H228401   4.360   2.722  16.841 -0.0096  0.5598 -1.3653
 2304TIP3   OH228402   0.687   3.556  13.887 -0.3071  0.0542  0.0839
 2304TIP3    H128403   0.608   3.520  13.928 -0.2438 -0.2921 -0.0949
 2304TIP3    H228404   0.678   3.650  13.897 -1.4494  0.1133 -1.2097
 2305TIP3   OH228405   3.648   4.200   3.441  0.3310 -0.1391  0.0785
 2305TIP3    H128406   3.595   4.280   3.446 -0.0984 -0.4569  0.6468
 2305TIP3    H228407   3.713   4.219   3.374  1.6315  1.5434  1.6948
 2306TIP3   OH228408   3.416   0.836  15.476  0.5438 -0.1808 -0.0994
 2306TIP3    H128409   3.499   0.831  15.524 -0.1283  2.6016  1.6177
 2306TIP3    H228410   3.373   0.915  15.510 -2.2826 -0.8167 -1.8077
 2307TIP3   OH228411   3.890   6.084   6.167 -0.4400 -0.5895  0.6005
 2307TIP3    H128412   3.870   6.141   6.093  1.2652 -1.6693 -0.7383
 2307TIP3    H228413   3.804   6.065   6.206 -1.2397  1.0719 -0.2426
 2308TIP3   OH228414   4.382   3.395   0.661 -0.0270  0.0846 -0.6270
 2308TIP3    H128415   4.475   3.383   0.681 -0.4741  0.1926  1.8030
 2308TIP3    H228416   4.337   3.332   0.718 -1.5265  1.3823 -0.3059
 2309TIP3   OH228417   3.651   0.473   5.009 -0.2005  0.0101  0.3195
 2309TIP3    H128418   3.614   0.395   4.968 -0.7514  0.5919 -0.3191
 2309TIP3    H228419   3.582   0.506   5.065 -0.7519  1.1877 -0.9957
 2310TIP3   OH228420   5.046   3.078  16.431 -0.6008  0.2423  0.5643
 2310TIP3    H128421   5.118   3.047  16.376 -0.5798  2.2271 -0.6302
 2310TIP3    H228422   5.087   3.096  16.516 -0.0875 -0.3696  0.4589
 2311TIP3   OH228423   0.710   3.690   5.404  0.0732 -0.1013  0.1392
 2311TIP3    H128424   0.626   3.669   5.445 -0.1218  0.3090 -0.0421
 2311TIP3    H228425   0.701   3.659   5.314 -0.1724  0.6171 -0.0968
 2312TIP3   OH228426   3.388   4.540  12.519  0.0389  0.4407  0.0789
 2312TIP3    H128427   3.476   4.536  12.558 -0.0152 -0.3596  0.1405
 2312TIP3    H228428   3.370   4.450  12.491 -1.2772  0.2969  1.2352
 2313TIP3   OH228429   5.346   2.455   1.049 -0.4172 -0.1956 -0.8649
 2313TIP3    H128430   5.282   2.524   1.069  0.3568 -0.1334  1.7493
 2313TIP3    H228431   5.300   2.396   0.990 -1.0106  2.6771 -3.5413
 2314TIP3   OH228432   6.124   5.290   2.505  0.5654 -0.1146 -0.0362
 2314TIP3    H128433   6.089   5.291   2.416 -1.2071 -0.8835  0.6134
 2314TIP3    H228434   6.157   5.201   2.516  1.3022  0.1415 -0.0873
 2315TIP3   OH228435   2.374   1.873   5.484 -0.0283 -0.4579 -0.3610
 2315TIP3    H128436   2.383   1.968   5.489  0.1038 -0.3563 -1.8185
 2315TIP3    H228437   2.292   1.854   5.529  0.1690  0.2958  0.3307
 2316TIP3   OH228438   4.787   4.975   5.887  0.1047  0.2882  0.5410
 2316TIP3    H128439   4.693   4.974   5.907  0.1916 -0.6720  0.9459
 2316TIP3    H228440   4.791   5.001   5.795 -0.4868  1.3967  0.8024
 2317TIP3   OH228441   6.077   5.569  13.248  0.2138  0.2785  0.3148
 2317TIP3    H128442   6.026   5.623  13.188  0.2634  1.9599  1.7268
 2317TIP3    H228443   6.020   5.554  13.322  0.1990 -1.6802 -0.0363
 2318TIP3   OH228444   2.394   2.450   4.791 -0.1154  0.0916  0.5736
 2318TIP3    H128445   2.317   2.415   4.746 -1.1668  0.0690  2.2939
 2318TIP3    H228446   2.379   2.544   4.797 -0.2535  0.0316  1.3127
 2319TIP3   OH228447   5.517   3.521   2.830  0.0968 -0.6056  0.2077
 2319TIP3    H128448   5.514   3.607   2.790 -0.3437 -0.8868 -0.3731
 2319TIP3    H228449   5.606   3.513   2.864  0.5086 -0.3936 -0.7979
 2320TIP3   OH228450   6.307   2.060   2.803  0.0927 -0.1467 -0.3906
 2320TIP3    H128451   6.324   1.985   2.860 -2.4301 -0.3785  0.1475
 2320TIP3    H228452   6.270   2.126   2.862 -0.9138  0.2522 -1.4424
 2321TIP3   OH228453   2.772   3.101   1.677 -0.4889  0.6381 -0.0874
 2321TIP3    H128454   2.756   3.129   1.767 -1.5578 -0.1341 -0.0099
 2321TIP3    H228455   2.815   3.175   1.635  1.4154  0.4716  1.4416
 2322TIP3   OH228456   6.361   0.969   3.971  0.7668 -0.3175 -0.8519
 2322TIP3    H128457   6.287   0.934   4.022  2.1726 -2.3651 -0.0870
 2322TIP3    H228458   6.332   1.056   3.943 -1.7039 -0.8303 -0.1174
 2323TIP3   OH228459   4.655   6.083   5.323  0.0130 -0.1491  0.0879
 2323TIP3    H128460   4.743   6.047   5.335  0.2343 -0.2947 -1.7571
 2323TIP3    H228461   4.669   6.163   5.273 -0.9233 -0.3508 -0.5065
 2324TIP3   OH228462   0.804   4.120  11.189 -0.9542 -0.2890 -0.7011
 2324TIP3    H128463   0.835   4.088  11.274 -0.9453 -0.9935 -0.9650
 2324TIP3    H228464   0.759   4.202  11.209  0.2820  0.3004 -0.1859
 2325TIP3   OH228465   2.156   1.478  13.058  0.1286  0.5828 -0.0051
 2325TIP3    H128466   2.061   1.480  13.047  0.2114 -0.1800 -1.0773
 2325TIP3    H228467   2.172   1.410  13.123  0.0493 -1.4897 -2.0232
 2326TIP3   OH228468   3.863   6.732  12.258  0.3384  0.0630  0.2392
 2326TIP3    H128469   3.828   6.764  12.174  1.2600 -0.1409 -0.2343
 2326TIP3    H228470   3.920   6.803  12.288  0.7655 -0.2692  0.2135
 2327TIP3   OH228471   3.970   2.617   5.483  0.6563 -0.7443 -0.2325
 2327TIP3    H128472   4.000   2.705   5.509 -0.1810 -0.8565  1.1941
 2327TIP3    H228473   3.902   2.595   5.546  0.9216 -2.4783 -0.5060
 2328TIP3   OH228474   6.078   2.008  15.096 -0.4631 -0.7979  0.3493
 2328TIP3    H128475   6.112   2.026  15.009 -1.3233  1.8344  0.4861
 2328TIP3    H228476   6.097   1.915  15.111  1.3358 -0.8499 -1.8758
 2329TIP3   OH228477   6.171   3.360   3.342 -0.2181  0.4532 -0.7368
 2329TIP3    H128478   6.138   3.273   3.318 -2.0426  1.4004 -1.8620
 2329TIP3    H228479   6.249   3.342   3.394  0.3369 -1.8396 -2.2071
 2330TIP3   OH228480   3.749   3.539  11.959  0.5589 -0.2622 -0.1066
 2330TIP3    H128481   3.843   3.521  11.968  0.0868 -1.8641  2.8300
 2330TIP3    H228482   3.729   3.598  12.031 -0.8540 -0.6004 -0.1919
 2331TIP3   OH228483   6.710   5.744   4.723  0.2202  0.1524 -0.4349
 2331TIP3    H128484   6.701   5.761   4.817  0.1604 -0.3585 -0.3474
 2331TIP3    H228485   6.699   5.650   4.714 -3.3751  0.5303 -1.3725
 2332TIP3   OH228486   1.677   3.155  14.177  0.1130  0.0002 -0.0483
 2332TIP3    H128487   1.635   3.190  14.098  0.9577 -3.9325 -2.5334
 2332TIP3    H228488   1.605   3.136  14.236 -1.0316 -0.7052 -1.5972
 2333TIP3   OH228489   6.182   3.890   3.980 -0.0248 -0.4288  0.1487
 2333TIP3    H128490   6.136   3.960   4.025 -0.4665 -1.1464  0.8341
 2333TIP3    H228491   6.269   3.927   3.961  0.1614 -0.0771  1.5511
 2334TIP3   OH228492   3.808   1.886   5.151 -0.4996  0.4426  0.1805
 2334TIP3    H128493   3.836   1.823   5.217  1.0709  1.1276  0.2036
 2334TIP3    H228494   3.858   1.965   5.170 -2.9548  2.0236  0.6385
 2335TIP3   OH228495   4.746   5.084   1.033  0.6929 -0.0159  0.1869
 2335TIP3    H128496   4.696   5.139   1.094  0.3929 -0.3582  0.2554
 2335TIP3    H228497   4.724   5.118   0.946 -0.9852 -1.2014  0.1029
 2336TIP3   OH228498   6.188   2.082   2.553  0.6465 -0.5647 -0.6152
 2336TIP3    H128499   6.246   2.133   2.497  0.9962  0.6255  0.7569
 2336TIP3    H228500   6.211   2.109   2.642 -2.3842  0.4306  0.0001
 2337TIP3   OH228501   1.525   3.252   5.195  0.2285 -0.6443  0.1633
 2337TIP3    H128502   1.584   3.201   5.139 -0.0667  0.9318 -1.6963
 2337TIP3    H228503   1.572   3.260   5.278  2.6556  0.4936 -1.2089
 2338TIP3   OH228504   2.206   1.607  11.222  0.7028  0.0845 -0.2944
 2338TIP3    H128505   2.260   1.536  11.189  0.4479 -0.4034  0.3214
 2338TIP3    H228506   2.116   1.582  11.199  0.8129  1.8207 -3.0964
 2339TIP3   OH228507   1.099   1.247  16.609 -0.3681 -0.5211 -0.1489
 2339TIP3    H128508   1.186   1.243  16.649 -0.3213  1.7020  0.1038
 2339TIP3    H228509   1.116   1.256  16.516 -0.2236  1.3097  0.0134
 2340TIP3   OH228510   4.059   2.299  16.611  0.2951 -0.0910  0.0206
 2340TIP3    H128511   4.063   2.205  16.625  2.4712 -0.4921 -2.4195
 2340TIP3    H228512   4.132   2.334  16.663  2.0729 -0.3724 -2.0982
 2341TIP3   OH228513   6.224   5.888   3.798  0.3015  0.7737  0.6769
 2341TIP3    H128514   6.276   5.826   3.849  1.5031  0.5151 -0.7800
 2341TIP3    H228515   6.285   5.958   3.775  0.1343  0.3528 -1.2638
 2342TIP3   OH228516   3.133   2.092   3.440 -0.2819 -0.3594 -0.4574
 2342TIP3    H128517   3.157   2.139   3.360 -0.2053  1.8918  0.7919
 2342TIP3    H228518   3.215   2.053   3.470  0.0311  0.1421 -0.6442
 2343TIP3   OH228519   0.349   0.595   0.479 -0.3845  0.4553 -0.3792
 2343TIP3    H128520   0.433   0.634   0.454 -0.4869  0.6921 -0.3583
 2343TIP3    H228521   0.362   0.501   0.470 -0.2215  0.5098 -0.6958
 2344TIP3   OH228522   4.451   1.718  11.136 -0.3194 -0.4307 -0.0846
 2344TIP3    H128523   4.465   1.625  11.156 -1.3845 -0.4388  0.7055
 2344TIP3    H228524   4.428   1.757  11.220  0.7261  0.6904 -0.2927
 2345TIP3   OH228525   1.983   1.992   2.836 -0.1727  0.5612 -0.0282
 2345TIP3    H128526   1.940   1.923   2.786 -1.7634  1.6992 -0.3022
 2345TIP3    H228527   1.956   2.073   2.794  1.6591  1.3869  0.2780
 2346TIP3   OH228528   4.372   0.228  13.197  0.0312  0.2085  0.0779
 2346TIP3    H128529   4.453   0.182  13.219 -0.0723 -0.8942 -1.6109
 2346TIP3    H228530   4.384   0.254  13.106 -1.1378  0.8688  0.1013
 2347TIP3   OH228531   5.198   0.200   4.003 -0.3399 -0.0747 -0.1082
 2347TIP3    H128532   5.236   0.281   4.038 -0.6996 -0.6746  1.8130
 2347TIP3    H228533   5.224   0.133   4.066 -0.2558 -1.4307 -1.5354
 2348TIP3   OH228534   1.464   5.177   6.488  0.5373  0.3805 -0.1620
 2348TIP3    H128535   1.465   5.163   6.582  0.0215 -0.6084 -0.2817
 2348TIP3    H228536   1.525   5.111   6.453  1.4306  1.3488 -0.4594
 2349TIP3   OH228537   3.718   6.441  10.356  0.4971  0.4401  0.9096
 2349TIP3    H128538   3.664   6.383  10.410  0.6288 -1.3440 -0.7801
 2349TIP3    H228539   3.805   6.436  10.397  0.3343  0.0488  1.2219
 2350TIP3   OH228540   5.072   1.100  12.816 -0.1244  0.3804 -0.5858
 2350TIP3    H128541   4.989   1.059  12.794 -0.3132  0.6303 -0.3469
 2350TIP3    H228542   5.113   1.119  12.732  0.6504 -1.6515 -0.7182
 2351TIP3   OH228543   2.695   5.126  11.829 -0.0257 -0.7124 -0.4233
 2351TIP3    H128544   2.690   5.031  11.820  0.3504 -0.7319 -0.4454
 2351TIP3    H228545   2.610   5.151  11.863 -0.0132 -1.0939 -0.1016
 2352TIP3   OH228546   4.104   2.715   4.814  1.0428  0.2774  0.0030
 2352TIP3    H128547   4.154   2.786   4.854  0.3908 -1.0613  3.6124
 2352TIP3    H228548   4.013   2.746   4.816  0.7159 -0.6723  1.8846
 2353TIP3   OH228549   4.001   2.085   4.983 -0.7037  0.4673 -0.6906
 2353TIP3    H128550   4.069   2.145   4.951  0.5907 -0.3518  0.3887
 2353TIP3    H228551   4.001   2.014   4.919 -0.2175  0.2604 -0.4683
 2354TIP3   OH228552   5.603   4.639   0.007  0.2576  0.4573  0.4276
 2354TIP3    H128553   5.512   4.633   0.035  0.9638 -1.9879  2.6224
 2354TIP3    H228554   5.608   4.581  -0.069  0.2511 -0.7365  1.3043
 2355TIP3   OH228555   2.706   3.200   3.756  0.3096 -0.4544  0.0206
 2355TIP3    H128556   2.742   3.144   3.825  2.0779  0.1717 -0.3539
 2355TIP3    H228557   2.769   3.272   3.747 -1.8964  1.6867  0.5341
 2356TIP3   OH228558   6.651   4.351   6.792 -1.0377  0.2455 -0.2128
 2356TIP3    H128559   6.718   4.418   6.806 -0.6669  0.5464 -2.8964
 2356TIP3    H228560   6.568   4.399   6.800 -1.0564 -0.0851  2.8840
 2357TIP3   OH228561   4.498   3.001  15.598  0.2502  0.2825 -0.1979
 2357TIP3    H128562   4.440   3.042  15.662 -0.6501 -0.3044 -0.6166
 2357TIP3    H228563   4.467   3.033  15.513 -0.2517 -0.9514 -0.5066
 2358TIP3   OH228564   5.386   6.128  11.698 -0.2146 -0.2263 -0.0585
 2358TIP3    H128565   5.450   6.058  11.682 -0.4536 -0.2757 -0.8456
 2358TIP3    H228566   5.301   6.084  11.690 -0.3997  0.3895 -1.8355
 2359TIP3   OH228567   0.369   3.000   1.354 -0.2152  0.3862  0.0766
 2359TIP3    H128568   0.375   3.094   1.340  1.3985  0.2643 -0.1512
 2359TIP3    H228569   0.436   2.980   1.419 -0.9026 -0.5443  0.5385
 2360TIP3   OH228570   5.836   6.696  15.689  0.5976 -0.0413  0.0705
 2360TIP3    H128571   5.755   6.648  15.669 -0.0121  1.1602 -0.4839
 2360TIP3    H228572   5.812   6.788  15.676  2.5093  0.2532 -1.7095
 2361TIP3   OH228573   3.064   6.120  15.392  0.1536 -0.4026  0.6241
 2361TIP3    H128574   3.006   6.047  15.371 -1.7702  1.3716 -0.5935
 2361TIP3    H228575   3.015   6.172  15.456  0.8811  0.5330  0.4419
 2362TIP3   OH228576   0.348   5.893   3.635 -0.2927  0.1816  0.3461
 2362TIP3    H128577   0.367   5.827   3.568 -2.2170 -0.2070  0.1182
 2362TIP3    H228578   0.295   5.958   3.590  1.9012  2.1970  0.4597
 2363TIP3   OH228579   0.297   5.450   2.270  0.1713  0.1551 -0.2004
 2363TIP3    H128580   0.280   5.539   2.301 -2.0533  0.1819 -1.3212
 2363TIP3    H228581   0.248   5.394   2.330 -2.4748  0.0790 -2.2534
 2364TIP3   OH228582   2.460   2.649  17.081 -0.0449  0.5046 -0.2479
 2364TIP3    H128583   2.454   2.558  17.053 -1.5262 -0.5201  2.8624
 2364TIP3    H228584   2.554   2.664  17.097  0.1521 -0.6458 -0.3005
 2365TIP3   OH228585   4.452   6.450  11.761 -0.3060  0.1718 -0.2612
 2365TIP3    H128586   4.413   6.473  11.845  1.0374 -1.4498  0.8595
 2365TIP3    H228587   4.543   6.430  11.781  1.3574  3.9754 -2.7970
 2366TIP3   OH228588   3.088   0.423   1.250  0.3643  0.7356  0.2787
 2366TIP3    H128589   3.068   0.380   1.333 -1.2145  1.1795  0.1508
 2366TIP3    H228590   3.088   0.517   1.270  0.8963  0.8160 -0.0477
 2367TIP3   OH228591   1.744   6.106  14.828 -0.0138 -0.4645  0.2750
 2367TIP3    H128592   1.720   6.177  14.886  0.0613  1.2966 -1.7470
 2367TIP3    H228593   1.831   6.130  14.794 -2.0107  1.3519 -4.4049
 2368TIP3   OH228594   1.752   0.047  14.327  0.1041  0.1260 -0.2696
 2368TIP3    H128595   1.847   0.035  14.324  0.2530  1.1638 -0.0741
 2368TIP3    H228596   1.721   0.013  14.243  0.4854 -1.3925  0.1617
 2369TIP3   OH228597   2.788   1.994   5.258 -0.0060 -0.2199 -0.0855
 2369TIP3    H128598   2.872   1.951   5.271  0.1882 -0.6905 -2.4776
 2369TIP3    H228599   2.724   1.932   5.294  0.4932 -1.1719 -0.7865
 2370TIP3   OH228600   6.207   6.113  14.104  0.1530  0.3947 -0.4775
 2370TIP3    H128601   6.242   6.191  14.147  0.3234  0.4250 -0.6715
 2370TIP3    H228602   6.281   6.053  14.097  0.6175  1.1197 -2.4353
 2371TIP3   OH228603   3.172   3.125   4.284  0.0533  0.1257  0.0314
 2371TIP3    H128604   3.213   3.177   4.216  0.8867 -0.3199  0.1830
 2371TIP3    H228605   3.233   3.128   4.357 -0.5821  0.1575  0.5758
 2372TIP3   OH228606   6.016   4.040  13.943 -0.4489  0.2531  0.5070
 2372TIP3    H128607   6.008   3.962  13.998 -0.3357 -0.1129  0.0225
 2372TIP3    H228608   5.958   4.022  13.868  0.2345  0.2558 -0.0309
 2373TIP3   OH228609   2.335   5.860   5.237  0.1963 -0.5712 -0.1158
 2373TIP3    H128610   2.427   5.885   5.233 -0.2068  0.8554 -1.1004
 2373TIP3    H228611   2.328   5.784   5.180  1.0626 -1.8361  1.3636
 2374TIP3   OH228612   0.198   6.463   1.569 -0.3399  1.1243 -0.3635
 2374TIP3    H128613   0.133   6.453   1.639  0.5965  0.6445  0.4529
 2374TIP3    H228614   0.251   6.538   1.596 -0.0758  1.0455 -0.6578
 2375TIP3   OH228615   1.751   0.196   4.171  0.3812  0.8288 -0.1656
 2375TIP3    H128616   1.789   0.202   4.258  0.6911  1.0849 -0.3169
 2375TIP3    H228617   1.821   0.160   4.116  0.5136  1.5815 -0.5062
 2376TIP3   OH228618   4.728   5.431  16.039 -0.2070 -0.1993 -0.1430
 2376TIP3    H128619   4.755   5.359  16.095  0.7551  0.3214  0.0888
 2376TIP3    H228620   4.769   5.509  16.077 -0.4542  0.3357 -0.9219
 2377TIP3   OH228621   5.757   6.403  12.610  0.1446  0.3148  0.3994
 2377TIP3    H128622   5.681   6.354  12.642 -0.6045  0.5793 -0.8766
 2377TIP3    H228623   5.807   6.424  12.689 -0.7077 -0.5246  1.1950
 2378TIP3   OH228624   6.728   4.607  14.807  0.0482 -0.5050  0.5360
 2378TIP3    H128625   6.654   4.633  14.861  0.6229  2.4900  0.0366
 2378TIP3    H228626   6.690   4.594  14.719 -0.3831 -2.4403  0.9566
 2379TIP3   OH228627   0.252   4.285  12.149 -0.5079  0.9496  0.5582
 2379TIP3    H128628   0.237   4.362  12.204  1.0356  0.9072  1.0972
 2379TIP3    H228629   0.315   4.314  12.083  0.4926  0.0508  1.0742
 2380TIP3   OH228630   1.797   5.451   5.540  0.0094  0.3270 -0.1577
 2380TIP3    H128631   1.737   5.378   5.528 -0.0549  0.0946  1.4584
 2380TIP3    H228632   1.783   5.506   5.463  0.9386 -1.9417 -2.0650
 2381TIP3   OH228633   2.606   2.069  16.823  0.4647 -0.4488  0.1438
 2381TIP3    H128634   2.634   2.123  16.749 -0.4430 -0.6253 -0.3353
 2381TIP3    H228635   2.592   1.982  16.786 -0.4015 -0.4369  0.4357
 2382TIP3   OH228636   2.339   4.740   4.710  0.3018  0.4623 -0.2328
 2382TIP3    H128637   2.338   4.766   4.619  1.4924  1.3507 -0.0244
 2382TIP3    H228638   2.425   4.769   4.742 -0.4578  1.0135  1.4055
 2383TIP3   OH228639   6.815   4.034   3.960  0.1734 -0.0932 -0.0556
 2383TIP3    H128640   6.883   4.089   3.922  0.6724 -0.8595 -0.3005
 2383TIP3    H228641   6.818   3.953   3.909  0.9062 -1.1703  1.6085
 2384TIP3   OH228642   0.196   2.785  16.592 -0.0692 -0.1838 -0.4780
 2384TIP3    H128643   0.171   2.874  16.617  0.7744  0.1203 -0.6750
 2384TIP3    H228644   0.113   2.741  16.571 -0.4211  0.8409 -1.3133
 2385TIP3   OH228645   2.712   1.767   1.709  0.3138 -0.1666 -0.1636
 2385TIP3    H128646   2.799   1.795   1.736 -0.1725  0.0261  1.2463
 2385TIP3    H228647   2.720   1.672   1.698  1.8436  0.2189 -4.5195
 2386TIP3   OH228648   6.701   2.976   1.526  0.2602  0.1445  0.1565
 2386TIP3    H128649   6.649   3.056   1.514 -1.6492 -1.2147 -1.2416
 2386TIP3    H228650   6.648   2.922   1.586 -0.1359 -1.3633 -1.4643
 2387TIP3   OH228651   2.400   4.268  16.525 -0.8812  0.4412  0.8872
 2387TIP3    H128652   2.361   4.193  16.480  1.5413 -0.4952  0.1774
 2387TIP3    H228653   2.428   4.326  16.455  1.2016 -0.1248  1.1796
 2388TIP3   OH228654   4.603   2.574   5.923  0.3591 -0.1265  0.5312
 2388TIP3    H128655   4.648   2.492   5.904 -0.1902 -0.6334  1.3761
 2388TIP3    H228656   4.674   2.639   5.929  0.7657 -0.4586 -0.4897
 2389TIP3   OH228657   5.670   1.458   0.124 -0.3240  0.0306 -0.0123
 2389TIP3    H128658   5.668   1.538   0.071 -0.8267  1.1862  1.6399
 2389TIP3    H228659   5.578   1.434   0.133 -0.4280  0.9287  1.7951
 2390TIP3   OH228660   3.531   0.310  13.932 -0.0979 -0.7748 -0.0612
 2390TIP3    H128661   3.555   0.229  13.976  0.8865 -0.9604 -0.8805
 2390TIP3    H228662   3.457   0.344  13.981 -1.0518 -2.5821 -0.1855
 2391TIP3   OH228663   1.587   0.347   4.901  0.5229 -0.6797  0.0928
 2391TIP3    H128664   1.537   0.290   4.842 -0.4491 -0.2840  0.5150
 2391TIP3    H228665   1.613   0.421   4.847 -1.4835  0.3285  0.4193
 2392TIP3   OH228666   4.898   4.209   0.721 -0.2172 -0.0832  0.6326
 2392TIP3    H128667   4.980   4.231   0.767  0.7007 -1.1952 -0.4208
 2392TIP3    H228668   4.845   4.288   0.730  1.8543  1.5683 -0.5792
 2393TIP3   OH228669   1.907   2.209   2.710 -0.5209 -0.0020 -0.2288
 2393TIP3    H128670   1.814   2.192   2.694 -0.7907  1.9410 -0.9669
 2393TIP3    H228671   1.933   2.270   2.641  0.7875  1.0450  1.1191
 2394TIP3   OH228672   0.963   0.514   5.199  0.8381  0.6723 -0.3392
 2394TIP3    H128673   0.874   0.478   5.197  0.3352  1.8971 -1.2715
 2394TIP3    H228674   1.003   0.481   5.118  0.9150  0.8744 -0.3836
 2395TIP3   OH228675   0.475   3.972  12.169  0.0465  0.5749  0.1924
 2395TIP3    H128676   0.411   4.016  12.226 -1.8215 -0.9965 -0.5590
 2395TIP3    H228677   0.464   4.014  12.084  0.1641  0.4285  0.1058
 2396TIP3   OH228678   2.672   0.173   2.534 -0.2954  0.4840 -0.2164
 2396TIP3    H128679   2.747   0.175   2.474 -0.7184  1.1466 -0.7332
 2396TIP3    H228680   2.632   0.259   2.526 -1.2260  0.0761 -0.0785
 2397TIP3   OH228681   3.894   1.505   2.785  0.7517  0.2858 -0.2193
 2397TIP3    H128682   3.947   1.453   2.847 -0.6570  0.5959  1.3231
 2397TIP3    H228683   3.880   1.588   2.830 -2.6798 -0.4723  0.4226
 2398TIP3   OH228684   3.002   2.622  16.066 -0.0949  0.2737  0.2075
 2398TIP3    H128685   2.920   2.652  16.028  0.3209  0.0079 -0.9157
 2398TIP3    H228686   2.992   2.527  16.073 -0.7058  0.4206  2.0989
 2399TIP3   OH228687   2.643   0.760   6.091 -0.4066 -0.0473  0.1445
 2399TIP3    H128688   2.736   0.756   6.112 -0.2611 -1.3112 -0.6187
 2399TIP3    H228689   2.632   0.846   6.049  0.5833 -0.2091 -0.4841
 2400TIP3   OH228690   4.503   4.096   0.363  0.3908 -0.2925 -0.0770
 2400TIP3    H128691   4.495   4.019   0.420  0.0766  0.2311  0.6057
 2400TIP3    H228692   4.482   4.063   0.276 -0.8906 -0.7504  0.3711
 2401TIP3   OH228693   1.185   4.796  12.140 -0.0787  1.0213  0.3238
 2401TIP3    H128694   1.272   4.795  12.181 -0.5310 -1.2173  1.3630
 2401TIP3    H228695   1.125   4.815  12.212 -0.5808  0.9567 -0.0787
 2402TIP3   OH228696   4.381   0.418  15.044  0.1727  0.2826  0.0271
 2402TIP3    H128697   4.362   0.339  15.093  0.8860  0.4702  0.6208
 2402TIP3    H228698   4.475   0.415  15.028 -0.0240  0.2692 -1.2620
 2403TIP3   OH228699   4.455   2.228   2.839 -0.1640  0.6949  0.3212
 2403TIP3    H128700   4.485   2.178   2.914 -0.3460  0.2089  0.0776
 2403TIP3    H228701   4.505   2.310   2.842 -1.2856  1.3662  1.8507
 2404TIP3   OH228702   2.747   5.725   6.172  0.1335 -0.1847 -0.0562
 2404TIP3    H128703   2.800   5.783   6.227 -0.6117  0.0510  0.4183
 2404TIP3    H228704   2.776   5.745   6.082  3.1320 -2.2779  0.2826
 2405TIP3   OH228705   1.943   0.717  15.653 -0.1949  0.1859 -0.6847
 2405TIP3    H128706   1.911   0.807  15.650 -0.0229  0.2733  0.0287
 2405TIP3    H228707   1.867   0.664  15.628 -1.1934  0.3311  1.8109
 2406TIP3   OH228708   4.880   6.292  12.271  0.2435  0.5514  0.4977
 2406TIP3    H128709   4.889   6.381  12.237  4.7518 -0.4847 -1.8529
 2406TIP3    H228710   4.858   6.239  12.194  0.1679 -0.6888  1.3392
 2407TIP3   OH228711   3.246   6.452   4.650 -0.6464  0.1564  0.1114
 2407TIP3    H128712   3.241   6.359   4.626  0.9429  0.6230 -2.3963
 2407TIP3    H228713   3.168   6.491   4.610 -1.3847 -0.0686  1.2768
 2408TIP3   OH228714   0.489   5.989   6.240 -0.4156 -0.1769 -0.5146
 2408TIP3    H128715   0.493   6.038   6.322 -0.2765  0.6265 -0.9791
 2408TIP3    H228716   0.580   5.987   6.209 -0.7621  1.6904 -1.8443
 2409TIP3   OH228717   6.710   3.593  12.775 -0.5084  0.3234 -0.4197
 2409TIP3    H128718   6.645   3.566  12.840  0.3238 -0.2192  0.2080
 2409TIP3    H228719   6.658   3.619  12.699 -1.4583 -0.1790  0.0338
 2410TIP3   OH228720   1.563   6.422   5.441  0.2428  0.3009 -0.3696
 2410TIP3    H128721   1.502   6.349   5.451  0.0442  0.6163  0.8680
 2410TIP3    H228722   1.649   6.384   5.457  0.0507  0.5159  1.3724
 2411TIP3   OH228723   4.218   4.724   4.179  0.4552 -0.2666 -0.2869
 2411TIP3    H128724   4.311   4.728   4.201  0.3304 -0.2525  0.2466
 2411TIP3    H228725   4.184   4.809   4.207  0.6841  0.5835 -2.4079
 2412TIP3   OH228726   2.077   3.780  13.549  0.0295 -0.0335  0.4774
 2412TIP3    H128727   2.080   3.752  13.458  1.3224 -1.0014  0.7907
 2412TIP3    H228728   1.991   3.754  13.581 -0.5459  0.5808 -0.5284
 2413TIP3   OH228729   0.199   3.718   2.574 -0.5741  0.1673  0.5334
 2413TIP3    H128730   0.160   3.805   2.582  0.2727  0.7515 -1.2298
 2413TIP3    H228731   0.196   3.698   2.481  0.0979 -1.3012  0.7961
 2414TIP3   OH228732   3.668   2.657  16.144 -0.1081 -0.2053  0.6624
 2414TIP3    H128733   3.717   2.637  16.224 -0.9481 -1.5513  0.8794
 2414TIP3    H228734   3.624   2.739  16.163  0.3970 -0.0654  1.2565
 2415TIP3   OH228735   2.506   2.561  14.883  0.0651 -0.2911  0.0252
 2415TIP3    H128736   2.535   2.602  14.802 -0.9297 -1.9271 -1.2161
 2415TIP3    H228737   2.438   2.618  14.917  2.8279  2.3088  1.6904
 2416TIP3   OH228738   2.084   0.121  15.989 -0.3617  0.3443  0.7592
 2416TIP3    H128739   2.109   0.066  15.914 -0.8767 -0.7968  1.4107
 2416TIP3    H228740   2.133   0.203  15.975  1.0280 -0.5414  0.1659
 2417TIP3   OH228741   2.957   2.362  16.104  0.0750  0.4120  0.1751
 2417TIP3    H128742   3.012   2.321  16.037 -0.3946  1.4501 -0.8743
 2417TIP3    H228743   2.880   2.306  16.109  1.6459 -1.7821  2.5521
 2418TIP3   OH228744   0.862   5.264  14.857  0.6621  0.0107 -0.0588
 2418TIP3    H128745   0.861   5.311  14.940  1.8644  2.9165 -1.5052
 2418TIP3    H228746   0.784   5.296  14.811 -0.5902 -2.3773  0.2529
 2419TIP3   OH228747   1.731   0.736  12.530 -1.3048  0.1736 -0.0961
 2419TIP3    H128748   1.811   0.748  12.479 -1.1481  0.6720  0.2648
 2419TIP3    H228749   1.663   0.779  12.479 -1.6143 -1.4051 -1.0764
 2420TIP3   OH228750   5.333   0.985  10.749 -0.5714  0.4879 -0.0681
 2420TIP3    H128751   5.391   1.057  10.724 -0.8939  0.8493  0.2091
 2420TIP3    H228752   5.272   0.976  10.677 -0.2033  0.1341 -0.3419
 2421TIP3   OH228753   0.672   3.268   1.541 -0.2791 -0.0342 -0.1163
 2421TIP3    H128754   0.658   3.241   1.632  0.2502 -1.5216 -0.4482
 2421TIP3    H228755   0.602   3.330   1.523 -0.0247  0.7717  1.5008
 2422TIP3   OH228756   0.425   4.389  11.715 -0.0271  0.0188 -0.1018
 2422TIP3    H128757   0.363   4.330  11.757  0.8054  0.1580  1.4014
 2422TIP3    H228758   0.386   4.476  11.726 -0.6914 -0.1208 -1.2757
 2423TIP3   OH228759   4.785   0.499  15.599 -0.3135  0.6571 -0.1349
 2423TIP3    H128760   4.729   0.512  15.522 -1.2149  1.1951  0.5794
 2423TIP3    H228761   4.734   0.441  15.656  0.5251 -0.0750 -0.1163
 2424TIP3   OH228762   6.444   0.054   3.851  0.3865 -0.6357 -0.3667
 2424TIP3    H128763   6.391   0.058   3.772  2.1536 -0.0394 -1.6095
 2424TIP3    H228764   6.385   0.078   3.922 -0.7752  0.9767 -1.7972
 2425TIP3   OH228765   0.839   1.965   0.892  0.2599 -0.1890 -0.5199
 2425TIP3    H128766   0.916   1.975   0.948 -0.6324  2.6246  0.4394
 2425TIP3    H228767   0.765   1.986   0.951 -1.0483 -0.8351 -1.8733
 2426TIP3   OH228768   5.927   4.039  16.865 -0.5086 -0.3281  0.3292
 2426TIP3    H128769   6.012   4.082  16.874 -0.8306  0.3088  0.4342
 2426TIP3    H228770   5.867   4.096  16.914 -1.3748  0.3876 -1.4849
 2427TIP3   OH228771   4.237   1.302  14.955  0.4425 -0.2462  0.5511
 2427TIP3    H128772   4.183   1.373  14.990  0.3094 -0.6953  1.2798
 2427TIP3    H228773   4.174   1.233  14.933  0.3705  0.4615 -1.7891
 2428TIP3   OH228774   2.326   1.173   1.116  0.1875  0.0348 -0.1328
 2428TIP3    H128775   2.330   1.102   1.052  1.7999 -1.2843  1.3588
 2428TIP3    H228776   2.240   1.163   1.158 -0.0944 -0.2580 -0.7597
 2429TIP3   OH228777   4.442   6.373   4.701 -0.1256 -0.1868  0.0606
 2429TIP3    H128778   4.477   6.345   4.617 -0.2623  0.1195 -0.0988
 2429TIP3    H228779   4.412   6.292   4.743  0.2956 -0.3876 -0.0209
 2430TIP3   OH228780   0.292   2.129  11.917  0.0624 -0.0542 -0.3573
 2430TIP3    H128781   0.357   2.145  11.986 -0.3490  0.7265 -0.1453
 2430TIP3    H228782   0.208   2.137  11.961 -0.2290  1.4798 -1.1472
 2431TIP3   OH228783   3.002   1.035  15.003  0.8942  0.5917 -1.1191
 2431TIP3    H128784   3.047   1.094  14.942  0.4518  2.0304 -0.0955
 2431TIP3    H228785   3.058   0.957  15.005  2.0782  1.3844 -1.7071
 2432TIP3   OH228786   4.056   0.975   3.130  0.4586  0.4308  0.1130
 2432TIP3    H128787   3.989   0.970   3.198  1.5918 -3.0065  1.1619
 2432TIP3    H228788   4.009   1.005   3.052 -2.7964 -3.3578  0.3358
 2433TIP3   OH228789   3.035   3.694   4.651 -0.2750 -0.0221  0.0627
 2433TIP3    H128790   3.045   3.789   4.656  1.3245  0.1491 -3.2929
 2433TIP3    H228791   3.019   3.666   4.741  0.5419  3.2768  1.3641
 2434TIP3   OH228792   5.712   4.543   3.650 -0.0125 -0.0616 -0.5482
 2434TIP3    H128793   5.715   4.616   3.712  0.2359  0.2125 -0.8817
 2434TIP3    H228794   5.618   4.524   3.640 -0.0555 -0.1031 -0.0981
 2435TIP3   OH228795   3.553   0.845  12.032 -0.1245 -0.1903  0.1628
 2435TIP3    H128796   3.622   0.792  12.073  1.0133 -0.8856 -2.4330
 2435TIP3    H228797   3.595   0.928  12.012 -0.6539  0.1367  0.4013
 2436TIP3   OH228798   4.129   1.261  12.934 -0.1710 -0.3406  0.6635
 2436TIP3    H128799   4.076   1.330  12.975  0.3004  0.0189  0.6774
 2436TIP3    H228800   4.075   1.228  12.863  0.8422  2.2986 -1.4917
 2437TIP3   OH228801   5.602   6.192   1.198 -0.4014  0.4157 -0.5335
 2437TIP3    H128802   5.588   6.244   1.119 -0.4171  0.8846 -0.2260
 2437TIP3    H228803   5.516   6.154   1.217  0.0471 -1.4051 -1.9166
 2438TIP3   OH228804   4.048   1.075   0.309  1.0593 -0.1269  0.5657
 2438TIP3    H128805   3.962   1.037   0.326  0.0298  0.7447 -2.1040
 2438TIP3    H228806   4.042   1.164   0.343  0.9321 -0.0909  0.4498
 2439TIP3   OH228807   6.368   0.394   5.599  0.2028  0.2814  0.3237
 2439TIP3    H128808   6.336   0.324   5.656  0.1777  0.1440  0.1408
 2439TIP3    H228809   6.290   0.428   5.557  0.5008 -1.7195 -2.0401
 2440TIP3   OH228810   6.568   6.425   0.939  0.1477 -0.3040 -0.8902
 2440TIP3    H128811   6.611   6.382   0.866  0.8077 -0.9567 -0.1319
 2440TIP3    H228812   6.516   6.494   0.899  0.8956 -0.3276 -1.9292
 2441TIP3   OH228813   0.959   5.071   0.608 -0.3225 -0.4991 -0.5816
 2441TIP3    H128814   1.043   5.112   0.587  0.3257 -1.3713  0.2119
 2441TIP3    H228815   0.974   5.030   0.693 -1.6967 -0.2925 -0.2211
 2442TIP3   OH228816   0.579   4.112  13.464  0.3828  0.6066  0.4161
 2442TIP3    H128817   0.602   4.158  13.383 -1.6986  1.3161  0.1770
 2442TIP3    H228818   0.538   4.031  13.434  2.6773 -0.8119  0.8360
 2443TIP3   OH228819   2.673   4.159  11.548  0.4197  0.3739  0.0512
 2443TIP3    H128820   2.585   4.135  11.575 -0.4302  2.4142 -0.7447
 2443TIP3    H228821   2.666   4.173  11.453  1.8682 -0.4725 -0.2115
 2444TIP3   OH228822   2.326   6.050  15.410  0.0138  0.0282  0.4117
 2444TIP3    H128823   2.335   6.035  15.316  0.6842 -0.3292  0.5297
 2444TIP3    H228824   2.235   6.028  15.429 -0.2721  0.6083 -0.2429
 2445TIP3   OH228825   5.919   0.254  11.301 -0.0391 -0.5075 -0.7718
 2445TIP3    H128826   5.897   0.165  11.328  0.1679 -0.4397 -0.3742
 2445TIP3    H228827   5.857   0.310  11.348 -0.2133 -0.4455 -1.0730
 2446TIP3   OH228828   1.477   5.822   3.792  0.0021 -0.3290  0.4218
 2446TIP3    H128829   1.560   5.807   3.748  0.3815  0.8513  0.7120
 2446TIP3    H228830   1.457   5.738   3.835  0.9680 -0.6555  0.2500
 2447TIP3   OH228831   3.276   3.352   5.686 -0.3176 -0.0869  0.1118
 2447TIP3    H128832   3.314   3.300   5.615 -0.5765  0.7304 -0.6399
 2447TIP3    H228833   3.326   3.326   5.763  2.1750  1.2964 -0.9092
 2448TIP3   OH228834   2.022   2.984   3.407  0.0163 -0.2225 -0.4152
 2448TIP3    H128835   2.048   3.033   3.486  0.1879  0.3339 -0.8123
 2448TIP3    H228836   1.928   2.969   3.417 -0.2865  1.2620 -0.8622
 2449TIP3   OH228837   3.252   3.663  16.855  0.3764 -0.1041  0.6680
 2449TIP3    H128838   3.165   3.622  16.854  0.3352 -0.0147 -0.2107
 2449TIP3    H228839   3.312   3.589  16.868  0.1443 -0.0958  1.8708
 2450TIP3   OH228840   0.632   6.183   3.146  0.1115  0.1525 -0.1538
 2450TIP3    H128841   0.639   6.104   3.092  1.9126 -1.2409  1.9505
 2450TIP3    H228842   0.546   6.176   3.186  0.4893 -1.1311  0.4963
 2451TIP3   OH228843   3.770   4.890  15.581 -0.3308 -0.5931 -0.4851
 2451TIP3    H128844   3.800   4.874  15.491  2.3810  1.1697 -0.0239
 2451TIP3    H228845   3.733   4.978  15.578  2.7341  0.8790  0.6040
 2452TIP3   OH228846   1.344   0.180  17.051  0.2201  0.4214  0.1413
 2452TIP3    H128847   1.291   0.188  16.971  1.9187 -0.3326 -1.1139
 2452TIP3    H228848   1.302   0.109  17.099  0.1439 -0.2766 -0.9045
 2453TIP3   OH228849   4.831   5.543   5.414  0.6515 -0.0556 -0.7070
 2453TIP3    H128850   4.843   5.635   5.392  1.1811  0.1258  0.2981
 2453TIP3    H228851   4.812   5.543   5.508 -1.3780 -0.8119 -1.0697
 2454TIP3   OH228852   4.310   1.007   1.878 -0.2652 -0.1390  0.3939
 2454TIP3    H128853   4.281   0.957   1.955 -0.5539 -2.6333 -1.2221
 2454TIP3    H228854   4.231   1.050   1.846 -0.1620  0.8347  1.3951
 2455TIP3   OH228855   5.685   2.030   2.144  0.0880  0.3531 -0.0723
 2455TIP3    H128856   5.726   1.950   2.109  1.1577 -0.3019  2.4066
 2455TIP3    H228857   5.726   2.101   2.096  2.3052 -0.4351  0.5042
 2456TIP3   OH228858   1.290   5.118   5.396  0.7206 -0.2817 -0.4697
 2456TIP3    H128859   1.217   5.160   5.441  0.7010 -1.4141  0.6060
 2456TIP3    H228860   1.253   5.087   5.313 -0.0234 -0.7971  0.0383
 2457TIP3   OH228861   2.408   5.518  12.483  0.2726  0.2534  0.5701
 2457TIP3    H128862   2.364   5.496  12.402 -1.9434 -1.7257  2.1761
 2457TIP3    H228863   2.493   5.473  12.477  1.5493  2.7134 -1.8430
 2458TIP3   OH228864   5.992   4.691  10.345 -0.4795  0.5535  0.0795
 2458TIP3    H128865   6.066   4.666  10.288 -0.5608 -0.5784  0.4298
 2458TIP3    H228866   6.004   4.636  10.423 -1.4376  0.6961  0.3299
 2459TIP3   OH228867   1.009   0.271   3.422 -0.2100  0.0295 -0.3590
 2459TIP3    H128868   1.007   0.327   3.500  0.1594  0.3247 -0.5565
 2459TIP3    H228869   1.030   0.331   3.351 -2.1405  0.0633 -0.9610
 2460TIP3   OH228870   3.283   6.088   0.192  0.0690 -0.3918  0.0205
 2460TIP3    H128871   3.299   6.025   0.123 -3.1566 -1.1003 -0.2386
 2460TIP3    H228872   3.216   6.147   0.157 -0.6467  0.0871  2.0107
 2461TIP3   OH228873   2.568   6.678  13.831 -0.5043  0.2268 -0.1068
 2461TIP3    H128874   2.539   6.735  13.902  0.6610  0.6654  0.0337
 2461TIP3    H228875   2.644   6.722  13.794  0.6266 -1.3822  0.2124
 2462TIP3   OH228876   2.708   2.199  12.929 -0.0499  0.0662 -0.0594
 2462TIP3    H128877   2.698   2.189  13.023 -2.3901  1.4037 -0.1156
 2462TIP3    H228878   2.749   2.117  12.901 -0.1510 -0.7320  1.9822
 2463TIP3   OH228879   2.445   0.064   2.081 -0.4389 -0.0692 -0.0862
 2463TIP3    H128880   2.522   0.007   2.086 -0.3080  0.1347  0.2404
 2463TIP3    H228881   2.381   0.012   2.032  0.2654  0.1803 -1.3283
 2464TIP3   OH228882   3.795   2.422  14.216 -0.4765 -0.1901  0.0990
 2464TIP3    H128883   3.847   2.343  14.227 -1.1171 -0.8858 -1.6117
 2464TIP3    H228884   3.736   2.422  14.291  0.9941 -0.1111  1.3238
 2465TIP3   OH228885   4.558   3.714  15.632 -0.8140  0.3258  0.1033
 2465TIP3    H128886   4.571   3.642  15.570 -1.9104  1.0665 -1.0298
 2465TIP3    H228887   4.562   3.793  15.578 -0.3432  1.0915  1.2195
 2466TIP3   OH228888   3.757   4.092   2.073 -0.2076  0.1470 -0.1938
 2466TIP3    H128889   3.834   4.108   2.017 -1.1765 -0.2768 -1.7103
 2466TIP3    H228890   3.682   4.103   2.014 -1.2328 -1.6447  0.6902
 2467TIP3   OH228891   2.162   0.301   1.180  0.1823 -0.0086 -0.2663
 2467TIP3    H128892   2.105   0.230   1.208 -0.2389  0.7702  0.9228
 2467TIP3    H228893   2.136   0.319   1.089  0.5260 -1.5591 -0.6907
 2468TIP3   OH228894   5.036   1.840  16.598 -0.3040 -0.0185 -0.2592
 2468TIP3    H128895   5.004   1.791  16.674 -0.2867 -0.7138 -0.6950
 2468TIP3    H228896   4.958   1.885  16.565 -1.0534 -2.2423 -1.7266
 2469TIP3   OH228897   6.009   4.995   4.983 -0.1988  0.6738 -0.6146
 2469TIP3    H128898   6.067   4.955   5.047 -3.0140  0.4262  2.0030
 2469TIP3    H228899   6.055   4.985   4.899  2.5682 -1.1776  0.9736
 2470TIP3   OH228900   5.959   4.859  15.298  0.6660  0.4489 -0.2685
 2470TIP3    H128901   6.054   4.856  15.313  0.6834 -0.5230 -0.5464
 2470TIP3    H228902   5.927   4.775  15.331  0.2115 -0.1773 -2.2222
 2471TIP3   OH228903   0.347   1.563  14.000  0.3811 -0.7904 -0.2934
 2471TIP3    H128904   0.307   1.645  13.971  2.9061 -0.0963 -2.2469
 2471TIP3    H228905   0.275   1.500  14.002 -1.5318  1.2837  0.6466
 2472TIP3   OH228906   0.385   1.232   4.724  0.1504 -0.0163 -0.3714
 2472TIP3    H128907   0.346   1.209   4.808  0.6990  0.1402 -0.0705
 2472TIP3    H228908   0.433   1.313   4.740  2.3035 -1.2310 -0.2004
 2473TIP3   OH228909   2.989   5.713   0.515  0.3452  0.0322 -0.3140
 2473TIP3    H128910   3.032   5.631   0.490  1.5482  1.3691 -2.9165
 2473TIP3    H228911   3.037   5.781   0.469 -1.2175  2.1714  1.0145
 2474TIP3   OH228912   3.713   2.148   4.990  0.3712  0.1096  0.5404
 2474TIP3    H128913   3.800   2.113   4.971 -0.1162 -1.3004  0.8015
 2474TIP3    H228914   3.728   2.241   5.007  2.2737 -0.5895  3.4382
 2475TIP3   OH228915   4.265   5.337   4.126  0.3263  0.0495 -0.0700
 2475TIP3    H128916   4.261   5.411   4.187 -0.7690 -1.2309  1.4652
 2475TIP3    H228917   4.358   5.312   4.126  0.1094 -1.0840  2.5844
 2476TIP3   OH228918   2.187   3.880  15.502 -0.8558 -0.4850  0.1798
 2476TIP3    H128919   2.120   3.947  15.486 -0.1497  0.6700  1.7962
 2476TIP3    H228920   2.164   3.843  15.587  0.7406  0.2000  0.9498
 2477TIP3   OH228921   2.144   5.399   4.013 -0.7221 -0.5146 -0.1645
 2477TIP3    H128922   2.158   5.401   4.108 -0.3680 -1.4340 -0.1928
 2477TIP3    H228923   2.191   5.322   3.983  0.2684  0.4892 -1.2860
 2478TIP3   OH228924   4.765   2.285  13.826  0.1546  0.5903  0.1725
 2478TIP3    H128925   4.840   2.304  13.881  0.3411  0.3497  0.0061
 2478TIP3    H228926   4.691   2.326  13.870  0.2079 -0.0453  0.8854
 2479TIP3   OH228927   6.608   5.207  10.879  0.0979  0.2599  0.1941
 2479TIP3    H128928   6.539   5.249  10.931 -0.7147 -0.3593 -0.3459
 2479TIP3    H228929   6.561   5.142  10.826  1.1662 -0.4921  0.1404
 2480TIP3   OH228930   5.280   4.356   5.962 -0.0418  0.6604  0.3647
 2480TIP3    H128931   5.191   4.389   5.952  0.0049  0.8158  0.4497
 2480TIP3    H228932   5.308   4.334   5.874 -0.9043 -1.3625  0.5404
 2481TIP3   OH228933   3.559   1.577   0.824 -0.2532 -0.5398 -0.1607
 2481TIP3    H128934   3.636   1.627   0.796 -0.0077 -1.5089 -1.2841
 2481TIP3    H228935   3.594   1.514   0.887 -0.1188 -0.9346 -0.6199
 2482TIP3   OH228936   5.791   2.487  11.154  0.0174  0.2338  0.0146
 2482TIP3    H128937   5.820   2.455  11.069  2.3399  1.3874  0.2713
 2482TIP3    H228938   5.870   2.484  11.208 -0.9625  1.2747  1.5698
 2483TIP3   OH228939   5.007   1.209   4.801  0.4833  0.1988 -0.1095
 2483TIP3    H128940   4.982   1.252   4.883  1.8836 -1.0933  1.0644
 2483TIP3    H228941   4.925   1.197   4.754 -0.5097  0.0558  1.5903
 2484TIP3   OH228942   2.660   0.825  10.770  0.6041 -0.7221 -0.6877
 2484TIP3    H128943   2.724   0.888  10.737  2.0103 -1.9781 -0.4826
 2484TIP3    H228944   2.577   0.851  10.729  1.1017  1.2971 -0.5086
 2485TIP3   OH228945   4.651   5.714   5.193  0.4838  0.3360  0.3156
 2485TIP3    H128946   4.612   5.654   5.257 -0.8204  1.5539  0.7073
 2485TIP3    H228947   4.693   5.782   5.245 -0.5058  1.2859 -0.0863
 2486TIP3   OH228948   2.857   3.498  14.247 -0.0841  0.1609  0.1710
 2486TIP3    H128949   2.923   3.566  14.260 -1.6775  1.3325  2.8609
 2486TIP3    H228950   2.787   3.520  14.308 -1.7711 -2.5584 -0.6136
 2487TIP3   OH228951   1.458   4.400   6.049 -0.0357 -0.0659 -0.0356
 2487TIP3    H128952   1.370   4.408   6.087 -1.0234  1.3351 -2.3313
 2487TIP3    H228953   1.497   4.326   6.094 -1.6433  0.4600  2.4529
 2488TIP3   OH228954   2.303   3.306   0.327 -0.2960  0.1328 -0.0695
 2488TIP3    H128955   2.327   3.366   0.257  1.8110 -0.2634  0.2578
 2488TIP3    H228956   2.365   3.325   0.397 -3.3641  1.7397  2.4976
 2489TIP3   OH228957   5.665   5.901   1.817 -0.2257  0.2548  0.1698
 2489TIP3    H128958   5.628   5.980   1.778 -1.1749 -0.1849  0.1491
 2489TIP3    H228959   5.638   5.904   1.908  0.2266  0.2409  0.3059
 2490TIP3   OH228960   3.740   4.489  16.905 -0.1542  0.4704 -0.4609
 2490TIP3    H128961   3.654   4.473  16.942  0.1838 -0.1974  0.0685
 2490TIP3    H228962   3.754   4.417  16.843  0.4665 -0.0591  0.2758
 2491TIP3   OH228963   2.589   2.227   2.304 -0.1721 -0.1852  0.3575
 2491TIP3    H128964   2.585   2.136   2.332  0.0189 -0.2864  0.0711
 2491TIP3    H228965   2.498   2.257   2.304 -0.1316 -0.0544  1.4688
 2492TIP3   OH228966   0.169   2.868  12.412 -0.0409  0.6734  0.0344
 2492TIP3    H128967   0.171   2.963  12.396  1.0294  0.9599  1.6292
 2492TIP3    H228968   0.247   2.851  12.464 -0.4173 -1.0461  0.0990
 2493TIP3   OH228969   2.043   4.426   3.001  0.6020 -0.2963 -0.6592
 2493TIP3    H128970   2.090   4.403   2.921  0.4586 -0.6012 -0.6592
 2493TIP3    H228971   2.098   4.390   3.071  0.1771 -0.9974 -0.6789
 2494TIP3   OH228972   3.034   5.240  14.733  0.1464  0.4919  0.2390
 2494TIP3    H128973   2.986   5.307  14.684  2.0557  2.3435  0.7460
 2494TIP3    H228974   3.006   5.253  14.824  0.2966  0.3991  0.2978
 2495TIP3   OH228975   5.464   1.008   4.956 -0.2075  0.2720 -0.8559
 2495TIP3    H128976   5.444   0.915   4.943 -0.9020  0.5556 -2.0145
 2495TIP3    H228977   5.380   1.047   4.983 -0.0996  0.6796 -1.0947
 2496TIP3   OH228978   5.402   5.904  14.663 -0.1795 -0.2911 -0.1165
 2496TIP3    H128979   5.397   5.998  14.649  0.9613 -0.1961  0.0667
 2496TIP3    H228980   5.493   5.887  14.687 -0.5073 -1.3537  0.4860
 2497TIP3   OH228981   0.396   3.072  13.631 -0.1202  0.7205 -0.2874
 2497TIP3    H128982   0.369   3.064  13.540 -1.1336 -1.7423  0.1475
 2497TIP3    H228983   0.337   3.138  13.668  0.4647  1.9211 -1.4209
 2498TIP3   OH228984   0.046   6.242   4.861  0.5078  0.5770  0.0418
 2498TIP3    H128985   0.118   6.180   4.851  0.4750  0.0082  2.5337
 2498TIP3    H228986  -0.033   6.189   4.853  0.4766  0.2933  1.7329
 2499TIP3   OH228987   4.473   0.569   0.918 -0.3053  0.1166  0.2566
 2499TIP3    H128988   4.409   0.533   0.857  0.2905 -2.8741  1.2225
 2499TIP3    H228989   4.558   0.550   0.878  0.0410  0.2709  0.8994
 2500TIP3   OH228990   3.355   0.870   0.822  0.0254 -0.0898 -0.7448
 2500TIP3    H128991   3.403   0.953   0.822  1.3120 -0.8078 -0.6347
 2500TIP3    H228992   3.399   0.817   0.756 -0.5161 -0.8523 -0.5057
 2501TIP3   OH228993   6.408   0.256  13.673 -0.2482  0.0778  0.8532
 2501TIP3    H128994   6.435   0.173  13.634  2.1470  0.7343  0.9626
 2501TIP3    H228995   6.449   0.257  13.760  2.2778  2.5500 -0.2324
 2502TIP3   OH228996   1.969   3.118   0.068 -0.7270 -0.6126 -0.3349
 2502TIP3    H128997   1.973   3.075  -0.018 -0.3388 -0.9233 -0.1653
 2502TIP3    H228998   2.041   3.079   0.118 -0.9854 -0.4758  0.1522
 2503TIP3   OH228999   0.310   2.085  13.536  0.4231 -0.0308  0.3496
 2503TIP3    H129000   0.342   2.052  13.452 -1.0269  0.8294 -0.5791
 2503TIP3    H229001   0.354   2.169  13.547 -1.5109  1.2409 -1.0185
 2504TIP3   OH229002   2.381   5.965  12.867 -0.0472 -0.7097  0.5333
 2504TIP3    H129003   2.344   5.908  12.800  0.7049 -0.5273 -0.0593
 2504TIP3    H229004   2.358   5.923  12.950 -1.9796 -0.3283  0.2223
 2505TIP3   OH229005   4.647   1.255  16.163 -0.2897 -0.0866  0.6365
 2505TIP3    H129006   4.561   1.221  16.189 -0.4024  0.8933  1.6201
 2505TIP3    H229007   4.654   1.340  16.207 -0.1399  1.3336 -1.8809
 2506TIP3   OH229008   0.358   2.458  11.533  0.5506  0.1247 -0.5580
 2506TIP3    H129009   0.301   2.445  11.458 -0.4207 -0.8842  0.3172
 2506TIP3    H229010   0.345   2.380  11.587  3.3457 -0.5443 -0.6801
 2507TIP3   OH229011   0.916   0.478   3.159 -0.2923  0.2326 -0.5045
 2507TIP3    H129012   0.913   0.572   3.175  0.4236  0.2740 -0.5454
 2507TIP3    H229013   0.833   0.444   3.191 -0.2293  0.7716  0.2444
 2508TIP3   OH229014   5.115   1.293   2.648 -0.1004 -0.3322  0.5481
 2508TIP3    H129015   5.072   1.364   2.600  1.0298 -0.3025 -0.4774
 2508TIP3    H229016   5.173   1.339   2.710 -1.2681 -0.3744  1.7269
 2509TIP3   OH229017   1.758   2.946   3.433  0.1594 -0.2266 -0.8975
 2509TIP3    H129018   1.748   2.851   3.435  1.0552 -0.3230 -0.3764
 2509TIP3    H229019   1.721   2.973   3.349 -1.0098 -0.9195 -0.6248
 2510TIP3   OH229020   2.222   3.039   2.582 -0.0328 -0.3836  0.2980
 2510TIP3    H129021   2.315   3.057   2.575  0.0040 -0.2843  1.0051
 2510TIP3    H229022   2.181   3.105   2.526  0.3439 -0.7753 -0.4546
 2511TIP3   OH229023   3.584   2.504   3.411 -0.2215  0.0037  0.1086
 2511TIP3    H129024   3.656   2.532   3.354 -0.6300 -1.5412 -1.2445
 2511TIP3    H229025   3.627   2.459   3.483  0.1981 -0.5947 -0.5043
 2512TIP3   OH229026   0.487   2.181   1.011  0.4730 -0.2419  0.2249
 2512TIP3    H129027   0.421   2.205   0.946 -0.2121 -1.0919  0.5781
 2512TIP3    H229028   0.445   2.200   1.096  2.0931  2.7820  0.4758
 2513TIP3   OH229029   4.272   4.413   6.127 -0.4666 -0.0423  0.3257
 2513TIP3    H129030   4.324   4.361   6.066 -1.3223 -0.2430 -0.2437
 2513TIP3    H229031   4.185   4.418   6.087 -0.7946  0.5895  1.0873
 2514TIP3   OH229032   6.083   3.534  13.338  0.5097  0.0548 -0.0806
 2514TIP3    H129033   6.152   3.549  13.273  1.8299  0.2080  1.3251
 2514TIP3    H229034   6.119   3.469  13.397 -1.2075 -1.0937 -0.2249
 2515TIP3   OH229035   0.273   1.882  16.770  0.9092  0.3896  0.4165
 2515TIP3    H129036   0.198   1.932  16.740  0.3372  0.4345  1.8424
 2515TIP3    H229037   0.278   1.807  16.711  1.4814  1.8280 -1.4478
 2516TIP3   OH229038   4.176   1.186  14.043  0.4810 -0.0033 -0.3848
 2516TIP3    H129039   4.228   1.111  14.014  0.1851 -1.1246  1.7783
 2516TIP3    H229040   4.229   1.228  14.110 -0.5411  0.0021  0.4493
 2517TIP3   OH229041   3.143   4.645  17.048 -0.2752 -0.4117 -0.3158
 2517TIP3    H129042   3.188   4.610  17.125 -1.4603  0.7463  0.9564
 2517TIP3    H229043   3.131   4.569  16.991  1.8015 -1.0554 -0.0007
 2518TIP3   OH229044   0.822   1.857   0.655  0.1343  0.0120 -0.1846
 2518TIP3    H129045   0.835   1.904   0.738  2.1914  0.2717 -0.6157
 2518TIP3    H229046   0.782   1.774   0.681  0.0395  0.4019  0.9754
 2519TIP3   OH229047   4.996   2.611  11.457  0.3194  0.2352  0.2945
 2519TIP3    H129048   4.987   2.580  11.367 -0.7111  0.0903  0.4322
 2519TIP3    H229049   4.908   2.602  11.494  0.0204  3.0457  0.4431
 2520TIP3   OH229050   5.460   0.197  15.498 -0.1494  0.1672 -0.1255
 2520TIP3    H129051   5.394   0.262  15.474  2.4012  2.4397 -1.5457
 2520TIP3    H229052   5.412   0.114  15.502 -3.2493  1.8212  0.0688
 2521TIP3   OH229053   3.123   3.917   5.650 -0.8181  0.1359 -0.5333
 2521TIP3    H129054   3.121   3.866   5.731  0.4815  2.2524  0.8995
 2521TIP3    H229055   3.205   3.891   5.608  0.0902  1.3317  0.4394
 2522TIP3   OH229056   5.548   6.467   1.875 -0.3139  0.0890 -0.3891
 2522TIP3    H129057   5.536   6.373   1.887  0.4631  0.1015  0.6100
 2522TIP3    H229058   5.562   6.478   1.781  2.0207 -1.1090 -0.2462
 2523TIP3   OH229059   3.904   4.338  16.317 -0.5031  0.2740 -0.2130
 2523TIP3    H129060   3.988   4.312  16.353 -0.0776 -1.3107 -2.1422
 2523TIP3    H229061   3.923   4.365  16.227 -2.1526 -1.4393 -1.1631
 2524TIP3   OH229062   3.606   6.810  13.610 -0.8397 -0.5067 -0.7091
 2524TIP3    H129063   3.531   6.771  13.656 -0.7170 -0.8727 -0.8134
 2524TIP3    H229064   3.649   6.736  13.568  1.3711 -0.8307  1.8590
 2525TIP3   OH229065   5.190   6.499   4.326 -0.1443  0.3111 -0.2457
 2525TIP3    H129066   5.168   6.417   4.370 -2.1380  0.0746 -1.5717
 2525TIP3    H229067   5.138   6.565   4.372  0.1754  0.5613 -0.2443
 2526TIP3   OH229068   2.122   3.256   5.118  0.5074  0.5768 -0.0800
 2526TIP3    H129069   2.200   3.279   5.068  0.7711 -0.5975 -0.2220
 2526TIP3    H229070   2.143   3.282   5.208  1.5801 -0.8569  0.1228
 2527TIP3   OH229071   0.029   2.517   5.761 -0.1337  0.6206 -1.0696
 2527TIP3    H129072   0.114   2.538   5.723  1.2923 -2.2596  0.2066
 2527TIP3    H229073   0.020   2.577   5.835  0.0706  1.9155 -2.0628
 2528TIP3   OH229074   0.934   1.303   3.787 -0.3467 -0.7825 -1.0671
 2528TIP3    H129075   0.840   1.314   3.803  0.3039  2.4478  1.6736
 2528TIP3    H229076   0.950   1.350   3.705 -0.7813  1.7371  0.1683
 2529TIP3   OH229077   4.973   6.454   1.100  0.1690  0.0511  0.3974
 2529TIP3    H129078   4.954   6.548   1.104  1.1094  0.2274  1.4091
 2529TIP3    H229079   4.957   6.430   1.009  1.6531  1.5994 -0.3322
 2530TIP3   OH229080   5.109   0.937  16.675  0.0181  0.3876  0.1399
 2530TIP3    H129081   5.155   0.988  16.741  1.1969 -0.9429  0.4018
 2530TIP3    H229082   5.019   0.970  16.676  0.3827  1.3820  1.3650
 2531TIP3   OH229083   2.984   3.558   0.186  0.0717 -0.0327 -0.1943
 2531TIP3    H129084   3.007   3.580   0.276  2.1394  0.0982 -0.7162
 2531TIP3    H229085   3.024   3.627   0.133  0.8398 -1.3256 -1.3626
 2532TIP3   OH229086   4.482   1.596  14.801  0.3577 -0.5390  0.4017
 2532TIP3    H129087   4.446   1.680  14.773  1.6515  0.3717  1.3207
 2532TIP3    H229088   4.431   1.530  14.754  1.5770  0.8001 -3.0566
 2533TIP3   OH229089   4.534   5.768  14.242 -0.4582  0.2163 -0.7618
 2533TIP3    H129090   4.622   5.731  14.236  0.0184  1.0148  0.7315
 2533TIP3    H229091   4.478   5.694  14.268 -0.0872 -0.1146 -0.8953
 2534TIP3   OH229092   1.544   2.988  14.607 -0.1694 -0.2374  0.2068
 2534TIP3    H129093   1.609   3.056  14.622 -2.1159  2.0359 -0.9737
 2534TIP3    H229094   1.500   3.014  14.526 -2.6149 -1.5535  1.0060
 2535TIP3   OH229095   1.469   0.575  16.857 -0.1866 -0.1087  0.2135
 2535TIP3    H129096   1.500   0.517  16.926  3.5426  2.7562  1.2696
 2535TIP3    H229097   1.473   0.662  16.895 -2.0042  1.2681 -2.4047
 2536TIP3   OH229098   3.473   4.791   1.979  0.2825 -0.5561 -0.0664
 2536TIP3    H129099   3.539   4.725   1.998  0.5553 -0.4263 -0.5306
 2536TIP3    H229100   3.459   4.784   1.884  0.1210 -0.1328 -0.0778
 2537TIP3   OH229101   3.408   2.478  16.903 -0.6273 -1.2090 -0.2885
 2537TIP3    H129102   3.325   2.518  16.931 -0.3754 -0.1403 -0.9918
 2537TIP3    H229103   3.425   2.410  16.968 -0.2547  0.8883  1.9845
 2538TIP3   OH229104   3.782   1.687  14.411 -0.0259  0.4431  0.1705
 2538TIP3    H129105   3.705   1.729  14.451  0.1135  1.7194 -0.8283
 2538TIP3    H229106   3.857   1.727  14.456  0.0761  0.1186  0.2872
 2539TIP3   OH229107   4.771   3.815   5.487 -0.0031  0.3163 -0.3659
 2539TIP3    H129108   4.849   3.766   5.460  0.1481  0.1608  0.3184
 2539TIP3    H229109   4.710   3.747   5.519 -0.8601  0.3259 -1.8906
 2540TIP3   OH229110   2.987   3.548   6.190  0.2894  0.1804 -0.8418
 2540TIP3    H129111   2.963   3.488   6.260  1.0299  0.6414 -0.1726
 2540TIP3    H229112   2.903   3.576   6.153 -0.0964 -0.3897 -0.4239
 2541TIP3   OH229113   2.266   0.114  12.253 -0.0759 -0.1819 -0.1049
 2541TIP3    H129114   2.224   0.030  12.236 -0.9171  0.0526  0.7316
 2541TIP3    H229115   2.345   0.113  12.199 -1.2493 -0.5543 -1.8840
 2542TIP3   OH229116   6.109   5.519  12.263 -0.4104  1.2970  0.2418
 2542TIP3    H129117   6.172   5.448  12.257  0.9921  2.5626 -0.5688
 2542TIP3    H229118   6.087   5.524  12.356  0.4837  0.6687  0.4973
 2543TIP3   OH229119   6.189   4.462  11.604 -0.8099  0.3246  0.2037
 2543TIP3    H129120   6.160   4.524  11.670 -1.2733  1.1803 -0.7768
 2543TIP3    H229121   6.250   4.404  11.650  1.0011  2.5625  0.7627
 2544TIP3   OH229122   4.890   1.820  14.060  0.7799 -0.5050  0.5740
 2544TIP3    H129123   4.949   1.853  14.128 -0.1201  0.2058  1.0239
 2544TIP3    H229124   4.807   1.806  14.105 -0.2146  1.2322 -0.6277
 2545TIP3   OH229125   0.665   6.607   2.024 -0.0178 -0.3694  0.2264
 2545TIP3    H129126   0.706   6.694   2.028 -1.8929  0.6123 -0.7946
 2545TIP3    H229127   0.616   6.600   2.106 -2.1404  0.7983 -0.8530
 2546TIP3   OH229128   1.986   2.442   3.917  0.2109  0.5978  0.1409
 2546TIP3    H129129   2.011   2.379   3.985  0.0020  2.1562  1.7555
 2546TIP3    H229130   2.042   2.421   3.842 -0.7231 -2.2511  0.1446
 2547TIP3   OH229131   6.070   0.778   4.401  0.2198  0.1375 -0.3332
 2547TIP3    H129132   6.084   0.852   4.460  0.1767 -0.7945  0.8941
 2547TIP3    H229133   5.978   0.782   4.377 -0.3407 -0.7458  1.5083
 2548TIP3   OH229134   2.502   2.436   5.962 -0.9188 -0.3502 -0.2024
 2548TIP3    H129135   2.540   2.349   5.971  2.2670  0.9323 -0.2362
 2548TIP3    H229136   2.463   2.454   6.048 -0.2783 -1.2076  0.2761
 2549TIP3   OH229137   1.886   4.346  11.431  0.2776  0.2025  0.0634
 2549TIP3    H129138   1.897   4.339  11.336 -2.0157 -1.1839 -0.1936
 2549TIP3    H229139   1.848   4.433  11.444  2.7548  1.3597  0.0367
 2550TIP3   OH229140   1.463   6.065   1.359 -0.0378 -0.2617 -0.6088
 2550TIP3    H129141   1.379   6.093   1.395 -0.4932 -1.1403 -0.9584
 2550TIP3    H229142   1.508   6.147   1.337  0.4429  0.3514  2.2857
 2551TIP3   OH229143   0.298   3.211   2.626 -0.6388 -0.0900 -0.6173
 2551TIP3    H129144   0.361   3.225   2.555 -0.0379  0.3968  0.0011
 2551TIP3    H229145   0.320   3.278   2.691  0.8540 -2.4368  1.4453
 2552TIP3   OH229146   1.953   2.022   4.568  0.0637  0.2831 -0.4992
 2552TIP3    H129147   1.972   2.074   4.490  2.8360 -0.8501 -0.7174
 2552TIP3    H229148   1.906   2.082   4.626  0.6435  2.1363 -1.8380
 2553TIP3   OH229149   0.790   0.948   3.640  0.0872  0.0721  0.7073
 2553TIP3    H129150   0.736   1.001   3.581  0.1817  0.2943  0.8206
 2553TIP3    H229151   0.853   0.905   3.583 -1.1200 -1.3291  0.3812
 2554TIP3   OH229152   5.750   3.598   0.436  0.5306  0.4335  0.5000
 2554TIP3    H129153   5.754   3.547   0.355 -1.0003 -0.0909  0.7312
 2554TIP3    H229154   5.662   3.634   0.438  1.0517  1.7584  1.1666
 2555TIP3   OH229155   4.213   2.503   5.457 -0.1138  0.1329  0.4675
 2555TIP3    H129156   4.265   2.550   5.522  0.6901 -0.2247  0.0933
 2555TIP3    H229157   4.122   2.516   5.485  0.2210 -0.0643  1.6887
 2556TIP3   OH229158   4.028   6.290   0.381  0.0454  1.1862  0.2405
 2556TIP3    H129159   3.954   6.298   0.441 -0.6143  0.9697 -0.5333
 2556TIP3    H229160   4.014   6.358   0.315  1.1037  1.8412  0.6611
 2557TIP3   OH229161   0.428   6.417  11.561  0.1160  0.5676  0.1253
 2557TIP3    H129162   0.413   6.335  11.514 -0.0559 -0.3729  1.7471
 2557TIP3    H229163   0.355   6.473  11.533  0.8835  0.6317 -1.8962
 2558TIP3   OH229164   2.953   6.237  12.176  0.1471 -0.1054 -0.4720
 2558TIP3    H129165   2.938   6.224  12.270  2.7369 -0.2769 -0.0290
 2558TIP3    H229166   2.866   6.227  12.137 -0.6483 -2.5859  1.6110
 2559TIP3   OH229167   2.469   6.142  15.834  0.3489 -0.3548  0.3065
 2559TIP3    H129168   2.518   6.160  15.754 -1.4052 -0.8279 -0.9395
 2559TIP3    H229169   2.377   6.153  15.809 -0.4310 -3.1392  1.5034
 2560TIP3   OH229170   6.009   0.432  15.977  0.4002  0.0097 -0.8829
 2560TIP3    H129171   5.944   0.385  16.030  0.4181 -0.0732 -0.9347
 2560TIP3    H229172   5.957   0.478  15.911  0.0896  2.5091  0.9869
 2561TIP3   OH229173   5.703   3.384  16.044 -0.0638 -1.1198  0.6201
 2561TIP3    H129174   5.788   3.394  16.088  0.3117 -2.2076  0.1770
 2561TIP3    H229175   5.724   3.380  15.951 -0.6881 -0.5817  0.4485
 2562TIP3   OH229176   1.097   4.678  14.958 -0.3967  0.6728 -0.3488
 2562TIP3    H129177   1.120   4.651  14.869 -1.7778 -0.6445 -0.3476
 2562TIP3    H229178   1.004   4.699  14.953 -1.0592 -1.5434  1.2139
 2563TIP3   OH229179   1.197   3.786   1.198  0.1856 -0.4576 -0.6890
 2563TIP3    H129180   1.148   3.764   1.277  1.3606  1.6802  0.7142
 2563TIP3    H229181   1.239   3.704   1.172  0.2047 -1.0946  1.2155
 2564TIP3   OH229182   4.535   3.629   3.530  0.0138 -0.0724  0.2817
 2564TIP3    H129183   4.546   3.552   3.585  0.8561 -0.5022 -0.4696
 2564TIP3    H229184   4.490   3.692   3.586 -1.4041 -1.3723  0.6641
 2565TIP3   OH229185   1.238   0.546   4.768  0.5016  0.9744  0.6554
 2565TIP3    H129186   1.209   0.579   4.683  1.0162  0.5990  0.3235
 2565TIP3    H229187   1.217   0.616   4.830 -3.5725 -0.2502  0.9506
 2566TIP3   OH229188   2.000   1.288  12.176 -0.0158 -0.2740 -0.0631
 2566TIP3    H129189   2.045   1.347  12.115 -2.2173 -1.0384 -2.6367
 2566TIP3    H229190   1.936   1.344  12.221 -1.1772 -0.3381 -1.5277
 2567TIP3   OH229191   6.525   2.713  15.271 -0.3766 -0.1547 -0.0069
 2567TIP3    H129192   6.618   2.737  15.272 -0.3567 -0.2077 -0.4164
 2567TIP3    H229193   6.523   2.628  15.227 -0.7525  0.4334 -1.1756
 2568TIP3   OH229194   0.520   1.880   4.424  0.2696  0.3438  0.5347
 2568TIP3    H129195   0.601   1.912   4.384  0.1573  0.5642  0.4820
 2568TIP3    H229196   0.476   1.959   4.456 -1.0458  0.5004 -1.4979
 2569TIP3   OH229197   0.785   3.654  10.664  0.2288  0.0670 -0.4054
 2569TIP3    H129198   0.845   3.581  10.653 -0.4126 -0.3534 -1.2888
 2569TIP3    H229199   0.793   3.704  10.582 -0.9797 -0.2793 -0.7591
 2570TIP3   OH229200   1.095   3.913   0.337 -0.1261 -0.0050 -0.0337
 2570TIP3    H129201   1.159   3.855   0.296 -0.0978  0.0257 -0.0324
 2570TIP3    H229202   1.148   3.979   0.383 -0.1621  0.3714 -0.5269
 2571TIP3   OH229203   6.025   4.652   4.714  0.2326 -0.0250  0.7620
 2571TIP3    H129204   6.029   4.556   4.722  0.3886 -0.0567  0.3301
 2571TIP3    H229205   5.974   4.667   4.635  3.7491  0.1442 -1.7212
 2572TIP3   OH229206   4.799   5.666  15.620 -0.7924 -0.0426 -0.5351
 2572TIP3    H129207   4.717   5.667  15.570 -0.6563  0.4842 -0.7538
 2572TIP3    H229208   4.772   5.651  15.710 -1.0290 -1.2181 -0.7828
 2573TIP3   OH229209   1.363   1.191   3.013  0.5176 -0.7352 -0.5184
 2573TIP3    H129210   1.277   1.228   2.993  1.6613  1.7659 -1.1965
 2573TIP3    H229211   1.418   1.218   2.939  2.2167 -1.0423  0.5819
 2574TIP3   OH229212   3.071   0.825  12.924 -0.0226 -0.1669 -0.1204
 2574TIP3    H129213   3.119   0.778  12.856 -0.4214 -0.0121 -0.5096
 2574TIP3    H229214   3.136   0.840  12.993  0.7687  0.9640 -1.0903
 2575TIP3   OH229215   2.940   5.318  10.985  0.2239 -0.7340 -0.0457
 2575TIP3    H129216   2.981   5.353  11.064  2.2988 -0.9167 -0.9730
 2575TIP3    H229217   2.896   5.238  11.014 -3.7887  1.8538  1.9227
 2576TIP3   OH229218   4.522   6.190  15.913  0.0611  0.4535  0.2708
 2576TIP3    H129219   4.608   6.182  15.955 -0.1690 -0.5339  0.5852
 2576TIP3    H229220   4.470   6.240  15.975 -0.0020 -0.1846  0.7398
 2577TIP3   OH229221   4.249   5.758   1.837 -0.1500  0.0449 -0.2465
 2577TIP3    H129222   4.312   5.829   1.845  0.8226 -0.8071 -0.2036
 2577TIP3    H229223   4.172   5.789   1.885 -0.3409  1.7110 -1.5566
 2578TIP3   OH229224   2.231   0.903  12.580  0.2301 -0.2641  0.0217
 2578TIP3    H129225   2.314   0.876  12.540 -0.0913 -0.1817 -0.7186
 2578TIP3    H229226   2.239   0.997  12.592 -0.1173 -0.0983 -0.9486
 2579TIP3   OH229227   1.630   2.904  17.145 -0.0860  0.0817 -0.3893
 2579TIP3    H129228   1.693   2.850  17.099 -0.3559 -0.6453  0.0803
 2579TIP3    H229229   1.562   2.922  17.081 -0.1174 -0.3429 -0.4717
 2580TIP3   OH229230   0.018   6.767  12.565 -0.2185 -0.0538 -0.2058
 2580TIP3    H129231  -0.017   6.843  12.613 -0.8866 -1.3211  1.4286
 2580TIP3    H229232  -0.060   6.719  12.538  0.1683 -1.7855  1.5667
 2581TIP3   OH229233   5.041   2.208  11.327 -0.1570 -0.1591 -0.6545
 2581TIP3    H129234   4.975   2.264  11.287 -0.3534 -0.3006 -0.5350
 2581TIP3    H229235   5.120   2.222  11.275 -0.7170 -1.2318 -1.8288
 2582TIP3   OH229236   3.135   3.348  11.168  0.1688  0.0873 -1.1001
 2582TIP3    H129237   3.121   3.427  11.115 -0.2779  0.3437 -0.6085
 2582TIP3    H229238   3.063   3.290  11.143  0.7568 -0.3606 -1.8005
 2583TIP3   OH229239   2.098   5.436   2.885  1.0199  0.0593 -0.4730
 2583TIP3    H129240   2.115   5.462   2.795  1.9264 -1.0708 -0.6572
 2583TIP3    H229241   2.106   5.341   2.884  1.2789  0.0472  0.8445
 2584TIP3   OH229242   5.719   2.767  14.435 -0.4594  0.1855 -0.2568
 2584TIP3    H129243   5.762   2.806  14.360 -0.2567 -0.3138 -0.4015
 2584TIP3    H229244   5.632   2.742  14.403 -0.9392  1.3528  0.0806
 2585TIP3   OH229245   6.422   0.777   0.742  0.2338 -0.2958 -0.0582
 2585TIP3    H129246   6.497   0.835   0.756 -0.6630  0.8769  0.0619
 2585TIP3    H229247   6.403   0.784   0.649 -1.6172  1.9209  0.3784
 2586TIP3   OH229248   4.437   1.784   2.480 -0.4277  0.0979 -0.0588
 2586TIP3    H129249   4.523   1.818   2.504 -0.6654 -0.0920  1.1241
 2586TIP3    H229250   4.451   1.690   2.468 -0.1817  0.2867 -1.3205
 2587TIP3   OH229251   1.521   2.434   2.420 -0.0629  0.5682 -0.5447
 2587TIP3    H129252   1.508   2.492   2.345 -0.8402  0.9448 -0.1328
 2587TIP3    H229253   1.580   2.366   2.388 -0.5744  0.5874 -1.5765
 2588TIP3   OH229254   3.800   3.957   2.593 -0.1046  0.0034  0.2831
 2588TIP3    H129255   3.835   3.911   2.670  0.0225 -0.0081  0.2174
 2588TIP3    H229256   3.877   3.984   2.544 -0.1935 -0.2858 -0.0169
 2589TIP3   OH229257   1.411   5.541  13.924  0.2799  0.7707 -0.6472
 2589TIP3    H129258   1.324   5.580  13.919  0.2660  0.8309  0.0313
 2589TIP3    H229259   1.404   5.461  13.871 -0.0793  0.9664 -0.9011
 2590TIP3   OH229260   3.158   1.537  14.704  1.0225 -0.2523  0.1557
 2590TIP3    H129261   3.082   1.587  14.673  1.8769  0.3387 -1.0734
 2590TIP3    H229262   3.184   1.484  14.629  2.0845 -0.1265  0.4215
 2591TIP3   OH229263   6.751   2.095   4.231  0.0407  0.0597  0.6306
 2591TIP3    H129264   6.694   2.106   4.307  0.1698  1.2460  0.5737
 2591TIP3    H229265   6.820   2.035   4.261 -0.8187 -0.8140  0.9189
 2592TIP3   OH229266   5.870   1.393   1.224 -0.4331  0.1046 -0.6224
 2592TIP3    H129267   5.840   1.478   1.258 -1.4360  0.1062 -1.4474
 2592TIP3    H229268   5.850   1.332   1.295  1.1362  0.6603  0.3485
 2593TIP3   OH229269   3.532   1.597   5.281 -0.5723 -0.3309  0.1914
 2593TIP3    H129270   3.500   1.687   5.278  0.5391  0.0943  0.6251
 2593TIP3    H229271   3.590   1.594   5.357  0.7807 -0.9205 -0.8095
 2594TIP3   OH229272   5.001   1.854   2.380 -0.6408  0.6998 -0.7047
 2594TIP3    H129273   4.979   1.926   2.320  1.4705 -0.0686 -2.5467
 2594TIP3    H229274   5.031   1.784   2.323  0.4777 -0.4632  1.2093
 2595TIP3   OH229275   1.810   6.622  11.735 -0.5858 -0.3777 -0.9177
 2595TIP3    H129276   1.837   6.542  11.779  2.4423  1.1007  0.1954
 2595TIP3    H229277   1.784   6.681  11.806 -1.2723  0.1734 -1.6025
 2596TIP3   OH229278   3.061   5.942  15.642  0.0688 -0.4183  0.4667
 2596TIP3    H129279   3.025   5.921  15.729 -0.2392  0.0324  0.4554
 2596TIP3    H229280   3.029   6.031  15.625  1.8492  0.3320  0.8013
 2597TIP3   OH229281   2.968   2.367   1.233  0.6035 -0.1376 -0.0464
 2597TIP3    H129282   2.919   2.401   1.308 -0.7312  0.8963 -1.3477
 2597TIP3    H229283   2.954   2.272   1.237 -0.4102  0.0142  0.3683
 2598TIP3   OH229284   0.792   1.166  11.469 -0.7405  0.4733 -0.1009
 2598TIP3    H129285   0.812   1.256  11.494 -0.6066  0.8404 -1.4576
 2598TIP3    H229286   0.877   1.126  11.452 -0.8122  0.1419  0.2998
 2599TIP3   OH229287   6.190   0.692   3.049 -0.1307  0.3935 -0.8137
 2599TIP3    H129288   6.261   0.627   3.049 -0.4120  0.0230  1.0703
 2599TIP3    H229289   6.138   0.669   3.126 -1.6682  1.3487 -1.5374
 2600TIP3   OH229290   3.335   1.330   1.387  0.1489 -0.0409 -0.1709
 2600TIP3    H129291   3.290   1.292   1.312  0.1855 -1.5440  0.5432
 2600TIP3    H229292   3.363   1.255   1.439  1.2540  0.9399  0.6950
 2601TIP3   OH229293   5.087   0.425   5.836  0.3914  0.0779 -0.0297
 2601TIP3    H129294   5.156   0.472   5.791  0.3664  0.2875  0.1454
 2601TIP3    H229295   5.124   0.340   5.856 -0.6941 -1.3916 -3.4987
 2602TIP3   OH229296   1.959   0.005   6.763 -0.2482 -0.3258 -0.2265
 2602TIP3    H129297   1.875  -0.015   6.722  0.6139  0.0720 -2.3208
 2602TIP3    H229298   1.951   0.096   6.792  0.1390  0.4899 -2.4620
 2603TIP3   OH229299   0.656   2.576   1.037  0.0917 -0.5646  0.0477
 2603TIP3    H129300   0.739   2.622   1.026 -0.1845 -0.1867 -0.4895
 2603TIP3    H229301   0.597   2.641   1.075  0.4369 -1.2534  1.8730
 2604TIP3   OH229302   4.005   5.595  12.919 -0.9595 -0.0311  0.2045
 2604TIP3    H129303   3.910   5.592  12.931 -1.2202  1.1106 -1.3240
 2604TIP3    H229304   4.029   5.686  12.933 -0.2830 -0.0521 -0.6752
 2605TIP3   OH229305   2.893   0.990   3.409 -0.3074  0.1288  0.0976
 2605TIP3    H129306   2.893   0.998   3.505 -1.4271 -0.2503  0.1462
 2605TIP3    H229307   2.970   1.039   3.381 -0.9758  1.8501  1.0643
 2606TIP3   OH229308   5.343   3.218   5.950  0.0791 -0.0682 -0.1921
 2606TIP3    H129309   5.275   3.161   5.986  0.9478 -2.5108 -2.1139
 2606TIP3    H229310   5.423   3.192   5.996  0.1394  1.2135  0.4708
 2607TIP3   OH229311   5.719   0.313  15.841 -0.5751 -0.3430  0.1662
 2607TIP3    H129312   5.729   0.277  15.929 -0.2627 -0.5791  0.0367
 2607TIP3    H229313   5.659   0.386  15.852  0.2845  0.3015  0.7625
 2608TIP3   OH229314   0.674   5.356  16.708 -0.0827 -0.3535  0.4323
 2608TIP3    H129315   0.713   5.385  16.790 -1.2495 -0.2160  0.9649
 2608TIP3    H229316   0.748   5.342  16.650  0.6643  1.4221  0.8908
 2609TIP3   OH229317   4.759   0.137   1.091 -0.0038 -0.8075  0.8349
 2609TIP3    H129318   4.758   0.057   1.038  0.8976 -0.0739 -0.3599
 2609TIP3    H229319   4.849   0.144   1.122 -0.0553 -0.2246  0.8597
 2610TIP3   OH229320   0.534   2.510   0.767  0.2472  0.0925 -0.2378
 2610TIP3    H129321   0.601   2.444   0.751 -1.3748 -1.9597  0.8124
 2610TIP3    H229322   0.546   2.535   0.859 -2.2073 -2.6720  0.9905
 2611TIP3   OH229323   4.991   5.645  13.313  0.0963  0.1453 -0.1891
 2611TIP3    H129324   5.041   5.721  13.344 -1.4788  1.6702 -1.2071
 2611TIP3    H229325   4.989   5.655  13.218  2.0690 -2.6613 -0.6556
 2612TIP3   OH229326   2.664   2.218  11.869  0.5005  0.2971  0.6715
 2612TIP3    H129327   2.714   2.240  11.790  1.2488 -0.4704  0.9203
 2612TIP3    H229328   2.652   2.302  11.913 -0.1498  0.7732 -0.3811
 2613TIP3   OH229329   0.803   3.446   1.163  0.0643 -0.3413 -0.8958
 2613TIP3    H129330   0.879   3.436   1.106 -0.0491  2.5015 -1.6732
 2613TIP3    H229331   0.837   3.486   1.243 -0.5337  0.6620 -1.1246
 2614TIP3   OH229332   6.160   6.604   2.432 -0.3683 -0.2089  0.0844
 2614TIP3    H129333   6.103   6.681   2.427  0.4485  0.6519  2.4868
 2614TIP3    H229334   6.248   6.640   2.437  0.0318 -1.2848  1.3147
 2615TIP3   OH229335   4.237   5.896  12.041 -0.6986  0.4933  0.2614
 2615TIP3    H129336   4.252   5.915  12.134 -1.1467  0.6563  0.3014
 2615TIP3    H229337   4.289   5.818  12.024 -0.9141  0.2383  0.7487
 2616TIP3   OH229338   5.673   1.215  13.374 -0.4552  0.6861 -0.2119
 2616TIP3    H129339   5.634   1.233  13.460 -0.1785 -0.4801  0.1731
 2616TIP3    H229340   5.767   1.206  13.392 -0.4572 -0.0938 -0.5400
 2617TIP3   OH229341   1.470   6.360  12.433 -0.2045  0.3994 -0.1479
 2617TIP3    H129342   1.480   6.449  12.399  0.1517  0.7269  0.7720
 2617TIP3    H229343   1.558   6.323  12.430 -0.4406 -0.1174 -1.0132
 2618TIP3   OH229344   2.363   0.046   1.047  0.0133  0.5851 -0.1601
 2618TIP3    H129345   2.367  -0.048   1.062  1.0545  0.5188 -0.7542
 2618TIP3    H229346   2.269   0.067   1.045 -0.2136 -0.2438  1.0589
 2619TIP3   OH229347   1.766   6.140   3.097 -0.7920  0.0481  0.1755
 2619TIP3    H129348   1.703   6.068   3.095  1.1901 -1.8085 -2.0393
 2619TIP3    H229349   1.814   6.132   3.015  1.1536  2.4751  0.9462
 2620TIP3   OH229350   2.336   5.971   3.859  0.1671  0.0209 -0.1738
 2620TIP3    H129351   2.425   5.991   3.887 -0.5594  1.6762  1.1693
 2620TIP3    H229352   2.325   6.016   3.776  0.0607  1.3229  0.5205
 2621TIP3   OH229353   6.021   4.733   6.244 -0.5411  0.4650 -0.1590
 2621TIP3    H129354   5.970   4.676   6.302 -0.2816 -0.2211 -0.5892
 2621TIP3    H229355   6.091   4.676   6.211  3.0081  2.2558  3.4099
 2622TIP3   OH229356   1.509   3.929  12.775 -0.2057  0.0063 -0.0428
 2622TIP3    H129357   1.573   3.866  12.809 -0.8484 -0.4641  0.3211
 2622TIP3    H229358   1.445   3.939  12.846 -0.4813  0.5560 -0.3581
 2623TIP3   OH229359   5.741   4.239  14.027  0.3854 -0.1132  0.1625
 2623TIP3    H129360   5.736   4.148  13.997  0.9735 -0.3519  0.7698
 2623TIP3    H229361   5.733   4.291  13.947  2.4090 -0.7313 -0.5044
 2624TIP3   OH229362   1.974   3.303  15.015 -0.0737 -0.1422  0.3056
 2624TIP3    H129363   1.936   3.287  15.102  0.3433 -0.6376  0.3971
 2624TIP3    H229364   1.959   3.397  15.000 -0.7658 -0.1938  0.6091
 2625TIP3   OH229365   4.659   1.782  12.294 -0.2059 -0.1586  0.4466
 2625TIP3    H129366   4.599   1.713  12.267  0.0672 -0.7487  1.3004
 2625TIP3    H229367   4.613   1.827  12.365 -0.1007  0.1029  0.3485
 2626TIP3   OH229368   2.618   3.510   3.032 -0.0129  0.0135  0.8817
 2626TIP3    H129369   2.676   3.584   3.051  1.2182 -0.7034  0.0514
 2626TIP3    H229370   2.569   3.537   2.955  0.1898  0.1008  0.7819
 2627TIP3   OH229371   3.563   0.351  12.687  0.3378 -0.1526 -0.0721
 2627TIP3    H129372   3.586   0.259  12.675  0.5404 -0.0932 -0.1506
 2627TIP3    H229373   3.503   0.352  12.761  2.3130 -0.0782  1.6314
 2628TIP3   OH229374   2.852   2.499  11.347 -0.1621 -0.4496 -0.0376
 2628TIP3    H129375   2.775   2.528  11.298  0.4476  1.4051  0.0561
 2628TIP3    H229376   2.922   2.558  11.319  0.3702  0.2688  2.5643
 2629TIP3   OH229377   4.482   1.228  15.503  0.1776 -0.0064 -0.0944
 2629TIP3    H129378   4.490   1.324  15.508 -3.0008  0.5387 -2.4303
 2629TIP3    H229379   4.446   1.203  15.588  0.2946  0.9763  0.2554
 2630TIP3   OH229380   5.077   5.144  15.326 -0.0748  0.3723 -0.3362
 2630TIP3    H129381   5.117   5.209  15.383 -0.2402 -0.4329  0.7396
 2630TIP3    H229382   5.104   5.169  15.238  2.3391  0.1974  0.2879
 2631TIP3   OH229383   3.206   2.684  13.305  0.6749 -0.6631 -0.2752
 2631TIP3    H129384   3.227   2.772  13.275 -0.3695 -1.2377 -2.9610
 2631TIP3    H229385   3.249   2.626  13.242 -3.1058 -1.9322 -1.9946
 2632TIP3   OH229386   2.749   4.160  16.479  0.4518  0.1056  0.1864
 2632TIP3    H129387   2.809   4.230  16.505  1.3260 -0.0516 -1.3026
 2632TIP3    H229388   2.703   4.136  16.560  0.7275  1.8213  0.8858
 2633TIP3   OH229389   3.321   1.890  13.702 -0.1495  0.1580  0.5440
 2633TIP3    H129390   3.371   1.918  13.779  0.2337 -0.7133  0.6217
 2633TIP3    H229391   3.229   1.899  13.729 -0.0374  1.0757  0.6524
 2634TIP3   OH229392   5.409   3.848   0.290  0.0913  0.4931 -0.0050
 2634TIP3    H129393   5.403   3.755   0.265 -0.8131  0.5726 -0.1390
 2634TIP3    H229394   5.374   3.851   0.379 -0.2803  0.7619 -0.1580
 2635TIP3   OH229395   3.126   3.682   1.891  0.0527  0.1801 -0.0203
 2635TIP3    H129396   3.032   3.674   1.873  0.0161 -1.2444  0.6912
 2635TIP3    H229397   3.132   3.745   1.963 -0.3117  0.6717 -0.4181
 2636TIP3   OH229398   0.904   1.778   3.106  0.1724  0.2899 -0.4391
 2636TIP3    H129399   0.965   1.840   3.147  1.5985 -1.3109 -0.0204
 2636TIP3    H229400   0.960   1.708   3.072 -1.3770 -0.8180 -0.8469
 2637TIP3   OH229401   2.395   6.714  15.262  0.1516  0.2604  0.4221
 2637TIP3    H129402   2.333   6.785  15.246 -0.7746 -0.6307 -0.0728
 2637TIP3    H229403   2.359   6.640  15.213  0.9020 -0.6556  1.2182
 2638TIP3   OH229404   0.145   5.357   0.116  0.0467 -0.0695  0.1201
 2638TIP3    H129405   0.195   5.316   0.186 -0.0838 -0.9646 -0.2989
 2638TIP3    H229406   0.108   5.284   0.067 -1.1964  0.5691  0.0759
 2639TIP3   OH229407   1.983   1.229  15.142 -0.5191  0.1111  0.4799
 2639TIP3    H129408   1.906   1.195  15.096 -1.3754  1.1455  1.0651
 2639TIP3    H229409   2.057   1.185  15.102 -1.3489 -0.2177 -0.7638
 2640TIP3   OH229410   0.047   2.465   2.488  0.0896  0.3828  0.2139
 2640TIP3    H129411   0.006   2.385   2.521  0.3489  0.1350 -0.0664
 2640TIP3    H229412   0.004   2.481   2.404  0.1227  0.4736  0.2145
 2641TIP3   OH229413   4.416   2.835   1.564 -0.3927 -0.2881 -0.1120
 2641TIP3    H129414   4.365   2.775   1.619 -0.8171 -0.1454 -0.3452
 2641TIP3    H229415   4.352   2.871   1.502  0.0476 -0.3361 -0.6062
 2642TIP3   OH229416   2.126   6.662  10.266  0.4239 -0.5465 -0.0287
 2642TIP3    H129417   2.045   6.673  10.316 -0.3671  1.7977 -1.6432
 2642TIP3    H229418   2.193   6.707  10.318  0.4186 -1.2726  0.6273
 2643TIP3   OH229419   1.275   4.194  14.928 -0.3531  0.5552 -0.0361
 2643TIP3    H129420   1.241   4.226  15.011  1.2376 -0.8655  1.2586
 2643TIP3    H229421   1.198   4.179  14.874 -1.7380 -1.4287  2.2972
 2644TIP3   OH229422   2.211   6.304  15.736  0.5964 -0.5625 -0.6436
 2644TIP3    H129423   2.161   6.323  15.656  1.9421 -1.7563 -1.8371
 2644TIP3    H229424   2.169   6.227  15.773  0.3653 -0.4028 -0.5774
 2645TIP3   OH229425   2.077   1.091  14.446 -0.0471  0.1936  0.3655
 2645TIP3    H129426   2.122   1.053  14.371 -3.1153 -2.1042 -0.5247
 2645TIP3    H229427   2.120   1.175  14.459  0.6438  0.7790 -4.0088
 2646TIP3   OH229428   3.235   1.112  12.083 -0.4897  0.5439 -0.1953
 2646TIP3    H129429   3.327   1.131  12.099  0.0224 -2.8389  1.9606
 2646TIP3    H229430   3.233   1.076  11.995  0.2056  0.8404 -0.3391
 2647TIP3   OH229431   3.029   2.612   1.693  0.4640  0.0446 -0.1333
 2647TIP3    H129432   3.026   2.705   1.668  1.1072  0.2549  0.5379
 2647TIP3    H229433   2.947   2.597   1.740  0.4802  0.3515 -0.0033
 2648TIP3   OH229434   2.836   3.917   5.949  0.3847  0.3211  0.2786
 2648TIP3    H129435   2.914   3.969   5.966  0.0653  0.4763  1.3445
 2648TIP3    H229436   2.859   3.862   5.874  2.0782 -0.7658  1.5247
 2649TIP3   OH229437   4.409   3.387   5.410 -0.8466 -0.7594 -0.3215
 2649TIP3    H129438   4.350   3.408   5.337 -1.2516  1.1973  0.5026
 2649TIP3    H229439   4.355   3.338   5.472 -0.6944 -1.7825 -0.9601
 2650TIP3   OH229440   1.867   4.581  13.205 -0.0012 -0.3477  0.0240
 2650TIP3    H129441   1.864   4.605  13.112  0.8106 -0.0377  0.0633
 2650TIP3    H229442   1.957   4.600  13.231 -0.2505 -0.3319  0.9055
 2651TIP3   OH229443   1.670   6.687   1.324  0.3182  0.6833  0.0347
 2651TIP3    H129444   1.649   6.639   1.403  0.6856  2.2886  1.1624
 2651TIP3    H229445   1.756   6.654   1.297  1.4648  1.9778  1.8870
 2652TIP3   OH229446   5.484   0.834   0.019  0.4533 -0.7272 -0.2529
 2652TIP3    H129447   5.450   0.745   0.015 -1.6431 -0.1711  2.4442
 2652TIP3    H229448   5.428   0.885  -0.040  1.3465 -1.0423 -1.4169
 2653TIP3   OH229449   5.370   4.456  14.753 -0.1533 -0.2808 -0.4610
 2653TIP3    H129450   5.456   4.414  14.754 -0.8167 -1.7092 -0.9555
 2653TIP3    H229451   5.309   4.385  14.773 -1.2274  0.6993 -0.2016
 2654TIP3   OH229452   1.327   0.109  10.939  0.1969  0.0648 -0.5619
 2654TIP3    H129453   1.356   0.059  11.016 -0.7491  1.6217  0.8809
 2654TIP3    H229454   1.408   0.135  10.895  0.7530 -0.8317 -0.0979
 2655TIP3   OH229455   4.134   4.150  15.133 -0.0102  0.6948 -0.4081
 2655TIP3    H129456   4.112   4.243  15.126  1.5312  1.1010 -0.2517
 2655TIP3    H229457   4.151   4.136  15.226  0.7465  0.5112 -0.5645
 2656TIP3   OH229458   4.500   1.590  17.092  0.1119  0.1463  0.2043
 2656TIP3    H129459   4.457   1.582  17.007 -0.2517  1.1801  0.2863
 2656TIP3    H229460   4.523   1.499  17.115 -0.9077 -0.2861 -0.4067
 2657TIP3   OH229461   1.027   3.555   3.912 -0.4814 -0.5037 -0.3793
 2657TIP3    H129462   1.082   3.607   3.970 -0.7233 -1.1946  0.4999
 2657TIP3    H229463   1.080   3.541   3.834 -0.9127  2.2233 -1.2711
 2658TIP3   OH229464   3.374   4.836   5.223  1.2232 -0.4738  0.0604
 2658TIP3    H129465   3.408   4.747   5.223  2.3447 -0.1010 -1.7469
 2658TIP3    H229466   3.309   4.836   5.152  2.2243  0.4561 -0.8930
 2659TIP3   OH229467   3.761   2.248   4.044 -0.6905 -0.0736 -0.0452
 2659TIP3    H129468   3.844   2.264   4.089 -0.1039 -0.9989 -0.7717
 2659TIP3    H229469   3.709   2.199   4.106  0.3517 -1.9100 -0.5362
 2660TIP3   OH229470   3.204   3.790  14.826  0.3047 -0.1525  0.1842
 2660TIP3    H129471   3.268   3.823  14.888 -0.9352  1.5748  0.6161
 2660TIP3    H229472   3.226   3.698  14.815  1.2482 -0.2257  2.3062
 2661TIP3   OH229473   3.711   0.982   5.809 -0.3083 -0.1659 -0.4019
 2661TIP3    H129474   3.626   1.016   5.781  0.2182  0.6710 -1.0310
 2661TIP3    H229475   3.775   1.041   5.768  0.6324 -1.8161 -1.3989
 2662TIP3   OH229476   4.541   5.338   1.376  0.4144  0.3405  0.3355
 2662TIP3    H129477   4.551   5.310   1.284 -1.5458 -0.2014  0.2434
 2662TIP3    H229478   4.547   5.433   1.373 -0.1440  0.3608 -0.4508
 2663TIP3   OH229479   2.175   6.059  12.497 -0.2569  0.3537 -0.0310
 2663TIP3    H129480   2.243   6.035  12.434 -0.7944 -1.6481  0.0737
 2663TIP3    H229481   2.223   6.104  12.567  0.7307  0.3141 -0.6500
 2664TIP3   OH229482   4.407   1.881   0.687 -0.3429 -0.3367  0.0552
 2664TIP3    H129483   4.485   1.846   0.730 -0.9602 -0.7009  0.9098
 2664TIP3    H229484   4.393   1.966   0.730 -1.3675 -1.0138  1.1025
 2665TIP3   OH229485   2.199   6.487   1.530  0.2933  0.1209  0.2590
 2665TIP3    H129486   2.159   6.570   1.553  0.6727  0.7181 -1.1438
 2665TIP3    H229487   2.125   6.427   1.517  0.0003  0.3904  0.6605
 2666TIP3   OH229488   5.747   1.621   3.825  0.1023 -0.6562  0.1003
 2666TIP3    H129489   5.670   1.669   3.853 -0.1122 -1.0069  0.1056
 2666TIP3    H229490   5.750   1.543   3.880  0.6234 -0.5009  0.3008
 2667TIP3   OH229491   3.166   2.557   1.192  0.6489 -0.0824  0.2771
 2667TIP3    H129492   3.099   2.489   1.198  1.8414 -1.4384 -1.0999
 2667TIP3    H229493   3.196   2.568   1.283  0.6405 -1.6093  0.4877
 2668TIP3   OH229494   0.034   4.386  12.439 -0.3717  0.3617  0.2759
 2668TIP3    H129495   0.116   4.399  12.391 -1.7977  1.1472 -2.1008
 2668TIP3    H229496   0.040   4.447  12.512  0.4579  1.7197 -0.8593
 2669TIP3   OH229497   6.408   6.518  14.425  0.0462 -0.1609 -0.1622
 2669TIP3    H129498   6.492   6.526  14.381  0.5896  2.5363  1.2009
 2669TIP3    H229499   6.427   6.533  14.517 -1.3239 -3.8946  0.9375
 2670TIP3   OH229500   2.481   1.086   4.330  0.3300 -0.1127  0.4552
 2670TIP3    H129501   2.569   1.080   4.367  1.0727  0.4190 -1.1430
 2670TIP3    H229502   2.445   1.167   4.367  1.5126  1.0457 -0.8246
 2671TIP3   OH229503   0.664   2.686  10.795 -0.3602 -0.3246 -0.1525
 2671TIP3    H129504   0.669   2.595  10.825  0.2389  0.0105  0.8083
 2671TIP3    H229505   0.577   2.715  10.824 -0.4069 -0.4804 -0.1339
 2672TIP3   OH229506   5.892   2.603  14.108  0.3178 -0.6862  0.0764
 2672TIP3    H129507   5.944   2.631  14.184 -0.4690  1.4173 -0.1055
 2672TIP3    H229508   5.913   2.510  14.098  0.6388 -0.9927  2.7269
 2673TIP3   OH229509   1.344   2.341   5.494  0.0569  0.5414 -0.1979
 2673TIP3    H129510   1.262   2.382   5.466 -0.2401 -0.6582 -1.1639
 2673TIP3    H229511   1.391   2.324   5.413  1.1911  1.0360  0.3405
 2674TIP3   OH229512   2.196   4.296  13.261 -0.4695  0.5400 -0.1320
 2674TIP3    H129513   2.233   4.209  13.242  2.6329  1.7124 -0.0693
 2674TIP3    H229514   2.119   4.278  13.315 -1.5354 -2.2396 -2.3258
 2675TIP3   OH229515   5.054   4.274  13.285 -0.5075  0.3282  0.5783
 2675TIP3    H129516   5.109   4.254  13.209 -2.5674 -1.1724 -0.6106
 2675TIP3    H229517   5.113   4.263  13.360  1.4320  1.2504 -0.7114
 2676TIP3   OH229518   1.603   3.479   3.084 -0.0930  0.1230 -0.2490
 2676TIP3    H129519   1.657   3.401   3.076  0.5129  0.5642 -0.5989
 2676TIP3    H229520   1.532   3.454   3.143  0.3388 -0.5569 -0.0074
 2677TIP3   OH229521   4.758   0.805  16.455  0.4190 -0.4186  0.7823
 2677TIP3    H129522   4.816   0.779  16.384  0.9005  0.3307  0.8882
 2677TIP3    H229523   4.740   0.898  16.438 -1.5909 -0.8748  0.1670
 2678TIP3   OH229524   6.362   4.545   5.069 -0.4734  0.5165 -0.4106
 2678TIP3    H129525   6.361   4.458   5.108 -0.6088  1.2486  1.3155
 2678TIP3    H229526   6.278   4.553   5.025 -0.5989 -0.1017 -0.2851
 2679TIP3   OH229527   4.333   3.007  13.232  0.8968 -0.7127 -0.5244
 2679TIP3    H129528   4.375   2.923  13.250  0.0567 -0.8906  0.7236
 2679TIP3    H229529   4.403   3.072  13.240  1.0981 -1.0719  0.8231
 2680TIP3   OH229530   0.619   3.697  12.147 -0.7482 -0.4848 -0.3456
 2680TIP3    H129531   0.577   3.780  12.167 -1.3263 -0.8959  0.2172
 2680TIP3    H229532   0.550   3.632  12.157  0.4405 -1.4825  2.9513
 2681TIP3   OH229533   6.213   5.191   4.399 -0.3120  0.6891  0.4205
 2681TIP3    H129534   6.127   5.181   4.440 -0.0225  0.6962  1.0413
 2681TIP3    H229535   6.254   5.264   4.446 -0.0096  0.7625  0.0522
 2682TIP3   OH229536   4.046   0.482  14.627 -0.5874 -0.3534 -0.4002
 2682TIP3    H129537   4.073   0.416  14.691 -1.6066 -1.3509 -0.9523
 2682TIP3    H229538   4.074   0.445  14.543 -2.5128 -0.8660 -0.8723
 2683TIP3   OH229539   6.744   3.256  10.367  0.2690  0.2384 -0.2596
 2683TIP3    H129540   6.756   3.250  10.462  2.1098  3.1428 -0.1797
 2683TIP3    H229541   6.705   3.342  10.353  0.0598 -0.1191 -2.1348
 2684TIP3   OH229542   2.329   3.413  13.428 -0.7988  0.7046 -0.5155
 2684TIP3    H129543   2.296   3.328  13.456 -0.1424  1.2594  2.2657
 2684TIP3    H229544   2.418   3.396  13.398 -0.0204  0.5760  1.7106
 2685TIP3   OH229545   1.177   5.945   1.420 -0.2836 -0.2425 -0.7084
 2685TIP3    H129546   1.109   5.882   1.394  1.1084 -1.5046 -1.4302
 2685TIP3    H229547   1.151   6.027   1.378 -0.9959 -0.8714 -1.5449
 2686TIP3   OH229548   2.459   6.760  12.624  0.1446  0.3714  0.1120
 2686TIP3    H129549   2.457   6.685  12.684  1.1731  0.7489  0.6208
 2686TIP3    H229550   2.526   6.738  12.560  1.2150  1.3200  0.8804
 2687TIP3   OH229551   3.457   4.101   1.626 -0.1541 -0.2237 -0.5060
 2687TIP3    H129552   3.377   4.071   1.669  0.5456 -1.3413  0.0652
 2687TIP3    H229553   3.486   4.025   1.575 -0.2453  0.6528 -1.9047
 2688TIP3   OH229554   3.279   1.291   1.734 -0.3535  0.1163  0.1155
 2688TIP3    H129555   3.184   1.296   1.745 -0.6567 -0.6457 -1.8520
 2688TIP3    H229556   3.297   1.199   1.717  1.0993 -0.2304  2.8919
 2689TIP3   OH229557   6.579   3.328   4.770 -0.2965  0.2680 -0.5734
 2689TIP3    H129558   6.529   3.347   4.691 -0.5796  0.1129 -0.4374
 2689TIP3    H229559   6.517   3.280   4.826  0.2554 -0.6188 -0.7212
 2690TIP3   OH229560   0.221   4.175  14.138  0.6852  0.3188  0.3836
 2690TIP3    H129561   0.250   4.257  14.179  1.8868 -0.0674  0.3389
 2690TIP3    H229562   0.130   4.192  14.113  0.5085  1.1958  1.5322
 2691TIP3   OH229563   2.158   2.642  16.982  0.0571  0.0644 -0.2380
 2691TIP3    H129564   2.162   2.556  17.025 -0.4182  0.1527 -0.0061
 2691TIP3    H229565   2.171   2.623  16.889  0.6171 -0.1818 -0.1146
 2692TIP3   OH229566   3.128   3.625   5.316  0.0408 -0.1214 -0.0961
 2692TIP3    H129567   3.142   3.636   5.222  1.3426 -0.9571 -0.0315
 2692TIP3    H229568   3.036   3.647   5.329  0.0892  1.0248 -1.3901
 2693TIP3   OH229569   6.514   6.052   6.860 -0.1746 -0.5052 -0.3589
 2693TIP3    H129570   6.535   6.053   6.766  1.8350  1.0960  0.0366
 2693TIP3    H229571   6.584   6.001   6.900  0.6758  1.3117  0.5626
 2694TIP3   OH229572   4.790   4.660  13.232 -0.3078  0.6607  0.5203
 2694TIP3    H129573   4.745   4.728  13.282 -0.7451  1.0314 -0.3561
 2694TIP3    H229574   4.808   4.701  13.147  0.1351 -0.0570  0.2608
 2695TIP3   OH229575   6.384   6.637   5.082  0.4466 -0.6042  0.2626
 2695TIP3    H129576   6.402   6.605   5.171  0.6876  0.5289  0.6351
 2695TIP3    H229577   6.463   6.614   5.032  1.1543  0.4766  0.8369
 2696TIP3   OH229578   0.912   4.620   3.926  0.2845 -0.6279  0.2029
 2696TIP3    H129579   0.906   4.671   3.845 -0.5267  1.1546  1.3188
 2696TIP3    H229580   0.847   4.659   3.984  0.5802 -2.0973  1.6043
 2697TIP3   OH229581   1.551   3.827  16.828 -0.7615 -0.3880  0.2666
 2697TIP3    H129582   1.548   3.747  16.775 -1.7783 -0.2695  0.1370
 2697TIP3    H229583   1.476   3.820  16.887 -0.5640  0.2400  0.6066
 2698TIP3   OH229584   1.847   1.781   6.795  0.4742  0.4000 -0.0579
 2698TIP3    H129585   1.801   1.827   6.865 -0.7013 -2.8935  1.5169
 2698TIP3    H229586   1.783   1.775   6.724  0.0873 -0.0889  0.3240
 2699TIP3   OH229587   4.938   3.514   2.284  0.6819 -0.1402 -0.4771
 2699TIP3    H129588   4.857   3.494   2.332 -0.0386  1.0622 -1.1461
 2699TIP3    H229589   4.996   3.441   2.304 -0.4857 -0.9155  0.2070
 2700TIP3   OH229590   1.007   1.964  15.417 -0.0119 -0.3573 -0.0770
 2700TIP3    H129591   1.019   2.010  15.501  1.1988 -0.8221  0.0203
 2700TIP3    H229592   0.938   2.014  15.373 -0.2835  0.2276  0.9579
 2701TIP3   OH229593   4.956   1.338   5.043  0.2670 -0.9492  0.5628
 2701TIP3    H129594   4.925   1.426   5.060  1.5905 -0.6385  1.5874
 2701TIP3    H229595   4.929   1.287   5.120 -0.1542 -1.3568  0.1558
 2702TIP3   OH229596   1.256   5.948   5.663  0.4461  0.1813  0.3679
 2702TIP3    H129597   1.209   6.024   5.697  1.4937  0.2074  1.8444
 2702TIP3    H229598   1.346   5.979   5.650  0.9925 -0.8857  1.3968
 2703TIP3   OH229599   0.958   0.841  14.667 -0.3784 -0.3147 -0.3265
 2703TIP3    H129600   0.870   0.848  14.631  0.0328 -1.2211 -1.5696
 2703TIP3    H229601   1.010   0.905  14.619 -0.5324  0.8926  1.0575
 2704TIP3   OH229602   5.501   6.086   0.443 -0.1453  0.3008  0.4872
 2704TIP3    H129603   5.576   6.035   0.413 -1.7372 -2.5291  0.9688
 2704TIP3    H229604   5.533   6.135   0.519  1.6742  0.7816 -0.5293
 2705TIP3   OH229605   4.595   1.674   0.418 -0.0886 -0.0881  0.2786
 2705TIP3    H129606   4.611   1.591   0.374  2.9365  0.2667  0.5438
 2705TIP3    H229607   4.501   1.690   0.405 -0.1266 -1.9265 -2.5755
 2706TIP3   OH229608   3.958   1.369  11.415  0.5451  0.1188  0.7217
 2706TIP3    H129609   3.876   1.321  11.413  0.4638  0.2821 -0.0996
 2706TIP3    H229610   3.957   1.422  11.335  1.1458  0.6222  1.0383
 2707TIP3   OH229611   5.571   3.396   2.139 -0.5888  0.0122  0.0891
 2707TIP3    H129612   5.634   3.441   2.194  0.7612 -0.3623 -1.0888
 2707TIP3    H229613   5.504   3.363   2.200  1.1459 -0.9122  1.5916
 2708TIP3   OH229614   3.324   1.922  14.140  0.0884 -0.1675  0.5898
 2708TIP3    H129615   3.388   1.889  14.077 -0.8200  1.0664 -1.0499
 2708TIP3    H229616   3.351   2.012  14.156 -0.9223  0.2122  0.2540
 2709TIP3   OH229617   4.325   1.799   4.686  0.1581 -0.0081  0.6093
 2709TIP3    H129618   4.399   1.746   4.717 -1.0119 -2.0372  0.1467
 2709TIP3    H229619   4.253   1.737   4.679  0.1299  0.0999 -5.9380
 2710TIP3   OH229620   6.119   2.938   2.239  0.1536  0.1255  0.3136
 2710TIP3    H129621   6.037   2.896   2.211 -0.9519  2.1517  0.3200
 2710TIP3    H229622   6.172   2.942   2.159 -1.4439  2.4458 -0.7280
 2711TIP3   OH229623   5.951   4.282   0.053 -0.2954 -0.6316 -0.6821
 2711TIP3    H129624   5.986   4.344  -0.011 -2.7441 -1.8525 -3.4342
 2711TIP3    H229625   6.028   4.241   0.091  1.3215  1.8435 -1.0714
 2712TIP3   OH229626   4.472   3.582  12.646  0.1127  0.6987  0.2845
 2712TIP3    H129627   4.425   3.518  12.699  1.2620  0.1660  0.6927
 2712TIP3    H229628   4.502   3.648  12.710  0.2515  0.8279  0.0872
 2713TIP3   OH229629   3.023   6.381   4.827 -0.1049 -0.0020  0.3414
 2713TIP3    H129630   3.110   6.389   4.789 -0.1430  2.1713  0.5933
 2713TIP3    H229631   2.991   6.297   4.796  1.0664  0.3077 -1.8871
 2714TIP3   OH229632   0.358   6.393   3.127  0.0482  0.4798 -0.1284
 2714TIP3    H129633   0.426   6.382   3.193 -0.1261  0.4280  0.0473
 2714TIP3    H229634   0.365   6.315   3.072 -0.3064  0.1352  0.2995
 2715TIP3   OH229635   1.651   3.697   6.367 -0.5286 -0.0317 -0.0294
 2715TIP3    H129636   1.638   3.608   6.333 -2.1557  0.5513 -1.0481
 2715TIP3    H229637   1.698   3.742   6.297 -1.0463  0.3025 -0.1687
 2716TIP3   OH229638   1.054   2.696   4.326 -0.1883 -0.6224 -0.0377
 2716TIP3    H129639   1.090   2.624   4.274  0.4463 -0.5851  0.3322
 2716TIP3    H229640   0.959   2.685   4.320 -0.1029 -1.2673 -0.2927
 2717TIP3   OH229641   0.389   3.288   0.858 -0.2962  0.1925  0.1712
 2717TIP3    H129642   0.420   3.306   0.769  0.7907  0.8714  0.6648
 2717TIP3    H229643   0.469   3.284   0.911 -0.9626  0.3249  1.2133
 2718TIP3   OH229644   1.334   2.834   1.216  0.3425  0.0257  0.3621
 2718TIP3    H129645   1.289   2.906   1.260  1.1948  0.2472  0.8842
 2718TIP3    H229646   1.427   2.848   1.234  0.4993 -1.4399  0.8401
 2719TIP3   OH229647   1.271   6.249   0.960 -0.3745  0.3494 -0.3090
 2719TIP3    H129648   1.323   6.212   0.888  0.2641 -0.4773  0.5492
 2719TIP3    H229649   1.221   6.175   0.993  1.4976 -0.0207  1.9388
 2720TIP3   OH229650   2.790   0.185  13.179 -0.3162  0.4356  0.7253
 2720TIP3    H129651   2.800   0.163  13.272 -1.4177 -1.5163  0.4314
 2720TIP3    H229652   2.852   0.128  13.134 -1.5324 -0.4629  0.1142
 2721TIP3   OH229653   6.398   5.828  11.089 -0.4327 -0.2700  0.5037
 2721TIP3    H129654   6.356   5.913  11.074 -0.0526 -0.2014 -0.1935
 2721TIP3    H229655   6.385   5.812  11.182  2.3672  2.1381  1.4717
 2722TIP3   OH229656   1.587   5.255   0.070  0.0609 -0.1435  0.2253
 2722TIP3    H129657   1.589   5.280   0.162  0.4618  1.4835 -0.1940
 2722TIP3    H229658   1.654   5.187   0.062 -1.3394 -1.7503  1.4839
 2723TIP3   OH229659   5.246   1.400  15.732 -0.3343  0.1543 -0.2883
 2723TIP3    H129660   5.316   1.423  15.794  1.0962 -0.5144 -1.5843
 2723TIP3    H229661   5.260   1.307  15.715 -1.5259  0.0310 -0.6353
 2724TIP3   OH229662   4.611   1.983  16.715  0.2617 -0.0223 -0.4409
 2724TIP3    H129663   4.581   1.961  16.803  0.9902  0.5726 -0.0368
 2724TIP3    H229664   4.590   1.905  16.663 -0.8843 -0.0889  0.0720
 2725TIP3   OH229665   6.073   2.504   3.024 -0.1218  0.3370  0.8383
 2725TIP3    H129666   5.996   2.459   3.059 -0.3874 -0.6910 -0.9318
 2725TIP3    H229667   6.037   2.578   2.976  0.1207  0.7658  1.3088
 2726TIP3   OH229668   2.664   0.601   2.215 -0.4291 -0.0310 -0.3043
 2726TIP3    H129669   2.698   0.512   2.212 -1.3257 -0.3642 -1.0995
 2726TIP3    H229670   2.630   0.616   2.127  1.7070  1.9127 -0.9210
 2727TIP3   OH229671   5.483   6.764   3.316 -0.1991 -0.4042  0.1837
 2727TIP3    H129672   5.530   6.761   3.233 -0.7473  1.4712 -0.2157
 2727TIP3    H229673   5.541   6.813   3.375 -0.4625 -0.4517  0.4896
 2728TIP3   OH229674   5.300   2.974   3.196  0.2866  0.2231 -0.0114
 2728TIP3    H129675   5.298   3.067   3.173  0.3382  0.0289 -0.8365
 2728TIP3    H229676   5.232   2.964   3.263  0.2356  0.8416  0.0322
 2729TIP3   OH229677   2.097   3.345  11.614  0.0238  0.3190  0.2333
 2729TIP3    H129678   2.097   3.386  11.527 -0.3788  1.0629  0.5731
 2729TIP3    H229679   2.050   3.407  11.669  1.8558  0.7532  1.3976
 2730TIP3   OH229680   0.713   4.975   3.631  0.3153 -0.6724  0.3730
 2730TIP3    H129681   0.736   5.041   3.566  0.2766 -0.2644  0.7719
 2730TIP3    H229682   0.619   4.963   3.622  0.3967 -1.0314 -0.0307
 2731TIP3   OH229683   4.274   4.210   2.652 -0.1481  0.2543 -0.4333
 2731TIP3    H129684   4.329   4.132   2.656 -0.9164 -0.3215 -0.8424
 2731TIP3    H229685   4.335   4.281   2.631  0.4309 -0.3715 -0.9082
 2732TIP3   OH229686   0.732   2.923  12.999  0.3052  0.4370 -0.0490
 2732TIP3    H129687   0.742   2.852  13.063  0.2623 -1.2974 -1.8401
 2732TIP3    H229688   0.638   2.939  12.996  0.4119  1.5081  1.2546
 2733TIP3   OH229689   4.852   2.988   0.037  0.0637 -0.0123 -0.9536
 2733TIP3    H129690   4.804   2.998   0.119 -0.2786  1.2819 -1.2885
 2733TIP3    H229691   4.883   3.076   0.016  1.8879 -0.6658 -1.1888
 2734TIP3   OH229692   3.253   4.532   5.025 -0.6051 -0.3263  0.0753
 2734TIP3    H129693   3.297   4.555   5.106  1.0526 -1.6779 -0.3854
 2734TIP3    H229694   3.271   4.439   5.012  1.1914  0.2961 -2.9600
 2735TIP3   OH229695   2.306   0.970   0.890  0.5784  0.4234 -0.4139
 2735TIP3    H129696   2.274   1.021   0.815  0.1921  0.8222  0.0160
 2735TIP3    H229697   2.318   0.882   0.855  0.4674  0.6218 -0.9637
 2736TIP3   OH229698   0.228   6.421   4.157 -0.0221  0.5822 -0.7162
 2736TIP3    H129699   0.199   6.465   4.077  2.6345  1.0776 -1.5405
 2736TIP3    H229700   0.321   6.402   4.141  0.6321  0.7311  2.2687
 2737TIP3   OH229701   1.872   3.240   4.617 -0.0670 -0.2861 -0.5398
 2737TIP3    H129702   1.889   3.230   4.523  0.6398 -1.0456 -0.3504
 2737TIP3    H229703   1.829   3.158   4.642 -1.5180  0.4749 -0.4506
 2738TIP3   OH229704   1.753   1.352   6.056  0.2164 -0.4706 -0.1097
 2738TIP3    H129705   1.771   1.258   6.063  1.0091 -0.2541  0.9291
 2738TIP3    H229706   1.839   1.393   6.052 -0.0856  0.2939  0.7990
 2739TIP3   OH229707   6.295   5.697  13.381 -0.8177  0.5128 -0.0525
 2739TIP3    H129708   6.298   5.755  13.457 -0.7815  0.0867  0.2732
 2739TIP3    H229709   6.202   5.688  13.361 -0.9043 -0.2821  0.6482
 2740TIP3   OH229710   0.285   0.018   3.793 -0.2417  0.3619  0.7191
 2740TIP3    H129711   0.244   0.019   3.707 -0.0730 -0.5030  0.6278
 2740TIP3    H229712   0.361   0.075   3.784 -0.6904  0.9559  0.5414
 2741TIP3   OH229713   5.054   0.682   0.189 -0.6580  0.2972  1.0040
 2741TIP3    H129714   5.073   0.624   0.263 -0.7190  1.4260  1.9388
 2741TIP3    H229715   4.973   0.647   0.151 -0.5986 -0.3238  1.4295
 2742TIP3   OH229716   1.996   2.293  13.061 -0.4096 -0.2554  0.3710
 2742TIP3    H129717   1.976   2.386  13.048 -1.1671 -0.0700  2.4679
 2742TIP3    H229718   2.090   2.291  13.080  0.4390 -0.4003 -3.1895
 2743TIP3   OH229719   5.281   4.559   1.415 -0.0459 -0.3831  0.2846
 2743TIP3    H129720   5.356   4.535   1.360 -0.1258 -0.2306  0.1073
 2743TIP3    H229721   5.245   4.475   1.443 -1.1609 -0.5406 -1.4564
 2744TIP3   OH229722   5.635   2.188  17.081 -0.2002 -0.1268  0.1075
 2744TIP3    H129723   5.678   2.263  17.123 -0.3115  0.1648 -0.2944
 2744TIP3    H229724   5.632   2.211  16.988  0.8140 -1.1366 -0.2078
 2745TIP3   OH229725   5.333   5.734   1.371  0.1122  0.2914 -0.5788
 2745TIP3    H129726   5.280   5.788   1.313 -2.2269 -1.8151 -0.5627
 2745TIP3    H229727   5.399   5.694   1.313  0.8622  1.8631 -0.8552
 2746TIP3   OH229728   0.173   2.450   0.056  0.6319 -0.7246  0.4084
 2746TIP3    H129729   0.229   2.480  -0.015  1.4366  0.8539  1.6236
 2746TIP3    H229730   0.230   2.395   0.110  1.1138  0.9196  1.6704
 2747TIP3   OH229731   4.607   0.183   4.922  0.3132  0.3445 -0.4670
 2747TIP3    H129732   4.590   0.161   4.831 -1.2217  0.5086 -0.2422
 2747TIP3    H229733   4.588   0.103   4.971 -1.0041  0.8642 -0.0903
 2748TIP3   OH229734   1.272   5.176  16.924 -0.0485  0.3010  0.1618
 2748TIP3    H129735   1.355   5.182  16.876 -0.3124 -1.0211 -0.5442
 2748TIP3    H229736   1.250   5.266  16.947  1.4445  0.6995  0.1319
 2749TIP3   OH229737   5.037   6.645  14.914 -0.2244  0.4242  0.1721
 2749TIP3    H129738   5.112   6.688  14.875  1.2501 -0.7618  1.5769
 2749TIP3    H229739   5.020   6.694  14.994 -0.5255  0.2743  0.2042
 2750TIP3   OH229740   1.373   6.743   0.521 -0.3916 -0.2301 -0.3016
 2750TIP3    H129741   1.465   6.758   0.502 -0.7282  1.3953 -0.9132
 2750TIP3    H229742   1.369   6.725   0.614  0.7078 -2.1481 -0.5930
 2751TIP3   OH229743   1.278   2.368  15.444 -0.2193  0.3999 -0.4299
 2751TIP3    H129744   1.210   2.375  15.512  0.7808 -1.3852  0.8710
 2751TIP3    H229745   1.273   2.277  15.415  0.9815  0.4944 -1.0040
 2752TIP3   OH229746   0.039   3.591  14.802  0.2338 -0.2351  0.0563
 2752TIP3    H129747   0.131   3.592  14.777  0.2120 -1.8498 -0.2360
 2752TIP3    H229748  -0.003   3.657  14.746  1.1510  0.2830 -0.0281
 2753TIP3   OH229749   1.334   1.567  12.512  0.1548  0.6633  0.5933
 2753TIP3    H129750   1.238   1.572  12.509  0.0609 -0.8166  0.3353
 2753TIP3    H229751   1.359   1.622  12.586 -1.0653 -0.6441  2.0343
 2754TIP3   OH229752   2.632   1.651  17.085 -0.1962  0.1155 -0.8418
 2754TIP3    H129753   2.652   1.557  17.081 -2.9323 -0.7229  1.4825
 2754TIP3    H229754   2.537   1.655  17.073 -0.0191  2.7797 -2.0400
 2755TIP3   OH229755   6.516   6.780  15.679  0.5200 -0.2223 -0.5307
 2755TIP3    H129756   6.482   6.716  15.741 -0.3536  0.4712 -0.2802
 2755TIP3    H229757   6.576   6.834  15.730 -1.0053  1.0252  0.0132
 2756TIP3   OH229758   2.924   2.267  14.066 -0.2256  0.1511 -0.1827
 2756TIP3    H129759   2.992   2.335  14.071 -0.1539  0.1130 -0.6559
 2756TIP3    H229760   2.965   2.189  14.103  0.2545 -0.0849 -1.1892
 2757TIP3   OH229761   2.659   5.964  12.257  0.6029 -0.3352 -0.0663
 2757TIP3    H129762   2.679   5.873  12.232  0.2901 -0.7538  1.1100
 2757TIP3    H229763   2.730   5.988  12.316  1.9866  1.0525 -2.1857
 2758TIP3   OH229764   4.606   0.985  15.576  0.3622 -0.4189  0.1799
 2758TIP3    H129765   4.568   1.067  15.543  0.0054 -0.2371  1.0183
 2758TIP3    H229766   4.683   1.013  15.625 -0.1182 -0.5262  1.0056
 2759TIP3   OH229767   5.604   1.273   2.604 -0.2736  0.2089 -0.3392
 2759TIP3    H129768   5.588   1.348   2.547  0.9367 -0.1303 -1.1865
 2759TIP3    H229769   5.689   1.239   2.575  0.8071  0.5105  2.2090
 2760TIP3   OH229770   4.264   6.010   4.283  0.4074 -0.0534  0.8504
 2760TIP3    H129771   4.274   5.947   4.212 -0.7047 -0.8720  1.4040
 2760TIP3    H229772   4.196   5.973   4.340 -1.4527  2.3691  0.3703
 2761TIP3   OH229773   4.980   4.971   4.831 -0.1755 -0.0348  0.3977
 2761TIP3    H129774   5.013   4.881   4.838 -0.3165 -0.0151  1.6332
 2761TIP3    H229775   4.983   4.991   4.738  2.8122 -0.2372  0.3495
 2762TIP3   OH229776   4.309   3.536   0.923 -0.0475 -0.1771 -0.3213
 2762TIP3    H129777   4.250   3.601   0.962  0.5029  0.4805 -0.5516
 2762TIP3    H229778   4.345   3.581   0.846  1.3153 -0.2935  0.2393
 2763TIP3   OH229779   3.346   5.344  16.905 -0.0007 -0.4398  0.0549
 2763TIP3    H129780   3.364   5.282  16.835 -0.9830 -0.8188  0.1132
 2763TIP3    H229781   3.432   5.368  16.940  0.5112 -0.0259 -1.4525
 2764TIP3   OH229782   6.175   4.117  15.100  0.6158 -0.5192 -0.9076
 2764TIP3    H129783   6.198   4.050  15.165  1.4004  0.5362 -0.0665
 2764TIP3    H229784   6.080   4.124  15.105  0.7008 -0.1044  0.5011
 2765TIP3   OH229785   1.783   5.009  13.743  0.2838  0.4270 -0.2861
 2765TIP3    H129786   1.767   5.046  13.830 -0.6081 -0.2107 -0.1568
 2765TIP3    H229787   1.822   4.924  13.760  1.5209  0.9231 -0.5605
 2766TIP3   OH229788   3.696   3.930   0.227 -0.2544 -0.1094  0.1518
 2766TIP3    H129789   3.666   3.958   0.313  1.4787  0.9650  0.4572
 2766TIP3    H229790   3.672   3.837   0.222 -1.4213  0.1023  1.2914
 2767TIP3   OH229791   3.734   3.120   3.186  0.4463  0.5933  0.5922
 2767TIP3    H129792   3.810   3.088   3.235  0.1533 -1.2446 -0.0791
 2767TIP3    H229793   3.662   3.117   3.249  0.6798  1.2541  0.9054
 2768TIP3   OH229794   3.862   4.194  15.826 -0.3073 -0.5490  0.7029
 2768TIP3    H129795   3.935   4.194  15.887  0.6866  0.0641 -0.4443
 2768TIP3    H229796   3.786   4.170  15.879  0.8783 -2.2915  1.7151
 2769TIP3   OH229797   4.779   1.049   2.984  0.2085  0.1534  0.7972
 2769TIP3    H129798   4.857   1.068   2.931  0.2179  0.7823  1.0246
 2769TIP3    H229799   4.735   0.979   2.937  0.9428 -0.2578  0.6988
 2770TIP3   OH229800   0.580   1.087  15.147  0.1840 -0.6361  0.0318
 2770TIP3    H129801   0.632   1.096  15.067 -0.0764  1.3168  0.0440
 2770TIP3    H229802   0.642   1.052  15.211  1.5000  1.4461 -0.0025
 2771TIP3   OH229803   0.016   4.417  13.231  0.0816  0.5452 -0.6620
 2771TIP3    H129804   0.065   4.371  13.163  0.7439 -0.0973  0.2234
 2771TIP3    H229805  -0.035   4.483  13.184  1.4445  0.9285 -1.6735
 2772TIP3   OH229806   4.361   5.837  15.531 -0.5086  0.0191 -0.4191
 2772TIP3    H129807   4.313   5.871  15.455 -1.2720 -0.5178 -0.1950
 2772TIP3    H229808   4.294   5.791  15.582  0.3421 -1.0861 -0.2878
 2773TIP3   OH229809   0.379   0.795   2.570 -0.1787 -0.4953  0.3686
 2773TIP3    H129810   0.307   0.764   2.626 -2.2914 -0.2810 -2.0702
 2773TIP3    H229811   0.361   0.757   2.484  1.9077  0.6771 -0.6654
 2774TIP3   OH229812   3.572   5.629  14.698  0.4732  0.4140 -0.4441
 2774TIP3    H129813   3.653   5.579  14.710 -0.4004 -0.9696 -0.2211
 2774TIP3    H229814   3.597   5.719  14.719  1.5563 -0.2453  1.2922
 2775TIP3   OH229815   2.436   0.990  12.402 -0.1220 -0.4089  0.6865
 2775TIP3    H129816   2.379   1.066  12.394 -1.3047 -1.2931  0.4095
 2775TIP3    H229817   2.522   1.020  12.371 -0.6429  0.7125  0.2932
 2776TIP3   OH229818   5.609   4.463  13.573 -0.2935 -0.0732  0.0896
 2776TIP3    H129819   5.533   4.467  13.515  0.9647  0.8444 -1.6100
 2776TIP3    H229820   5.647   4.376  13.557  0.5613  0.5023 -1.2429
 2777TIP3   OH229821   6.059   1.440  12.274  0.2002 -0.2110 -0.0288
 2777TIP3    H129822   5.970   1.455  12.242  0.0925  0.3380  0.5049
 2777TIP3    H229823   6.108   1.413  12.196 -0.3918 -0.3617 -0.3582
 2778TIP3   OH229824   6.696   5.435   0.952  0.2616  0.3759 -0.1457
 2778TIP3    H129825   6.643   5.508   0.920 -0.4424 -0.2044 -0.3420
 2778TIP3    H229826   6.786   5.465   0.944  0.0377  0.8131 -1.2690
 2779TIP3   OH229827   2.209   2.826   0.045 -0.2943 -0.0762  0.0505
 2779TIP3    H129828   2.130   2.868   0.009  0.1011  0.4032 -0.2653
 2779TIP3    H229829   2.241   2.771  -0.027 -0.9417 -1.1395  0.5341
 2780TIP3   OH229830   5.189   4.597  16.611 -0.1053  0.2474  0.5780
 2780TIP3    H129831   5.114   4.586  16.670 -2.2792 -0.2300 -2.0612
 2780TIP3    H229832   5.229   4.510  16.608  1.4667  0.7853  2.9548
 2781TIP3   OH229833   3.886   2.450  15.240  0.0200 -0.0298  0.5408
 2781TIP3    H129834   3.917   2.360  15.232  0.7459  0.1807  0.9008
 2781TIP3    H229835   3.957   2.496  15.284  0.5070  1.1818 -1.4296
 2782TIP3   OH229836   5.155   5.337  16.504 -0.1714 -0.5994  0.0748
 2782TIP3    H129837   5.249   5.345  16.518 -0.1332  2.4276 -1.1754
 2782TIP3    H229838   5.147   5.298  16.417  0.1486  2.3943 -1.4461
 2783TIP3   OH229839   5.781   3.255  15.522 -0.8254 -0.1602 -1.0436
 2783TIP3    H129840   5.835   3.325  15.484 -0.6135  0.4356  0.3083
 2783TIP3    H229841   5.745   3.209  15.446 -0.9347  1.3872 -1.9827
 2784TIP3   OH229842   4.935   5.382  11.440 -0.0567  0.2957  0.2797
 2784TIP3    H129843   4.909   5.434  11.364  1.5974  1.4453  0.4400
 2784TIP3    H229844   5.029   5.367  11.427 -0.0500 -0.7598  1.3748
 2785TIP3   OH229845   6.387   4.252  14.610 -0.2320 -0.2183 -0.0893
 2785TIP3    H129846   6.434   4.334  14.626  1.3187 -1.1311  0.2677
 2785TIP3    H229847   6.392   4.239  14.516 -0.1881 -0.0702 -0.1079
 2786TIP3   OH229848   0.335   4.856  10.228 -0.1530 -0.3991 -0.3801
 2786TIP3    H129849   0.249   4.812  10.225  0.3828 -1.4192 -2.9043
 2786TIP3    H229850   0.314   4.948  10.244 -1.7442 -0.6212 -0.9584
 2787TIP3   OH229851   4.400   3.906  16.163  0.4522 -0.3570 -0.5609
 2787TIP3    H129852   4.311   3.933  16.142  0.2311 -1.3222 -0.9286
 2787TIP3    H229853   4.422   3.955  16.243 -0.4954 -0.2962 -0.3229
 2788TIP3   OH229854   5.234   5.365  12.355  0.2397 -0.2123 -0.0331
 2788TIP3    H129855   5.227   5.455  12.324 -1.4752 -0.9088 -1.9123
 2788TIP3    H229856   5.160   5.354  12.415  0.5967 -0.3074  0.3966
 2789TIP3   OH229857   6.090   3.136   5.584 -0.3792 -0.7063 -0.3851
 2789TIP3    H129858   6.016   3.125   5.644  1.1936 -3.0716  1.2701
 2789TIP3    H229859   6.160   3.173   5.638 -0.0741  0.8185 -1.7535
 2790TIP3   OH229860   5.178   2.063  16.448  0.1489  0.0068 -0.2283
 2790TIP3    H129861   5.124   2.100  16.378 -0.4166  0.3275  0.3639
 2790TIP3    H229862   5.115   2.020  16.506  0.0473  3.1264  2.2372
 2791TIP3   OH229863   1.557   5.148   2.053 -0.1177 -0.5443  0.0623
 2791TIP3    H129864   1.548   5.166   1.959  1.7361 -2.5803 -0.5978
 2791TIP3    H229865   1.472   5.171   2.090 -1.1937 -0.4672 -2.2386
 2792TIP3   OH229866   1.913   3.958  17.142 -0.0341 -0.5546 -0.2592
 2792TIP3    H129867   1.864   3.966  17.223 -1.7280 -0.0836 -1.2818
 2792TIP3    H229868   1.869   3.887  17.094 -0.3052  0.4561 -1.5679
 2793TIP3   OH229869   0.160   0.807   4.030  0.1673 -0.4134 -0.4294
 2793TIP3    H129870   0.236   0.755   4.055 -0.0182 -1.0598 -1.1645
 2793TIP3    H229871   0.188   0.898   4.043  1.4854 -0.5767 -1.7383
 2794TIP3   OH229872   1.956   5.697   0.493 -0.1737 -0.3857  0.1609
 2794TIP3    H129873   1.983   5.677   0.403 -2.3557 -0.7434 -0.4796
 2794TIP3    H229874   1.928   5.613   0.529 -0.2457 -0.0806  0.8229
 2795TIP3   OH229875   4.169   0.650   4.662  0.1589  0.4051 -0.1873
 2795TIP3    H129876   4.127   0.623   4.744  0.1663 -1.5631 -0.7887
 2795TIP3    H229877   4.110   0.716   4.626 -0.0684  0.9844  1.1663
 2796TIP3   OH229878   6.661   4.007   2.406  0.2014 -0.2465 -0.2590
 2796TIP3    H129879   6.638   4.100   2.411  3.3915  0.6828 -0.5317
 2796TIP3    H229880   6.737   4.004   2.349  0.3014 -3.0443 -0.1182
 2797TIP3   OH229881   3.102   4.635  11.507  0.0415  0.2425  0.0484
 2797TIP3    H129882   3.184   4.624  11.556 -0.0626 -1.0410 -0.0551
 2797TIP3    H229883   3.078   4.547  11.480 -1.7584  0.5018  0.6710
 2798TIP3   OH229884   0.256   5.417  14.471 -0.7578 -0.5144  0.2166
 2798TIP3    H129885   0.306   5.338  14.449  0.0650 -0.1152  0.5678
 2798TIP3    H229886   0.185   5.420  14.407  1.4400  0.5376 -2.3949
 2799TIP3   OH229887   4.289   0.641   1.838 -0.1659 -0.3517 -0.3283
 2799TIP3    H129888   4.290   0.731   1.871 -1.6926  0.6811 -2.8822
 2799TIP3    H229889   4.212   0.602   1.880  1.8104 -1.4076  2.7156
 2800TIP3   OH229890   3.029   2.039   0.106 -0.0467 -0.2643  0.0604
 2800TIP3    H129891   3.046   1.949   0.134  1.4965 -0.3342 -0.9505
 2800TIP3    H229892   2.950   2.032   0.052  0.6282 -1.2287 -0.8642
 2801TIP3   OH229893   1.058   5.923   1.748 -0.1324  0.9019  0.1024
 2801TIP3    H129894   1.073   6.016   1.768 -0.3894  0.6923  1.3063
 2801TIP3    H229895   0.964   5.916   1.735  0.0642  1.1157 -1.7207
 2802TIP3   OH229896   1.040   6.703   1.737  0.0096  0.0611 -0.0833
 2802TIP3    H129897   1.058   6.750   1.818  0.3480  0.2259 -0.2491
 2802TIP3    H229898   1.063   6.612   1.755 -0.7650 -0.0676  0.2776
 2803TIP3   OH229899   5.790   5.639   3.898 -0.5048  0.0709 -0.2258
 2803TIP3    H129900   5.839   5.716   3.926 -1.9863  0.9039  0.1637
 2803TIP3    H229901   5.855   5.583   3.855  0.5588  1.6415 -0.7267
 2804TIP3   OH229902   4.623   6.423   0.238  0.3146 -0.2894  0.4665
 2804TIP3    H129903   4.606   6.453   0.327 -0.4199 -2.0600  0.9538
 2804TIP3    H229904   4.542   6.440   0.190  0.4131 -0.1492  0.3446
 2805TIP3   OH229905   4.454   4.430  15.232  0.6325 -0.1922 -0.1561
 2805TIP3    H129906   4.508   4.474  15.166  1.2465 -0.4166  0.1932
 2805TIP3    H229907   4.513   4.414  15.305  0.0207 -0.1883  0.3470
 2806TIP3   OH229908   1.142   6.610   3.487  0.9019 -0.4092  0.5089
 2806TIP3    H129909   1.208   6.556   3.530  2.0108  0.0048 -0.6177
 2806TIP3    H229910   1.129   6.685   3.546 -0.9990 -2.0526  2.3192
 2807TIP3   OH229911   4.384   0.450   5.894  0.0223  0.0463 -0.0479
 2807TIP3    H129912   4.367   0.529   5.843  0.2629  0.6026  0.7113
 2807TIP3    H229913   4.374   0.478   5.985 -2.7626 -1.4242  0.2204
 2808TIP3   OH229914   6.035   6.394   2.535  0.3574 -0.2995 -0.3028
 2808TIP3    H129915   6.090   6.458   2.490  0.6834  0.8583  1.6229
 2808TIP3    H229916   6.029   6.320   2.474  0.7586  1.1535 -2.2016
 2809TIP3   OH229917   5.498   4.580  15.247  0.4626 -0.0045 -0.0602
 2809TIP3    H129918   5.523   4.664  15.209  1.2655  0.9030  2.3145
 2809TIP3    H229919   5.546   4.576  15.330 -1.8641 -1.4686  1.3082
 2810TIP3   OH229920   3.737   4.548  16.353  0.0183  0.2025 -0.0727
 2810TIP3    H129921   3.723   4.568  16.446 -0.3091 -0.8416  0.1225
 2810TIP3    H229922   3.793   4.470  16.354 -0.6982 -0.3389 -0.7300
 2811TIP3   OH229923   6.087   1.960  11.729  0.5456  0.1317 -0.4622
 2811TIP3    H129924   6.000   1.930  11.703  0.3992  0.0970  0.0581
 2811TIP3    H229925   6.088   1.952  11.824  0.9546  0.5784 -0.4232
 2812TIP3   OH229926   6.609   0.392   5.064  0.1874 -0.5568  0.2016
 2812TIP3    H129927   6.647   0.368   4.980  0.4350 -0.3447  0.2525
 2812TIP3    H229928   6.581   0.483   5.053  2.2553  0.2428  1.0382
 2813TIP3   OH229929   0.243   5.036   5.941  0.2401  0.0971 -0.7574
 2813TIP3    H129930   0.282   5.120   5.919  1.3237 -0.2319 -0.1806
 2813TIP3    H229931   0.161   5.058   5.986 -0.6892  0.7876 -2.6872
 2814TIP3   OH229932   4.239   2.775  17.127 -0.2268 -0.2573 -0.4353
 2814TIP3    H129933   4.273   2.702  17.076  1.7738 -0.2260  0.7227
 2814TIP3    H229934   4.226   2.740  17.215  0.0598  0.5774 -0.0433
 2815TIP3   OH229935   5.287   3.812  15.975  0.8083  0.2427  0.0513
 2815TIP3    H129936   5.307   3.861  16.054 -0.3475  0.4522  0.2357
 2815TIP3    H229937   5.223   3.746  16.003  1.3831 -0.5520 -0.4487
 2816TIP3   OH229938   0.974   5.520  16.237  0.3303 -0.1619  0.5796
 2816TIP3    H129939   0.915   5.546  16.307 -1.6857  1.8725 -1.6462
 2816TIP3    H229940   1.058   5.561  16.259 -0.1796  0.2015  1.9029
 2817TIP3   OH229941   3.406   3.273  11.245  0.2526 -0.1876  0.2697
 2817TIP3    H129942   3.396   3.204  11.310 -1.7138  0.1014  0.3532
 2817TIP3    H229943   3.317   3.287  11.212  0.3023  3.1915  1.2027
 2818TIP3   OH229944   0.138   5.529  14.729 -0.0052 -0.0318  0.0856
 2818TIP3    H129945   0.200   5.538  14.657 -0.9974  1.2789 -0.6379
 2818TIP3    H229946   0.059   5.492  14.688 -0.5410  0.6319  0.5055
 2819TIP3   OH229947   0.266   4.853   5.737 -0.1526 -0.8659  0.7389
 2819TIP3    H129948   0.283   4.919   5.670  3.2676 -2.2016  0.0966
 2819TIP3    H229949   0.232   4.903   5.812  1.2918  1.4995 -0.0823
 2820TIP3   OH229950   6.195   1.783  11.496  0.1505  0.0403  0.1913
 2820TIP3    H129951   6.167   1.793  11.587 -0.0639 -0.9873  0.2420
 2820TIP3    H229952   6.119   1.810  11.444 -0.5644 -1.6022  0.3299
 2821TIP3   OH229953   3.295   0.004  15.776  0.7193 -0.3656 -0.6370
 2821TIP3    H129954   3.320  -0.048  15.700 -0.1083  0.1202 -1.2636
 2821TIP3    H229955   3.215   0.050  15.748  1.0915  0.7702  0.0988
 2822TIP3   OH229956   1.739   0.801   2.362 -0.6689  0.3097  0.3629
 2822TIP3    H129957   1.741   0.895   2.345 -0.5999  0.4889  1.3187
 2822TIP3    H229958   1.795   0.763   2.294  1.1284  1.1692  1.2942
 2823TIP3   OH229959   0.717   2.797   6.156  0.1829  0.2646  0.0255
 2823TIP3    H129960   0.785   2.783   6.222 -0.6980  0.5745  1.0220
 2823TIP3    H229961   0.731   2.728   6.092  0.7304 -0.3745  0.8184
 2824TIP3   OH229962   5.947   5.385  11.330 -0.1571 -0.0349 -0.6634
 2824TIP3    H129963   6.001   5.361  11.406  0.3059 -0.7786 -1.2110
 2824TIP3    H229964   5.861   5.348  11.348  0.3484 -1.5211 -1.1527
 2825TIP3   OH229965   0.464   2.672  12.380 -0.2266  0.0954  0.2880
 2825TIP3    H129966   0.444   2.717  12.298  1.7103  0.0606 -0.2586
 2825TIP3    H229967   0.388   2.617  12.397 -0.0523 -1.0940 -2.3304
 2826TIP3   OH229968   4.166   6.308   2.322 -0.6615  0.0191  0.1520
 2826TIP3    H129969   4.173   6.231   2.265  0.3470 -0.2983  0.6837
 2826TIP3    H229970   4.132   6.273   2.405 -1.5749  0.3860 -0.0587
 2827TIP3   OH229971   6.254   2.587  15.347  0.0935  0.2996  0.3359
 2827TIP3    H129972   6.184   2.621  15.403 -0.4113  1.9047 -1.1740
 2827TIP3    H229973   6.333   2.628  15.380  0.1211 -0.3503  1.1099
 2828TIP3   OH229974   3.316   2.545   3.341 -0.0147  0.1713 -0.1227
 2828TIP3    H129975   3.315   2.635   3.375 -0.4484 -0.2076  0.8827
 2828TIP3    H229976   3.396   2.507   3.377  0.0986  0.1014 -0.4414
 2829TIP3   OH229977   5.545   2.400  14.232  0.9107  0.2891  0.2570
 2829TIP3    H129978   5.512   2.311  14.248  1.1438  0.3720  1.2378
 2829TIP3    H229979   5.589   2.393  14.147 -2.0296  0.3058 -1.3942
 2830TIP3   OH229980   4.129   4.080   5.248  0.1462  0.4655 -0.3563
 2830TIP3    H129981   4.134   3.999   5.298  1.9374 -0.1919 -1.5180
 2830TIP3    H229982   4.201   4.134   5.282 -0.8357  1.4908  0.1907
 2831TIP3   OH229983   6.353   0.613   0.308 -0.1592 -0.0684 -0.8613
 2831TIP3    H129984   6.276   0.595   0.255 -0.5121  0.3317 -0.4951
 2831TIP3    H229985   6.416   0.545   0.283 -0.9983 -1.0430 -0.4237
 2832TIP3   OH229986   3.884   4.116  17.071 -0.1833  0.2115  0.0161
 2832TIP3    H129987   3.866   4.140  16.980 -0.4522 -1.4133 -0.3911
 2832TIP3    H229988   3.815   4.055  17.094 -1.1449  1.8826  1.9253
 2833TIP3   OH229989   1.879   5.829   1.695  0.1971 -0.0729  0.4826
 2833TIP3    H129990   1.807   5.844   1.633  0.9485 -1.1981 -0.7350
 2833TIP3    H229991   1.846   5.761   1.754  0.8248 -2.0026 -1.2390
 2834TIP3   OH229992   6.365   0.544  13.892 -0.6567  0.1474 -0.4361
 2834TIP3    H129993   6.396   0.628  13.927  0.3937  0.0119 -0.9870
 2834TIP3    H229994   6.441   0.486  13.899 -1.3327 -0.7264 -0.1874
 2835TIP3   OH229995   1.531   0.877  16.365  0.2291 -0.2271  0.2839
 2835TIP3    H129996   1.574   0.846  16.286  1.1014 -0.9852  1.0221
 2835TIP3    H229997   1.539   0.972  16.361  1.9353 -0.3356  0.3442
 2836TIP3   OH229998   6.339   0.666  15.726 -0.9748 -0.1920  0.3400
 2836TIP3    H129999   6.296   0.745  15.758  0.2410 -0.1758  2.0856
 2836TIP3    H230000   6.272   0.622  15.673 -1.9089  1.6024 -0.0283
 2837TIP3   OH230001   6.350   4.988  12.039  0.4607 -0.1082  0.6258
 2837TIP3    H130002   6.444   4.993  12.051  0.2137  2.6414  2.0059
 2837TIP3    H230003   6.322   4.913  12.092  1.7461 -0.4678  0.8127
 2838TIP3   OH230004   3.094   1.036  13.518 -0.8462 -0.3480 -0.2019
 2838TIP3    H130005   3.139   0.992  13.445 -3.2210 -0.6450 -1.6134
 2838TIP3    H230006   3.085   0.968  13.585  0.4806 -0.3693 -0.0283
 2839TIP3   OH230007   2.928   0.389   5.267  0.4073  0.4806  0.1253
 2839TIP3    H130008   3.008   0.345   5.240 -0.1745  0.0215 -0.8835
 2839TIP3    H230009   2.952   0.434   5.348  1.2565 -0.9222  0.6850
 2840TIP3   OH230010   5.861   0.239   3.348  0.3710  0.0722 -0.0675
 2840TIP3    H130011   5.921   0.292   3.295  0.6060  1.2831  1.3711
 2840TIP3    H230012   5.777   0.248   3.303  0.9473 -0.5408 -1.3377
 2841TIP3   OH230013   6.348   2.563   6.285  0.4709 -0.2559  0.4400
 2841TIP3    H130014   6.278   2.590   6.344 -0.4034 -0.8279 -0.3021
 2841TIP3    H230015   6.315   2.483   6.244  0.1203  1.2002 -2.3531
 2842TIP3   OH230016   0.961   3.956  14.579  0.3922  0.1130  0.4489
 2842TIP3    H130017   0.921   3.994  14.657  1.1224  2.3749 -0.1799
 2842TIP3    H230018   1.037   4.012  14.562  2.1370 -2.2492 -0.0705
 2843TIP3   OH230019   6.211   0.920  16.096 -0.0048  0.3772 -0.7442
 2843TIP3    H130020   6.265   0.856  16.142 -1.3332  0.0103  0.3760
 2843TIP3    H230021   6.141   0.941  16.157  0.3117  2.8415 -1.1403
 2844TIP3   OH230022   3.604   1.696   2.994 -0.5090  0.1189  0.5851
 2844TIP3    H130023   3.549   1.768   3.024 -0.5985  0.7639 -1.0240
 2844TIP3    H230024   3.555   1.617   3.015 -0.9629  0.5798  1.2911
 2845TIP3   OH230025   0.990   0.205  13.275  0.1192  0.5106  0.4238
 2845TIP3    H130026   0.906   0.186  13.316 -0.2234 -1.9025 -1.1583
 2845TIP3    H230027   0.969   0.214  13.182  1.5104  0.7529  0.1100
 2846TIP3   OH230028   0.727   1.591   5.679  0.1271  0.1521 -0.1033
 2846TIP3    H130029   0.697   1.670   5.634  2.8697  0.2013 -2.1507
 2846TIP3    H230030   0.739   1.527   5.608  3.3723 -0.2057  0.6102
 2847TIP3   OH230031   4.898   2.304   6.175  0.0713 -0.0783 -0.0467
 2847TIP3    H130032   4.970   2.267   6.226  1.2185  1.5964 -0.3492
 2847TIP3    H230033   4.838   2.231   6.161  1.6033 -1.4936  0.4094
 2848TIP3   OH230034   6.663   3.242  11.992  0.0426 -0.1967 -0.0527
 2848TIP3    H130035   6.725   3.204  12.054 -0.3700 -0.8856 -0.0434
 2848TIP3    H230036   6.602   3.292  12.046 -0.1683 -0.5884  0.0747
 2849TIP3   OH230037   3.995   5.229   0.459  0.0515  0.0521 -0.0185
 2849TIP3    H130038   4.021   5.156   0.403 -0.8456  0.9343 -1.6338
 2849TIP3    H230039   4.069   5.291   0.454  0.5982 -0.4842  0.9663
 2850TIP3   OH230040   4.341   1.360  13.361 -0.1108 -0.3209 -0.3219
 2850TIP3    H130041   4.364   1.340  13.270 -1.9908  1.2772 -1.2328
 2850TIP3    H230042   4.331   1.275  13.403 -1.7594 -1.2218 -2.3448
 2851TIP3   OH230043   3.392   4.947  12.167 -0.3106  0.0314 -0.2534
 2851TIP3    H130044   3.369   4.883  12.235 -0.2746  0.8622  0.5448
 2851TIP3    H230045   3.474   4.986  12.197 -0.2287  0.3171 -0.8368
 2852TIP3   OH230046   4.590   3.059   5.422 -0.0018  0.2259  0.5358
 2852TIP3    H130047   4.534   2.997   5.470 -0.7870  0.3168 -0.2395
 2852TIP3    H230048   4.583   3.141   5.471 -0.6323  0.2593  0.3991
 2853TIP3   OH230049   1.615   6.208  14.015 -0.4941 -0.0521 -0.1469
 2853TIP3    H130050   1.566   6.126  14.016  0.6811 -0.7850 -0.4755
 2853TIP3    H230051   1.549   6.276  14.033 -1.3229 -1.1294  1.0585
 2854TIP3   OH230052   2.834   0.853   4.308  0.3286  0.5307  0.2265
 2854TIP3    H130053   2.892   0.799   4.360 -0.8191 -1.3369 -0.3483
 2854TIP3    H230054   2.820   0.932   4.361 -0.3492 -1.0240  2.5304
 2855TIP3   OH230055   2.406   0.338  14.484 -0.2363  0.6759  0.1670
 2855TIP3    H130056   2.467   0.276  14.444 -0.2340  1.4065 -0.9860
 2855TIP3    H230057   2.448   0.423  14.474 -1.2038  1.1263 -0.1548
 2856TIP3   OH230058   0.894   3.378   3.106  0.4915 -0.1899  0.1482
 2856TIP3    H130059   0.842   3.306   3.070  0.8666 -0.3147 -0.1587
 2856TIP3    H230060   0.840   3.456   3.093 -0.2878 -0.5289  1.2796
 2857TIP3   OH230061   0.333   0.765  13.668  0.4673 -0.0103  0.3511
 2857TIP3    H130062   0.372   0.684  13.701 -0.2587 -0.5892 -0.1733
 2857TIP3    H230063   0.377   0.835  13.717  1.1688 -0.7117  0.7431
 2858TIP3   OH230064   0.331   3.912   3.945 -0.1540  0.2542 -0.2253
 2858TIP3    H130065   0.336   3.900   4.040 -0.6765  0.8897 -0.1159
 2858TIP3    H230066   0.239   3.932   3.928 -0.4913 -1.7558 -1.0992
 2859TIP3   OH230067   1.167   1.205   3.583 -0.2768 -0.3541  0.0739
 2859TIP3    H130068   1.255   1.240   3.595 -0.5150 -0.0746  1.1117
 2859TIP3    H230069   1.111   1.283   3.573 -0.3180 -0.5412 -1.3823
 2860TIP3   OH230070   3.302   6.765  10.821  0.5017 -0.0264  0.2022
 2860TIP3    H130071   3.311   6.670  10.807 -1.7457 -0.0554 -1.6329
 2860TIP3    H230072   3.384   6.801  10.788  1.3110 -1.3143  0.7213
 2861TIP3   OH230073   6.567   4.602  11.802  0.0790  0.1194 -0.5378
 2861TIP3    H130074   6.617   4.549  11.740  1.0516  0.0168  0.3177
 2861TIP3    H230075   6.630   4.666  11.835  0.1281 -1.0403  1.7922
 2862TIP3   OH230076   1.562   1.707   4.716  0.8157 -0.1663  0.3468
 2862TIP3    H130077   1.560   1.786   4.662  1.2859 -1.4030 -1.5965
 2862TIP3    H230078   1.535   1.736   4.803 -2.9667  1.4921 -1.1395
 2863TIP3   OH230079   2.284   3.694  14.325 -0.4509  0.2332 -0.0208
 2863TIP3    H130080   2.341   3.760  14.284  0.1048 -0.4830 -0.4329
 2863TIP3    H230081   2.254   3.735  14.406  1.6218  0.1981  0.8227
 2864TIP3   OH230082   0.693   2.824   6.530  0.1955  0.7880 -0.3858
 2864TIP3    H130083   0.781   2.789   6.515  0.1488  0.1751  0.6784
 2864TIP3    H230084   0.641   2.749   6.559 -0.5320  1.2630 -0.4190
 2865TIP3   OH230085   5.566   4.679   4.534  0.6005  0.6223 -0.1719
 2865TIP3    H130086   5.491   4.697   4.591  1.4170  0.7460  0.8919
 2865TIP3    H230087   5.615   4.761   4.531  0.8267  0.4725 -0.6438
 2866TIP3   OH230088   4.060   2.673  13.489  0.1723 -0.2909 -0.4967
 2866TIP3    H130089   4.121   2.739  13.521  0.5505 -0.2560 -1.2615
 2866TIP3    H230090   4.049   2.694  13.396  0.6870 -1.5860 -0.8718
 2867TIP3   OH230091   0.728   3.449   1.799 -0.2522  0.6866  0.2015
 2867TIP3    H130092   0.683   3.521   1.844  1.1349  0.8363  1.4136
 2867TIP3    H230093   0.682   3.370   1.829  1.3813  0.6540  3.0147
 2868TIP3   OH230094   2.453   1.480   0.425 -0.2309  0.4876 -0.5554
 2868TIP3    H130095   2.388   1.436   0.480 -0.3617  1.1584 -0.1724
 2868TIP3    H230096   2.511   1.409   0.396 -0.0001  0.1700  0.6507
 2869TIP3   OH230097   5.108   3.098  14.505 -0.5927 -0.1019  0.2868
 2869TIP3    H130098   5.063   3.177  14.476  0.3719  0.3565  0.0132
 2869TIP3    H230099   5.162   3.072  14.431 -1.2443 -1.3022  0.1992
 2870TIP3   OH230100   4.943   0.236   5.643 -0.2547  0.2329  0.1308
 2870TIP3    H130101   5.027   0.218   5.601  0.1617 -0.3769  1.1693
 2870TIP3    H230102   4.962   0.306   5.705 -0.4012 -0.1829  0.6594
 2871TIP3   OH230103   2.133   5.525  12.685  0.2719 -0.7280  0.3327
 2871TIP3    H130104   2.122   5.477  12.603 -0.2875  0.5083 -0.3432
 2871TIP3    H230105   2.224   5.509  12.710  0.1342 -1.9979  0.0496
 2872TIP3   OH230106   2.544   5.790  16.049 -0.4295 -0.5626  0.2603
 2872TIP3    H130107   2.467   5.733  16.054  0.1881 -1.4575 -0.4463
 2872TIP3    H230108   2.566   5.795  15.956 -1.5694  2.3453  0.0163
 2873TIP3   OH230109   3.332   6.814  16.353 -0.0051  0.1790 -0.2717
 2873TIP3    H130110   3.311   6.738  16.298  1.6917  0.6089 -1.5984
 2873TIP3    H230111   3.366   6.879  16.292  0.5524  1.2332  1.1066
 2874TIP3   OH230112   0.192   4.181   3.856 -0.1194 -0.2418  0.4862
 2874TIP3    H130113   0.221   4.263   3.896  0.4565  0.0110 -0.4153
 2874TIP3    H230114   0.198   4.197   3.762  0.7281 -1.5757  0.2860
 2875TIP3   OH230115   4.678   5.853  15.041 -0.1483  0.9575 -0.4507
 2875TIP3    H130116   4.762   5.886  15.007 -0.1000  0.7650 -0.5227
 2875TIP3    H230117   4.692   5.845  15.135 -0.6071  2.4510 -0.2297
 2876TIP3   OH230118   5.806   0.743  16.439  0.1260 -0.5718 -0.9246
 2876TIP3    H130119   5.848   0.697  16.511 -0.8201  0.4183  0.3109
 2876TIP3    H230120   5.832   0.695  16.361  1.1380 -1.7074  0.0762
 2877TIP3   OH230121   2.943   4.237  17.014  0.7194  0.5201 -0.3444
 2877TIP3    H130122   2.875   4.199  17.070  1.8604  2.0872  2.2794
 2877TIP3    H230123   2.990   4.161  16.979 -1.4116 -0.5559 -1.0564
 2878TIP3   OH230124   0.184   2.454  14.341 -0.4403  0.1679 -0.8286
 2878TIP3    H130125   0.218   2.524  14.284  0.4005 -0.0123 -0.5715
 2878TIP3    H230126   0.231   2.375  14.312 -1.3862 -0.3034 -1.1243
 2879TIP3   OH230127   4.871   6.415   5.344  0.4541 -0.1027  0.0175
 2879TIP3    H130128   4.935   6.482   5.366  1.3354 -0.5256 -1.1742
 2879TIP3    H230129   4.903   6.336   5.387 -1.3828  0.4714  2.7170
 2880TIP3   OH230130   1.951   0.173   3.704 -0.3902 -0.7701 -0.1431
 2880TIP3    H130131   2.028   0.204   3.656 -0.3688 -1.2095 -0.3919
 2880TIP3    H230132   1.929   0.089   3.664 -1.2976 -0.4255 -0.3878
 2881TIP3   OH230133   6.431   0.614  12.217  0.5668  0.6013  0.0852
 2881TIP3    H130134   6.497   0.657  12.273  0.6276  0.2147  0.3181
 2881TIP3    H230135   6.472   0.609  12.131  1.5999 -1.2995  0.6490
 2882TIP3   OH230136   2.994   0.272  15.010 -0.5141 -0.1381  0.3176
 2882TIP3    H130137   2.901   0.276  15.034 -0.9427  0.1349 -1.2886
 2882TIP3    H230138   2.995   0.229  14.925  0.9292 -0.8734  0.6779
 2883TIP3   OH230139   5.878   2.343  14.760  0.8414  0.5515  0.1686
 2883TIP3    H130140   5.894   2.326  14.853 -0.9370 -0.3599  0.3691
 2883TIP3    H230141   5.806   2.406  14.760 -2.4284 -2.7977 -0.4057
 2884TIP3   OH230142   2.382   4.839   0.300  0.0564  0.0250 -0.0675
 2884TIP3    H130143   2.368   4.843   0.205 -2.7417 -0.1515  0.2332
 2884TIP3    H230144   2.328   4.911   0.334  0.6094 -0.2400  1.4159
 2885TIP3   OH230145   2.349   1.782   1.538 -0.0554 -0.2485  0.0104
 2885TIP3    H130146   2.378   1.823   1.620 -0.0054 -0.3565  0.0469
 2885TIP3    H230147   2.346   1.688   1.557 -0.7639 -0.2114  0.1077
 2886TIP3   OH230148   1.708   5.675  15.426  0.4975  0.2686 -0.1801
 2886TIP3    H130149   1.677   5.588  15.451  0.7035  0.7123  1.7768
 2886TIP3    H230150   1.763   5.659  15.349 -1.0228 -1.0563 -1.0626
 2887TIP3   OH230151   5.133   4.156  12.003 -0.3391 -0.4456  0.6125
 2887TIP3    H130152   5.103   4.204  11.926  0.6424 -0.7321  0.0198
 2887TIP3    H230153   5.138   4.222  12.072 -2.4979 -0.4372  0.8294
 2888TIP3   OH230154   0.788   5.319  11.218  0.5072  0.1547 -0.1101
 2888TIP3    H130155   0.819   5.326  11.308 -0.3372  0.8723  0.1461
 2888TIP3    H230156   0.733   5.241  11.217  0.8439 -0.0842 -0.1096
 2889TIP3   OH230157   0.293   0.079  15.397  0.4094 -0.0478 -0.3442
 2889TIP3    H130158   0.280   0.025  15.319  0.9923  1.4424 -1.5385
 2889TIP3    H230159   0.212   0.130  15.405  1.2939  1.6925 -1.6028
 2890TIP3   OH230160   1.889   6.206   3.787 -0.0230 -0.1967  0.0195
 2890TIP3    H130161   1.831   6.281   3.774 -0.2190 -0.5096 -0.9697
 2890TIP3    H230162   1.945   6.205   3.710  3.0153  1.5553  2.0164
 2891TIP3   OH230163   5.166   3.242  16.620 -0.7804  0.5240 -0.3164
 2891TIP3    H130164   5.096   3.226  16.683  0.4142  0.9913  1.1715
 2891TIP3    H230165   5.246   3.244  16.672  0.2506  0.9487 -1.8478
 2892TIP3   OH230166   1.527   2.840   2.519  0.3968  0.2588  0.0210
 2892TIP3    H130167   1.604   2.806   2.564 -0.3459  0.4337  1.5204
 2892TIP3    H230168   1.554   2.851   2.428  1.6047 -1.2962  0.1542
 2893TIP3   OH230169   1.804   5.358   2.946  0.0846 -0.2657  0.0867
 2893TIP3    H130170   1.775   5.416   2.876  0.2341 -1.7846 -1.2809
 2893TIP3    H230171   1.872   5.304   2.906  0.1651 -1.1854  1.4009
 2894TIP3   OH230172   4.425   5.937   5.240 -0.1765  0.0512  0.1479
 2894TIP3    H130173   4.513   5.976   5.245  0.1885 -0.3128 -2.2765
 2894TIP3    H230174   4.441   5.842   5.243 -0.6117 -0.0056  0.8938
 2895TIP3   OH230175   6.456   2.234  12.989  0.2436  0.4034 -0.2867
 2895TIP3    H130176   6.404   2.295  12.937  0.1205  0.8751  0.3687
 2895TIP3    H230177   6.427   2.249  13.079 -0.0155 -0.8533 -0.1424
 2896TIP3   OH230178   1.879   4.287  15.631  0.6713 -0.1925  0.3356
 2896TIP3    H130179   1.923   4.280  15.716 -0.6715 -0.4136  1.0505
 2896TIP3    H230180   1.809   4.351  15.645  0.1434 -0.5726 -0.4578
 2897TIP3   OH230181   5.111   3.263   2.380 -0.6326 -0.0565  0.1500
 2897TIP3    H130182   5.186   3.313   2.347 -1.6203  1.1003 -0.4283
 2897TIP3    H230183   5.150   3.190   2.427  0.8587  0.0260 -0.8753
 2898TIP3   OH230184   6.145   6.153   0.989  0.3874 -0.0541 -0.4450
 2898TIP3    H130185   6.140   6.058   1.000  0.4306 -0.6510 -4.3012
 2898TIP3    H230186   6.235   6.175   1.012  0.8606 -1.2379 -1.1018
 2899TIP3   OH230187   5.452   0.419   4.330 -0.4844 -0.1314  1.0017
 2899TIP3    H130188   5.454   0.339   4.383 -1.7802 -2.1106 -1.7242
 2899TIP3    H230189   5.544   0.438   4.314 -0.1453 -1.0967  1.6491
 2900TIP3   OH230190   5.846   6.447   4.762 -0.3049  0.3126 -0.1136
 2900TIP3    H130191   5.752   6.441   4.743 -0.8355  1.4144  1.8205
 2900TIP3    H230192   5.853   6.416   4.853  1.5363 -1.7058 -0.8740
 2901TIP3   OH230193   1.344   3.302   1.149 -0.2922 -0.0603 -0.0356
 2901TIP3    H130194   1.393   3.223   1.124  0.8081  0.1957  1.2067
 2901TIP3    H230195   1.361   3.312   1.243  1.2908  2.7956 -0.5116
 2902TIP3   OH230196   2.028   2.750  11.336  0.2326  0.4352 -0.0655
 2902TIP3    H130197   2.084   2.810  11.288  0.4555  0.2646 -0.0198
 2902TIP3    H230198   2.012   2.678  11.275  1.4644 -0.3479  0.5045
 2903TIP3   OH230199   1.318   5.278   0.900 -0.4341  0.5362  0.0686
 2903TIP3    H130200   1.280   5.198   0.937  0.6860 -0.2122 -0.3665
 2903TIP3    H230201   1.410   5.275   0.927  0.0191  0.7934 -1.3975
 2904TIP3   OH230202   0.469   1.172  16.003 -0.0313 -0.0100  0.3991
 2904TIP3    H130203   0.530   1.114  16.048  0.0377 -0.2989 -0.0719
 2904TIP3    H230204   0.500   1.260  16.023  0.6625 -0.1601 -0.0187
 2905TIP3   OH230205   1.456   6.005  14.069  0.3177  0.1829 -0.0954
 2905TIP3    H130206   1.511   5.928  14.078  0.0888  0.0623  0.3040
 2905TIP3    H230207   1.374   5.972  14.033 -0.2018  0.0474  1.1615
 2906TIP3   OH230208   0.812   5.929  15.745 -0.1780 -0.1539  0.1628
 2906TIP3    H130209   0.768   5.848  15.769  0.4980 -0.8965 -1.0003
 2906TIP3    H230210   0.798   5.937  15.651  2.2281 -0.5021 -0.3078
 2907TIP3   OH230211   6.128   5.772   4.938 -0.2558 -0.0638 -0.1741
 2907TIP3    H130212   6.125   5.866   4.920  0.3611  0.1572  0.8322
 2907TIP3    H230213   6.052   5.736   4.892 -1.1187  1.0792  0.3346
 2908TIP3   OH230214   0.726   4.876   0.139 -0.3638  0.6204 -0.0848
 2908TIP3    H130215   0.806   4.919   0.169 -0.5657  0.9824 -0.0480
 2908TIP3    H230216   0.740   4.863   0.045  0.5094 -1.0563  0.2540
 2909TIP3   OH230217   5.811   5.129  11.720 -0.1186 -0.5876 -0.1127
 2909TIP3    H130218   5.748   5.100  11.653  0.7982 -1.6724 -0.5311
 2909TIP3    H230219   5.787   5.220  11.736 -0.9670 -0.5786 -1.2250
 2910TIP3   OH230220   0.323   5.289  17.008 -0.0197  0.3323  0.2954
 2910TIP3    H130221   0.269   5.213  16.987 -0.3841 -0.2732  3.0423
 2910TIP3    H230222   0.351   5.274  17.099  0.8085  2.9429  0.5481
 2911TIP3   OH230223   6.345   2.259   0.356 -0.0926 -0.4259 -0.3175
 2911TIP3    H130224   6.395   2.190   0.312  1.1323 -0.9099  1.6837
 2911TIP3    H230225   6.271   2.213   0.396 -1.8006  0.1701 -2.6148
 2912TIP3   OH230226   4.871   3.739  11.551 -0.2156 -0.0748  0.0905
 2912TIP3    H130227   4.812   3.761  11.623 -1.3281  3.7301 -1.7339
 2912TIP3    H230228   4.953   3.783  11.571  0.1344 -0.6187 -0.0982
 2913TIP3   OH230229   5.671   5.930   4.461  0.1628  0.4927 -0.2360
 2913TIP3    H130230   5.650   5.874   4.537 -1.6049 -1.6195 -2.1208
 2913TIP3    H230231   5.766   5.928   4.456  0.2442 -0.5446  1.0723
 2914TIP3   OH230232   4.100   1.112   4.025 -0.4494  0.0022 -0.9139
 2914TIP3    H130233   4.156   1.059   3.968  0.5710  2.1736 -2.0473
 2914TIP3    H230234   4.090   1.195   3.978 -2.4926  0.6258  0.4947
 2915TIP3   OH230235   2.979   5.918  12.205  0.4401 -0.7090 -0.1707
 2915TIP3    H130236   2.916   5.871  12.150 -0.3958 -0.5081  0.5892
 2915TIP3    H230237   2.999   5.997  12.156  1.6586 -1.6956 -1.3446
 2916TIP3   OH230238   4.438   6.210  16.714 -0.2893  0.3917  0.4756
 2916TIP3    H130239   4.398   6.209  16.627 -0.6752 -1.2836  0.6411
 2916TIP3    H230240   4.400   6.287  16.756  0.9468  2.0627 -1.2692
 2917TIP3   OH230241   4.592   3.586  12.404  0.5265 -0.4334  0.2483
 2917TIP3    H130242   4.542   3.588  12.485 -1.8500 -2.5006 -1.0102
 2917TIP3    H230243   4.552   3.655  12.350 -0.6235 -1.6425 -0.5135
 2918TIP3   OH230244   6.203   1.555   2.391 -0.3774 -0.3835  0.1289
 2918TIP3    H130245   6.200   1.613   2.315 -0.4749  1.0614  1.1877
 2918TIP3    H230246   6.287   1.510   2.383 -0.7086 -0.8077 -1.2040
 2919TIP3   OH230247   6.439   4.626  16.798 -0.7232  0.6028  0.6701
 2919TIP3    H130248   6.347   4.630  16.773 -0.7860  2.6147  1.0842
 2919TIP3    H230249   6.441   4.653  16.890  0.4967  3.1143 -0.0179
 2920TIP3   OH230250   5.850   0.700  13.951 -0.1909 -0.0982 -0.4204
 2920TIP3    H130251   5.887   0.654  13.876  0.0295 -2.2789  0.9530
 2920TIP3    H230252   5.925   0.745  13.990 -0.0012 -0.2846 -0.5666
 2921TIP3   OH230253   1.224   5.871   0.915 -0.5340 -0.3324  0.2679
 2921TIP3    H130254   1.264   5.905   0.995  1.2945 -1.8316  0.0470
 2921TIP3    H230255   1.135   5.908   0.916 -0.1402  0.7400  2.2921
 2922TIP3   OH230256   0.480   1.007   0.848  0.0365  0.2365 -0.1119
 2922TIP3    H130257   0.397   0.980   0.809  0.4929  1.8518 -2.3997
 2922TIP3    H230258   0.544   0.945   0.814 -0.0160 -0.1804  0.5418
 2923TIP3   OH230259   2.796   1.505   3.643 -0.4530  0.0447  0.5157
 2923TIP3    H130260   2.822   1.465   3.726  2.3749 -0.1450 -0.3486
 2923TIP3    H230261   2.705   1.530   3.656 -1.1172 -2.9340  2.4984
 2924TIP3   OH230262   6.036   1.609  13.346  0.5361  0.2628  0.0586
 2924TIP3    H130263   6.068   1.698  13.335  3.1585 -0.4913  0.8886
 2924TIP3    H230264   6.013   1.603  13.439  1.2444 -0.1583  0.2151
 2925TIP3   OH230265   3.565   0.045   6.006 -0.3179 -0.1981 -0.1659
 2925TIP3    H130266   3.588   0.128   5.963 -0.3534 -0.4694 -0.7162
 2925TIP3    H230267   3.648  -0.001   6.014 -0.4182 -0.4586 -0.6122
 2926TIP3   OH230268   3.364   0.865  14.417 -0.1119 -0.4499  0.0267
 2926TIP3    H130269   3.455   0.846  14.397  0.1838  0.4038  0.5114
 2926TIP3    H230270   3.360   0.866  14.513 -0.5997 -0.3563  0.0084
 2927TIP3   OH230271   0.018   1.332   5.693  0.1018 -0.0522  0.0188
 2927TIP3    H130272  -0.023   1.414   5.720  1.1102 -0.0032  1.5119
 2927TIP3    H230273  -0.034   1.303   5.617  1.2023  3.2001 -2.1713
 2928TIP3   OH230274   4.597   4.465   3.119  0.1962 -0.4083 -0.8579
 2928TIP3    H130275   4.670   4.412   3.088  1.4080  0.4838  0.3248
 2928TIP3    H230276   4.551   4.492   3.039  1.1463 -1.0078 -1.6290
 2929TIP3   OH230277   5.195   2.371  16.121  0.0044  0.3118  0.2536
 2929TIP3    H130278   5.242   2.454  16.120 -0.9964  0.8958  0.2512
 2929TIP3    H230279   5.152   2.367  16.036 -0.4810  0.1075  0.5072
 2930TIP3   OH230280   1.094   1.319  15.953 -0.7742  0.3903  0.1178
 2930TIP3    H130281   1.184   1.301  15.925 -1.6511 -2.2905 -1.3345
 2930TIP3    H230282   1.061   1.382  15.890 -0.0981  0.9380  0.3069
 2931TIP3   OH230283   3.303   1.814   3.483 -0.4459 -0.1690 -0.8550
 2931TIP3    H130284   3.301   1.733   3.432 -0.7896 -2.2407  2.1808
 2931TIP3    H230285   3.396   1.835   3.492 -0.2200 -1.4008 -0.0480
 2932TIP3   OH230286   4.062   3.598   2.630  0.7214 -0.1901 -0.2794
 2932TIP3    H130287   4.009   3.622   2.554 -0.2209  0.4140  0.5385
 2932TIP3    H230288   3.999   3.587   2.701  1.4358 -2.1793  0.1141
 2933TIP3   OH230289   3.138   3.738  10.869 -0.5586 -0.2905 -0.0754
 2933TIP3    H130290   3.147   3.762  10.777 -2.5297  1.7801  0.1810
 2933TIP3    H230291   3.183   3.807  10.917 -0.5917 -0.6919  0.5481
 2934TIP3   OH230292   0.688   5.811  12.499 -0.0718 -0.0666  0.0652
 2934TIP3    H130293   0.665   5.754  12.572  1.7820  0.6968  1.3201
 2934TIP3    H230294   0.690   5.899  12.536 -0.9040  0.5961 -1.3630
 2935TIP3   OH230295   4.118   3.814   5.325  0.1277  0.0337 -0.1483
 2935TIP3    H130296   4.084   3.734   5.365  0.2051  0.5574  1.0101
 2935TIP3    H230297   4.150   3.786   5.239 -1.6422 -0.7922 -0.5927
 2936TIP3   OH230298   3.062   4.196  12.908  0.2881  0.2664  0.0737
 2936TIP3    H130299   2.992   4.241  12.861 -0.0304 -0.2360  0.0517
 2936TIP3    H230300   3.026   4.184  12.996 -0.0223 -0.7850 -0.1804
 2937TIP3   OH230301   2.531   6.672  16.229 -0.0669 -0.6678 -0.0866
 2937TIP3    H130302   2.607   6.718  16.195 -0.5163  1.1947  1.2608
 2937TIP3    H230303   2.470   6.669  16.154  0.7463 -0.8852 -0.7573
 2938TIP3   OH230304   4.658   5.961   3.111  0.3263  0.0523  0.3868
 2938TIP3    H130305   4.640   5.970   3.205 -2.9772  1.2760 -0.2250
 2938TIP3    H230306   4.656   5.867   3.095 -1.1132 -0.1046  1.2659
 2939TIP3   OH230307   6.106   3.153   0.779  0.1608  0.1288 -0.8344
 2939TIP3    H130308   6.102   3.212   0.703 -1.2544 -0.5823 -1.3602
 2939TIP3    H230309   6.015   3.129   0.795  0.5514 -0.5943  0.4320
 2940TIP3   OH230310   4.620   4.229  12.675 -0.1219  0.6856 -0.1571
 2940TIP3    H130311   4.555   4.277  12.726 -2.3059 -3.0737  0.9587
 2940TIP3    H230312   4.576   4.210  12.592  0.1928 -0.4201 -0.0804
 2941TIP3   OH230313   1.661   3.986   3.911  0.7251 -0.1206  0.0808
 2941TIP3    H130314   1.743   4.030   3.933  0.6770  0.0762 -0.1273
 2941TIP3    H230315   1.613   4.051   3.859  0.3449 -0.1483  0.3945
 2942TIP3   OH230316   5.584   5.843  14.094 -0.3599 -0.0433  0.1797
 2942TIP3    H130317   5.564   5.931  14.128  0.5961  0.0600  0.4933
 2942TIP3    H230318   5.498   5.806  14.074 -0.7980  0.8543  0.3191
 2943TIP3   OH230319   5.951   0.843   0.555 -0.0148  0.2541 -0.4909
 2943TIP3    H130320   5.921   0.843   0.464 -0.4422  0.2654 -0.3512
 2943TIP3    H230321   5.991   0.757   0.567  2.5207  1.2153 -1.4862
 2944TIP3   OH230322   2.542   2.481   1.976  0.0436  0.3566 -0.4356
 2944TIP3    H130323   2.553   2.386   1.967 -1.2732  0.1676 -0.3169
 2944TIP3    H230324   2.487   2.505   1.902 -1.3553  0.6742  0.6672
 2945TIP3   OH230325   3.645   6.047   2.564  0.2406  0.3475  0.3950
 2945TIP3    H130326   3.705   6.002   2.623 -1.0040 -1.4257  0.4049
 2945TIP3    H230327   3.694   6.056   2.482  1.0583  0.3761  0.8818
 2946TIP3   OH230328   4.676   2.269  11.326 -0.3892  0.3390 -0.1433
 2946TIP3    H130329   4.587   2.303  11.328 -0.6846 -0.3241 -1.1379
 2946TIP3    H230330   4.728   2.340  11.289 -0.7194  0.3222 -0.6644
 2947TIP3   OH230331   3.673   4.626   1.391 -0.0487  0.0806 -0.3473
 2947TIP3    H130332   3.643   4.708   1.351  0.2122  0.3370 -0.0228
 2947TIP3    H230333   3.769   4.633   1.391 -0.0527  0.6308  1.4326
 2948TIP3   OH230334   0.516   5.643   4.225  0.0272 -0.1756 -0.3066
 2948TIP3    H130335   0.466   5.608   4.151  1.4168  0.5938 -1.6792
 2948TIP3    H230336   0.600   5.597   4.220 -0.4166 -1.3412  1.8597
 2949TIP3   OH230337   5.638   2.864   1.544  0.2421  0.7058  0.1286
 2949TIP3    H130338   5.655   2.847   1.452  5.1226  0.4943  0.8475
 2949TIP3    H230339   5.636   2.959   1.551 -2.3072  0.7548 -0.3747
 2950TIP3   OH230340   3.477   6.582  11.190  0.6321 -0.1752  0.6643
 2950TIP3    H130341   3.413   6.574  11.261  1.4306 -0.8332  1.3358
 2950TIP3    H230342   3.557   6.611  11.234  0.5460  1.7006 -0.3084
 2951TIP3   OH230343   6.625   6.733   3.997  0.7003  0.1405  0.1991
 2951TIP3    H130344   6.561   6.782   3.945  0.7154  0.5116  0.5346
 2951TIP3    H230345   6.655   6.664   3.937 -1.2334 -1.0882  0.5383
 2952TIP3   OH230346   0.366   3.892  13.380 -0.7811 -0.1492  0.5110
 2952TIP3    H130347   0.427   3.817  13.378 -0.3099  0.1871  1.4817
 2952TIP3    H230348   0.374   3.931  13.293 -0.1304 -0.5331  0.3856
 2953TIP3   OH230349   6.775   2.316  14.346  0.3559  0.1568 -0.4678
 2953TIP3    H130350   6.724   2.387  14.306 -0.5824 -0.4476 -0.3728
 2953TIP3    H230351   6.857   2.358  14.372 -0.7446  1.5816  0.9502
 2954TIP3   OH230352   4.037   3.690  11.275 -0.1765  1.0847 -0.1224
 2954TIP3    H130353   4.096   3.645  11.216 -1.0949  0.0688 -0.2983
 2954TIP3    H230354   4.015   3.625  11.342 -3.0515  0.5436 -1.4456
 2955TIP3   OH230355   5.123   3.761   4.838  0.0846 -0.5784  0.3286
 2955TIP3    H130356   5.215   3.738   4.823  0.5180 -0.1072  2.0291
 2955TIP3    H230357   5.088   3.688   4.889 -0.1920 -0.2879  0.5595
 2956TIP3   OH230358   5.002   6.695   5.857  0.8987  0.7756 -0.4051
 2956TIP3    H130359   4.933   6.760   5.865  0.6571  0.4647  0.0863
 2956TIP3    H230360   5.078   6.744   5.827  0.0200  0.8365 -2.7287
 2957TIP3   OH230361   2.562   6.480   0.674  0.1736 -0.2939 -0.2802
 2957TIP3    H130362   2.564   6.387   0.653  0.6920 -0.0339 -1.4397
 2957TIP3    H230363   2.599   6.524   0.597  0.8874  0.7996  0.6358
 2958TIP3   OH230364   0.549   4.877  11.382  0.3420  0.6217  0.0025
 2958TIP3    H130365   0.580   4.967  11.377 -0.3113  0.7840 -2.0146
 2958TIP3    H230366   0.520   4.857  11.293 -1.0390 -1.0326  0.7758
 2959TIP3   OH230367   6.056   1.100  15.018  0.6490  0.2763 -0.3431
 2959TIP3    H130368   5.973   1.147  15.024  1.4316  1.7558 -0.5228
 2959TIP3    H230369   6.121   1.168  14.998  1.8101 -0.9258 -0.8609
 2960TIP3   OH230370   4.183   5.591  11.650  0.2796  0.1323  0.0519
 2960TIP3    H130371   4.096   5.566  11.619  0.3229 -0.1047  0.1153
 2960TIP3    H230372   4.244   5.544  11.593  0.3577 -0.7327  0.8196
 2961TIP3   OH230373   5.340   5.881   3.125 -0.0127  0.3928  0.0062
 2961TIP3    H130374   5.390   5.911   3.050  0.6255  0.7228  0.5574
 2961TIP3    H230375   5.289   5.957   3.153  2.1560  1.2629  1.8556
 2962TIP3   OH230376   0.896   2.233   4.775 -0.1210  0.1774 -0.4589
 2962TIP3    H130377   0.849   2.198   4.700 -1.8810  2.3283 -0.4544
 2962TIP3    H230378   0.828   2.273   4.829  1.1737 -0.6883  1.9667
 2963TIP3   OH230379   5.735   5.857  12.071 -0.8786  0.3201  0.7664
 2963TIP3    H130380   5.725   5.883  11.979 -1.3236 -2.1159  0.0545
 2963TIP3    H230381   5.819   5.896  12.097 -1.3120  2.0803 -0.2517
 2964TIP3   OH230382   0.994   4.986   3.509  0.7628 -0.4730  0.1942
 2964TIP3    H130383   1.059   5.034   3.560  1.6650 -0.1901 -1.1902
 2964TIP3    H230384   0.919   4.978   3.568  0.9618  1.7249  0.8332
 2965TIP3   OH230385   6.222   2.512   4.537  0.3101  1.1595  0.1547
 2965TIP3    H130386   6.236   2.419   4.554  1.3733  0.9791 -1.5099
 2965TIP3    H230387   6.138   2.532   4.579 -1.4658 -1.2610 -1.9790
 2966TIP3   OH230388   1.345   3.810   4.910  0.4904 -0.2988 -0.1009
 2966TIP3    H130389   1.272   3.748   4.918 -0.2355  0.5250 -0.1445
 2966TIP3    H230390   1.303   3.892   4.884  1.3135  0.4936  1.0137
 2967TIP3   OH230391   5.646   3.357   2.511  0.0871 -0.1398  0.3127
 2967TIP3    H130392   5.630   3.447   2.540  1.2093 -0.2028  1.2063
 2967TIP3    H230393   5.714   3.364   2.444 -0.5424 -0.2452 -0.3493
 2968TIP3   OH230394   6.318   2.446   0.129 -0.1237  0.0731  0.6958
 2968TIP3    H130395   6.322   2.389   0.206  0.5014  0.0322  0.6355
 2968TIP3    H230396   6.366   2.524   0.154 -1.0150  0.6043  0.7907
 2969TIP3   OH230397   5.925   5.986  14.035  0.0524  0.6004  0.3295
 2969TIP3    H130398   5.985   5.912  14.021 -0.7346 -0.0164  0.1802
 2969TIP3    H230399   5.912   5.987  14.130  1.4974  1.7088  0.5574
 2970TIP3   OH230400   2.142   1.808  15.332  0.0295 -0.1293  0.1181
 2970TIP3    H130401   2.160   1.815  15.238  1.0730 -1.4206  0.1953
 2970TIP3    H230402   2.227   1.788  15.371 -0.1148  1.7543  1.5298
 2971TIP3   OH230403   5.189   3.790  14.029  0.1415  0.3132  0.8682
 2971TIP3    H130404   5.180   3.884  14.044 -0.2734  0.3294  0.5322
 2971TIP3    H230405   5.209   3.782  13.936  0.5662  0.0883  0.9745
 2972TIP3   OH230406   3.695   0.232  16.826  0.2651  0.0361 -0.1379
 2972TIP3    H130407   3.760   0.174  16.786  0.2549  0.1726 -0.3617
 2972TIP3    H230408   3.669   0.290  16.754  0.7556  0.7400  0.2393
 2973TIP3   OH230409   6.245   3.071   3.741 -0.3808  0.0041  0.4841
 2973TIP3    H130410   6.318   3.010   3.728 -1.0765 -1.0600  1.3608
 2973TIP3    H230411   6.215   3.053   3.830 -2.0360  0.0621 -0.0354
 2974TIP3   OH230412   3.905   1.386   6.236  0.4426 -0.0122 -0.1706
 2974TIP3    H130413   3.848   1.393   6.312 -0.4197  0.4200 -0.8361
 2974TIP3    H230414   3.983   1.341   6.268 -0.8879 -1.9868  0.4271
 2975TIP3   OH230415   4.902   5.377  15.233 -0.0312 -0.6643  0.3824
 2975TIP3    H130416   4.860   5.450  15.188 -2.2418 -1.2536  1.3363
 2975TIP3    H230417   4.992   5.406  15.249 -0.5088  1.3401 -0.3288
 2976TIP3   OH230418   0.648   5.354   5.868  1.0077 -0.2807  0.4715
 2976TIP3    H130419   0.579   5.342   5.803  0.8402 -0.2988  0.6528
 2976TIP3    H230420   0.604   5.342   5.952  0.9785  0.9294  0.6396
 2977TIP3   OH230421   1.052   4.608  16.119 -0.7701  0.3500 -0.0483
 2977TIP3    H130422   0.960   4.635  16.131 -0.6347  2.2748 -2.5230
 2977TIP3    H230423   1.061   4.530  16.174 -3.8735  0.0994  0.3102
 2978TIP3   OH230424   2.271   3.528  15.126  0.1459 -0.0728 -0.3919
 2978TIP3    H130425   2.320   3.611  15.124 -1.6318  1.0697  0.8691
 2978TIP3    H230426   2.190   3.549  15.172 -0.2307 -2.6239  0.2442
 2979TIP3   OH230427   3.406   3.182  15.594  0.5480  0.2166 -0.5719
 2979TIP3    H130428   3.451   3.252  15.641 -0.8778  1.1332 -0.5348
 2979TIP3    H230429   3.316   3.212  15.585 -0.4834 -2.2290  0.6801
 2980TIP3   OH230430   3.294   0.830  16.296  0.3122 -0.5580  0.0712
 2980TIP3    H130431   3.199   0.821  16.305  0.2052  0.3446  0.0009
 2980TIP3    H230432   3.308   0.851  16.203  0.5971 -0.9088  0.0337
 2981TIP3   OH230433   4.086   6.535  17.084 -0.3533  0.9575  0.0190
 2981TIP3    H130434   4.085   6.448  17.043  2.0459  1.8525 -2.1622
 2981TIP3    H230435   4.057   6.594  17.015  0.0502  2.1405  0.8328
 2982TIP3   OH230436   0.331   5.132  15.237 -0.3125 -0.5221 -0.4935
 2982TIP3    H130437   0.404   5.120  15.297  1.4883  0.0784 -2.4325
 2982TIP3    H230438   0.302   5.043  15.216 -0.0080 -0.7785  0.1416
 2983TIP3   OH230439   4.167   3.278   1.592 -0.3375 -0.2095 -0.0124
 2983TIP3    H130440   4.091   3.316   1.549  0.2521  0.0020 -0.8766
 2983TIP3    H230441   4.237   3.342   1.579  1.4240 -2.6120 -3.8105
 2984TIP3   OH230442   1.516   2.555   3.510  0.1592  0.5583  0.0702
 2984TIP3    H130443   1.488   2.465   3.529  1.2573  0.3236  0.6220
 2984TIP3    H230444   1.434   2.601   3.489 -0.9939  0.3791  3.5811
 2985TIP3   OH230445   2.375   6.411  10.237  0.4605 -0.6938  0.2595
 2985TIP3    H130446   2.454   6.464  10.231  0.6703 -0.6198  2.6999
 2985TIP3    H230447   2.305   6.469  10.207  1.2257 -0.5700 -1.3702
 2986TIP3   OH230448   6.725   0.195  14.783  0.4695  0.6056 -0.5172
 2986TIP3    H130449   6.728   0.158  14.871  0.7743 -0.8515 -1.1188
 2986TIP3    H230450   6.776   0.276  14.789 -0.6907  1.2830  0.9611
 2987TIP3   OH230451   1.716   0.112   1.008 -0.1114  0.0783 -0.5132
 2987TIP3    H130452   1.622   0.129   1.013 -0.0254  0.2457  0.7651
 2987TIP3    H230453   1.740   0.083   1.096  1.3031  1.5089 -0.3776
 2988TIP3   OH230454   3.525   3.536   2.763  0.3070 -0.5172  0.0383
 2988TIP3    H130455   3.498   3.504   2.677 -3.6642  1.3703  0.3775
 2988TIP3    H230456   3.499   3.467   2.824 -0.7274 -0.1369  0.0464
 2989TIP3   OH230457   0.343   4.969   0.852 -0.2660 -0.2031  0.4722
 2989TIP3    H130458   0.294   4.890   0.874 -1.9138 -0.4080 -3.1817
 2989TIP3    H230459   0.278   5.039   0.857 -0.1251  0.0780 -0.9887
 2990TIP3   OH230460   6.791   2.411   1.676  0.4271 -0.6703  0.1694
 2990TIP3    H130461   6.834   2.470   1.738  0.4133 -0.2293 -0.2325
 2990TIP3    H230462   6.758   2.469   1.607  2.8636 -1.3536 -1.7409
 2991TIP3   OH230463   6.474   5.477  14.453 -0.1078 -0.1378  0.1934
 2991TIP3    H130464   6.557   5.474  14.500  1.2336 -0.0920 -2.0198
 2991TIP3    H230465   6.413   5.518  14.514  1.2203 -1.0472  2.2475
 2992TIP3   OH230466   4.304   4.369   2.919 -0.7570 -0.6777 -0.2395
 2992TIP3    H130467   4.285   4.437   2.984  0.4340 -0.0048 -0.5713
 2992TIP3    H230468   4.220   4.354   2.876 -1.1030  0.4068  0.0143
 2993TIP3   OH230469   2.174   5.377   2.175 -0.6087  0.4439  0.4928
 2993TIP3    H130470   2.133   5.408   2.094 -0.1312 -0.7717 -0.2441
 2993TIP3    H230471   2.236   5.446   2.199 -0.4854  0.6438 -0.3877
 2994TIP3   OH230472   3.420   2.429  15.851 -0.0710 -0.2197 -0.2052
 2994TIP3    H130473   3.380   2.345  15.827 -0.2970  0.0159 -0.6588
 2994TIP3    H230474   3.428   2.476  15.768  1.9928 -0.6149 -0.2956
 2995TIP3   OH230475   3.991   4.521   4.193 -0.6199  0.5433 -0.0010
 2995TIP3    H130476   4.060   4.578   4.158 -1.5743  1.2742 -0.7570
 2995TIP3    H230477   3.926   4.582   4.229 -2.3105  0.0706 -2.0272
 2996TIP3   OH230478   5.573   4.970   6.544 -0.1347 -0.1513 -0.1309
 2996TIP3    H130479   5.482   4.955   6.569 -0.0821 -0.7542 -0.2832
 2996TIP3    H230480   5.604   4.884   6.516  1.0245 -0.3628  1.6486
 2997TIP3   OH230481   5.697   3.632  15.830  0.1552 -0.2951 -0.1279
 2997TIP3    H130482   5.698   3.712  15.882 -0.4588 -0.1934 -0.2651
 2997TIP3    H230483   5.642   3.653  15.755 -0.4277 -1.0024  0.0859
 2998TIP3   OH230484   0.266   5.044  12.300  0.0366 -0.3599  0.5749
 2998TIP3    H130485   0.278   5.135  12.328  3.3172 -0.3179 -0.5478
 2998TIP3    H230486   0.235   4.998  12.378  1.0278  1.2004  1.9537
 2999TIP3   OH230487   1.885   5.375  14.091 -0.5078  0.3070 -0.0486
 2999TIP3    H130488   1.854   5.415  14.009  1.3510  0.7947 -0.5638
 2999TIP3    H230489   1.831   5.415  14.159 -0.8951  1.2469 -0.8788
 3000TIP3   OH230490   5.241   4.685  12.970  0.2430  0.1525  0.1134
 3000TIP3    H130491   5.224   4.716  13.059  1.8281  1.2632  0.0646
 3000TIP3    H230492   5.335   4.695  12.959  0.2669 -1.2318 -1.2438
 3001TIP3   OH230493   6.267   1.904   0.317 -0.7923  0.0712 -0.3832
 3001TIP3    H130494   6.286   1.872   0.405  1.8438  0.8624 -0.5962
 3001TIP3    H230495   6.208   1.978   0.331 -0.7350 -0.0654  0.6882
 3002TIP3   OH230496   5.362   5.022  17.112  0.3474 -0.3501  0.3876
 3002TIP3    H130497   5.294   5.087  17.125  0.2569 -0.2862 -0.3227
 3002TIP3    H230498   5.440   5.074  17.090 -0.0667 -0.4812 -1.6557
 3003TIP3   OH230499   3.497   0.976   1.843 -0.4642 -0.5397  0.2638
 3003TIP3    H130500   3.447   1.009   1.918  0.6475 -0.3506  0.9304
 3003TIP3    H230501   3.583   1.016   1.852 -0.0425 -1.2299 -0.6234
 3004TIP3   OH230502   4.511   5.332   0.460  0.0848 -0.2060 -0.0802
 3004TIP3    H130503   4.497   5.251   0.511  0.5736  0.4621  1.1491
 3004TIP3    H230504   4.605   5.337   0.448  0.1119  0.5023  0.3969
 3005TIP3   OH230505   5.486   3.656   3.590 -0.0514 -0.4008 -0.4227
 3005TIP3    H130506   5.429   3.699   3.526 -0.3160 -0.7022 -0.3933
 3005TIP3    H230507   5.562   3.713   3.597 -1.0723  0.8647  0.7556
 3006TIP3   OH230508   1.727   6.593   3.919 -0.1331 -0.0798 -0.1037
 3006TIP3    H130509   1.676   6.582   3.999 -0.6091 -0.1595 -0.4172
 3006TIP3    H230510   1.708   6.682   3.890 -2.2379 -0.9534 -1.6776
 3007TIP3   OH230511   2.637   4.700   0.994 -0.6647 -0.5679  0.1375
 3007TIP3    H130512   2.629   4.677   1.087  0.5640  0.9838  0.6677
 3007TIP3    H230513   2.665   4.619   0.952 -1.1356 -1.2701  1.1228
 3008TIP3   OH230514   4.088   4.552  16.710  0.3626 -0.5039  0.2147
 3008TIP3    H130515   4.095   4.464  16.747  1.1450 -0.2925  0.5949
 3008TIP3    H230516   4.169   4.564  16.660 -0.1310 -0.3220 -0.5442
 3009TIP3   OH230517   3.804   2.997  14.641 -0.0960  0.4896  0.2727
 3009TIP3    H130518   3.832   2.942  14.714 -2.6030 -1.5523 -0.1824
 3009TIP3    H230519   3.835   2.952  14.563 -2.3815 -0.5286 -0.1183
 3010TIP3   OH230520   4.661   5.594  11.338 -0.1068 -0.2773 -0.1092
 3010TIP3    H130521   4.611   5.655  11.284 -0.3259 -0.8684 -0.5888
 3010TIP3    H230522   4.727   5.559  11.279  0.8935  0.4980  0.5221
 3011TIP3   OH230523   3.159   2.259  13.683  0.6706 -0.1385 -0.6314
 3011TIP3    H130524   3.147   2.321  13.611  1.2614  1.2799  0.4588
 3011TIP3    H230525   3.241   2.214  13.662  0.3837 -0.3786 -1.2843
 3012TIP3   OH230526   1.611   5.138  13.534 -0.3403 -0.4209  0.4765
 3012TIP3    H130527   1.547   5.135  13.605  1.1605 -0.1566  1.9057
 3012TIP3    H230528   1.691   5.104  13.573  0.4983 -0.3989 -1.1544
 3013TIP3   OH230529   2.867   5.931   3.902 -0.2206  0.4152 -0.5371
 3013TIP3    H130530   2.917   5.854   3.929  1.5796  2.0269  0.9424
 3013TIP3    H230531   2.906   6.004   3.950 -2.9396  2.0465 -0.6081
 3014TIP3   OH230532   4.886   0.911  12.424 -0.1442 -0.7501 -0.4723
 3014TIP3    H130533   4.910   0.843  12.361  0.5631 -0.7370 -0.2233
 3014TIP3    H230534   4.911   0.993  12.380  4.0884 -0.8558  1.2939
 3015TIP3   OH230535   3.724   4.766  11.336 -0.0173 -0.7187  0.3639
 3015TIP3    H130536   3.670   4.799  11.264 -1.0597 -1.5391  0.7453
 3015TIP3    H230537   3.665   4.710  11.386  1.4966 -2.6317  0.1234
 3016TIP3   OH230538   5.266   1.056  13.003 -0.5214  0.2088  0.0723
 3016TIP3    H130539   5.339   1.052  12.941 -0.4868  2.2182 -0.0527
 3016TIP3    H230540   5.187   1.054  12.949 -0.5561 -0.6240  0.1363
 3017TIP3   OH230541   2.111   0.606  15.821 -0.0175 -0.0112  0.2800
 3017TIP3    H130542   2.061   0.652  15.753  1.1093  1.2420  0.2499
 3017TIP3    H230543   2.068   0.631  15.902  0.1927  0.6180  0.2099
 3018TIP3   OH230544   1.599   1.466  14.310 -0.2150 -0.0602  0.5276
 3018TIP3    H130545   1.649   1.397  14.354  0.3822 -0.7032 -1.0733
 3018TIP3    H230546   1.570   1.523  14.381  1.1343 -0.7514  1.6941
 3019TIP3   OH230547   2.718   6.453  14.040  0.3751 -0.1875  0.4490
 3019TIP3    H130548   2.680   6.366  14.052  1.5294 -0.5213  1.7930
 3019TIP3    H230549   2.733   6.486  14.128 -0.2649  1.5102 -0.0221
 3020TIP3   OH230550   5.792   3.494   5.420 -0.0633 -0.0345 -0.3751
 3020TIP3    H130551   5.767   3.402   5.413  2.6997 -0.8797 -0.4481
 3020TIP3    H230552   5.822   3.518   5.332 -1.7588  1.3491 -0.6467
 3021TIP3   OH230553   3.776   6.596   5.564 -0.0171 -0.1691 -0.4578
 3021TIP3    H130554   3.785   6.501   5.572  0.3306 -0.2256 -1.4331
 3021TIP3    H230555   3.761   6.626   5.654  0.1474 -1.1105 -0.1030
 3022TIP3   OH230556   0.573   6.429   4.495  0.5855  0.3228 -0.2974
 3022TIP3    H130557   0.636   6.358   4.489 -0.3484 -0.5333 -0.2572
 3022TIP3    H230558   0.497   6.390   4.538  0.9602  1.9668  2.0611
 3023TIP3   OH230559   0.223   2.625   5.557  0.0276 -0.6455 -0.1665
 3023TIP3    H130560   0.197   2.596   5.469  2.1364 -0.4991 -0.8742
 3023TIP3    H230561   0.192   2.716   5.562 -0.6313 -0.8398 -0.4990
 3024TIP3   OH230562   4.345   1.222  15.198 -0.3533  0.3329 -0.2051
 3024TIP3    H130563   4.299   1.242  15.117 -0.1285  0.0468 -0.4082
 3024TIP3    H230564   4.409   1.292  15.208  0.4133 -0.2485 -0.8969
 3025TIP3   OH230565   0.094   3.884   2.183  0.2833  0.1996  0.1335
 3025TIP3    H130566   0.155   3.892   2.109 -2.1513  2.0473 -1.8823
 3025TIP3    H230567   0.122   3.950   2.245  0.7586  0.5707 -0.4648
 3026TIP3   OH230568   1.724   4.634  15.397  0.5572  0.1776  0.5741
 3026TIP3    H130569   1.690   4.715  15.358  2.0090 -0.0205 -1.2316
 3026TIP3    H230570   1.742   4.658  15.489 -0.8499  1.3171  0.5894
 3027TIP3   OH230571   3.494   5.311   5.441 -0.3465 -0.0748 -0.4589
 3027TIP3    H130572   3.500   5.289   5.534  0.3369  1.5102 -0.0910
 3027TIP3    H230573   3.546   5.244   5.397  0.8361  0.1820  0.4960
 3028TIP3   OH230574   2.097   1.427   0.116  0.4778  0.0951  0.5816
 3028TIP3    H130575   2.058   1.356   0.167  1.1997 -1.2463 -0.6953
 3028TIP3    H230576   2.067   1.412   0.027  0.7340  1.3465  0.2627
 3029TIP3   OH230577   3.382   2.450  16.207 -0.0146 -0.5830  0.3838
 3029TIP3    H130578   3.292   2.456  16.240  0.5202 -1.6328  2.1792
 3029TIP3    H230579   3.430   2.517  16.255  0.2306 -0.1672 -0.4158
 3030TIP3   OH230580   1.597   0.454   6.054  0.1448  0.0796 -0.1911
 3030TIP3    H130581   1.665   0.407   6.103 -0.6007 -2.4696 -1.3910
 3030TIP3    H230582   1.517   0.404   6.071 -0.8717  1.3514 -1.0438
 3031TIP3   OH230583   3.186   0.081  13.639 -0.3510 -0.5192  0.4025
 3031TIP3    H130584   3.261   0.136  13.616 -0.3553 -0.1903  1.1370
 3031TIP3    H230585   3.138   0.132  13.704 -0.9031 -0.9695  0.3545
 3032TIP3   OH230586   4.432   1.060  13.175 -0.4035  0.6225  0.3197
 3032TIP3    H130587   4.421   1.042  13.268  0.7309 -2.1578  0.0234
 3032TIP3    H230588   4.391   0.986  13.131  0.7852  0.8819 -1.3182
 3033TIP3   OH230589   2.950   4.673  14.236 -0.5024  0.2242 -0.1208
 3033TIP3    H130590   2.876   4.671  14.176  0.4947 -1.1605 -1.3934
 3033TIP3    H230591   2.922   4.619  14.310 -1.3000  0.9536  0.1250
 3034TIP3   OH230592   3.403   0.201  13.086 -0.5110  0.8019  0.4802
 3034TIP3    H130593   3.394   0.139  13.013 -0.1396  1.4418 -0.1217
 3034TIP3    H230594   3.321   0.192  13.134  0.4781 -1.9739  1.9001
 3035TIP3   OH230595   3.848   0.141  16.489 -0.0172 -0.1900 -0.3045
 3035TIP3    H130596   3.861   0.135  16.584 -1.7820 -0.1602 -0.0284
 3035TIP3    H230597   3.812   0.056  16.463  2.0102 -0.8107 -1.2658
 3036TIP3   OH230598   2.701   1.075  16.681  0.4223  0.4202  0.4381
 3036TIP3    H130599   2.660   1.151  16.639 -1.2071 -1.9836 -2.7859
 3036TIP3    H230600   2.630   1.036  16.733  0.0166 -0.9616 -1.0779
 3037TIP3   OH230601   4.071   5.511   2.441 -0.3917 -0.9707  0.1764
 3037TIP3    H130602   3.998   5.452   2.457 -0.0648 -1.3767  0.1899
 3037TIP3    H230603   4.125   5.466   2.376 -0.2884 -0.5611 -0.0206
 3038TIP3   OH230604   0.331   5.281   0.332 -0.1731 -0.0558 -0.0352
 3038TIP3    H130605   0.364   5.356   0.382 -0.2528  0.4436 -0.7304
 3038TIP3    H230606   0.381   5.206   0.365  0.5387  0.4423  0.0305
 3039TIP3   OH230607   5.398   2.030  15.883  0.2697 -0.2161  0.1521
 3039TIP3    H130608   5.408   2.029  15.788  1.0779  0.0337  0.2255
 3039TIP3    H230609   5.461   1.964  15.914 -0.8627 -1.1851  0.4475
 3040TIP3   OH230610   5.424   4.962  15.200 -0.6512 -0.8505  0.6049
 3040TIP3    H130611   5.411   5.051  15.166 -0.2237 -1.1284 -0.3146
 3040TIP3    H230612   5.354   4.951  15.264 -0.8404  0.0718  0.5811
 3041TIP3   OH230613   2.784   5.030   3.000  0.0728 -0.0078  0.0538
 3041TIP3    H130614   2.711   4.973   2.976  1.3468 -1.4875 -0.4894
 3041TIP3    H230615   2.862   4.983   2.971  1.1847  2.2517 -0.8618
 3042TIP3   OH230616   3.068   4.056  16.859  0.2668 -0.0160 -0.0923
 3042TIP3    H130617   3.119   4.036  16.780  1.4440  2.2072  0.0032
 3042TIP3    H230618   3.007   3.983  16.868  0.9336 -0.9430 -2.3524
 3043TIP3   OH230619   3.147   3.486   5.994 -0.0307 -0.1450 -0.1191
 3043TIP3    H130620   3.096   3.512   6.071 -0.9695  1.5835 -1.2543
 3043TIP3    H230621   3.204   3.416   6.025 -1.5406 -0.6273  1.7475
 3044TIP3   OH230622   6.460   1.133   0.842  0.3344 -0.1740  0.6320
 3044TIP3    H130623   6.416   1.092   0.768  0.1642  1.8600 -0.4559
 3044TIP3    H230624   6.517   1.065   0.878 -0.5514 -1.5729 -0.5563
 3045TIP3   OH230625   5.269   1.398   4.040 -0.2905  0.0359  0.1356
 3045TIP3    H130626   5.212   1.407   3.964 -1.7752 -1.9430  0.9211
 3045TIP3    H230627   5.212   1.362   4.109  1.5533 -0.5903  1.4166
 3046TIP3   OH230628   6.739   1.925  14.789 -0.2032 -0.1205  0.1312
 3046TIP3    H130629   6.690   1.879  14.857 -2.9122  1.3554 -0.6961
 3046TIP3    H230630   6.753   2.013  14.824  1.8258 -0.4524  0.2783
 3047TIP3   OH230631   5.652   0.454  15.545  0.4667 -0.7212 -0.0792
 3047TIP3    H130632   5.708   0.520  15.587 -1.0152  0.9128 -0.5613
 3047TIP3    H230633   5.701   0.428  15.467  0.6879  0.5012 -0.3680
 3048TIP3   OH230634   4.081   0.872  16.147 -0.1695  0.3425  0.1365
 3048TIP3    H130635   4.025   0.856  16.223  0.4896  1.7541  0.9532
 3048TIP3    H230636   4.130   0.951  16.169  0.4332  0.4817 -1.5414
 3049TIP3   OH230637   1.885   5.859   5.942 -0.1203 -0.1405  0.0797
 3049TIP3    H130638   1.872   5.799   5.868 -2.1664  0.1466  0.1627
 3049TIP3    H230639   1.797   5.875   5.976  0.4496  2.2003  0.6332
 3050TIP3   OH230640   2.786   6.062  14.694 -0.1422 -0.0580  0.2682
 3050TIP3    H130641   2.787   6.059  14.790 -0.1726  2.1877  0.3708
 3050TIP3    H230642   2.696   6.041  14.670 -0.4770  0.7465  0.8000
 3051TIP3   OH230643   3.923   3.030  13.673  0.2868  0.4884 -0.3702
 3051TIP3    H130644   3.888   2.946  13.704 -0.1226  0.7045 -0.2398
 3051TIP3    H230645   3.936   3.017  13.579 -1.4922  0.8442 -0.6988
 3052TIP3   OH230646   1.976   6.387   4.741 -0.4255  0.3410 -0.3116
 3052TIP3    H130647   1.989   6.408   4.649  1.3513 -0.8780 -0.3974
 3052TIP3    H230648   1.884   6.407   4.758 -0.3072  2.4635 -1.8056
 3053TIP3   OH230649   6.140   6.307  10.909  0.3673 -0.5126 -0.4147
 3053TIP3    H130650   6.052   6.324  10.941  0.8496  1.9238 -0.1407
 3053TIP3    H230651   6.176   6.394  10.891  2.4805 -1.4635 -1.1510
 3054TIP3   OH230652   3.110   5.731  15.475  0.3475  0.0023 -0.1986
 3054TIP3    H130653   3.031   5.715  15.424 -0.1355 -1.9958  1.0582
 3054TIP3    H230654   3.095   5.816  15.517 -0.4665  0.3344 -1.1308
 3055TIP3   OH230655   1.784   2.057  16.094  0.1284  0.5081  0.0144
 3055TIP3    H130656   1.877   2.044  16.073  0.3986  1.0476  0.8275
 3055TIP3    H230657   1.750   2.109  16.021  0.3823  0.0091 -0.4616
 3056TIP3   OH230658   4.310   6.020  11.337 -0.1816 -0.3471  0.3575
 3056TIP3    H130659   4.218   6.006  11.359 -0.5229  1.0947 -0.0509
 3056TIP3    H230660   4.308   6.080  11.262  1.1040  1.0784  1.4001
 3057TIP3   OH230661   0.901   3.978  13.302 -0.0881  0.3580 -0.6502
 3057TIP3    H130662   0.943   3.897  13.274 -0.8221  0.2662 -1.5385
 3057TIP3    H230663   0.847   3.953  13.377  0.9573  0.3685  0.1312
 3058TIP3   OH230664   4.487   5.854  16.508  0.0216  0.4879 -0.3430
 3058TIP3    H130665   4.500   5.896  16.423  0.6782 -0.9925 -1.0240
 3058TIP3    H230666   4.553   5.895  16.565  1.6274 -0.5268 -1.3660
 3059TIP3   OH230667   4.249   5.806   5.875 -0.2158 -0.4181 -0.0409
 3059TIP3    H130668   4.200   5.869   5.929  2.7591  2.5179 -0.4693
 3059TIP3    H230669   4.314   5.769   5.935 -0.0048 -0.8104 -0.5111
 3060TIP3   OH230670   2.478   6.691   4.310  0.1812  0.3758 -0.0388
 3060TIP3    H130671   2.547   6.750   4.338  0.4375 -0.0443  0.2173
 3060TIP3    H230672   2.521   6.630   4.250  0.1192 -0.1163  0.4092
 3061TIP3   OH230673   2.714   6.029   2.759  0.0737 -0.6951  0.1280
 3061TIP3    H130674   2.744   6.046   2.669  0.9032  0.2168  0.5673
 3061TIP3    H230675   2.774   6.078   2.814  0.1708 -2.0294  1.2520
 3062TIP3   OH230676   4.087   6.500  12.162 -0.4130  0.2647 -0.0610
 3062TIP3    H130677   4.096   6.587  12.201  0.1320  0.3894 -0.4398
 3062TIP3    H230678   4.172   6.484  12.120 -0.4987 -0.4653  0.0325
 3063TIP3   OH230679   4.020   2.952   3.276 -0.7233  0.0311 -0.6454
 3063TIP3    H130680   4.097   2.994   3.238 -1.1360 -0.2107 -1.7671
 3063TIP3    H230681   3.993   2.887   3.212 -2.0433  0.3172 -0.4225
 3064TIP3   OH230682   2.415   3.538  12.595  0.6672 -0.4375 -0.4242
 3064TIP3    H130683   2.440   3.617  12.547 -1.1713 -0.0716 -0.8654
 3064TIP3    H230684   2.320   3.536  12.588  0.3299 -0.5637  2.9456
 3065TIP3   OH230685   4.766   2.539  13.608  0.3682 -0.3094 -0.9294
 3065TIP3    H130686   4.736   2.518  13.520 -2.1472 -1.7203  0.1355
 3065TIP3    H230687   4.832   2.471  13.627 -0.4433 -1.1693 -1.0894
 3066TIP3   OH230688   5.283   6.158  13.321  0.3812 -0.3203 -0.1409
 3066TIP3    H130689   5.349   6.127  13.383  1.2040  1.4729 -0.0457
 3066TIP3    H230690   5.203   6.165  13.372  0.3857 -1.3695  0.0392
 3067TIP3   OH230691   4.095   2.529  12.694 -0.2460 -0.2053 -0.2328
 3067TIP3    H130692   4.098   2.514  12.599 -0.4761  0.1491 -0.2968
 3067TIP3    H230693   4.037   2.459  12.726 -0.4230 -0.1317 -0.3921
 3068TIP3   OH230694   4.209   6.573   0.638 -0.5764 -0.1696 -0.1029
 3068TIP3    H130695   4.227   6.633   0.566 -1.1787  0.1061 -0.0253
 3068TIP3    H230696   4.256   6.493   0.614  0.5850  0.4551  0.0052
 3069TIP3   OH230697   3.924   3.437   5.628  0.4304 -0.0152 -0.2568
 3069TIP3    H130698   3.865   3.463   5.557  0.4328  0.3595 -0.1230
 3069TIP3    H230699   3.924   3.512   5.688 -0.9882 -1.0170  1.0781
 3070TIP3   OH230700   0.681   1.259  12.298 -0.4058  0.1139 -0.4631
 3070TIP3    H130701   0.738   1.336  12.303  0.2273 -0.3303 -0.8328
 3070TIP3    H230702   0.620   1.279  12.227  0.2956 -0.0809 -1.1243
 3071TIP3   OH230703   6.800   6.472  11.415  0.1071  0.1181 -0.3551
 3071TIP3    H130704   6.768   6.485  11.504  0.4597 -0.3074 -0.1592
 3071TIP3    H230705   6.888   6.510  11.415  1.0676 -1.9393  0.1715
 3072TIP3   OH230706   6.361   0.130  10.756  0.9033  0.1885 -0.2908
 3072TIP3    H130707   6.268   0.121  10.776  1.1681 -1.3426  0.3864
 3072TIP3    H230708   6.373   0.224  10.739 -0.6422  0.4985  0.1947
 3073TIP3   OH230709   4.061   2.198   0.967  0.4624 -0.1965  0.5006
 3073TIP3    H130710   3.983   2.247   0.993  0.2002 -0.4990  0.2889
 3073TIP3    H230711   4.123   2.212   1.039  0.0297 -0.3745  0.9143
 3074TIP3   OH230712   4.867   1.467   4.700 -0.1493  0.0659 -0.1393
 3074TIP3    H130713   4.915   1.384   4.701 -2.0110 -1.0833  1.4417
 3074TIP3    H230714   4.878   1.502   4.789 -2.0190 -0.1669  0.2321
 3075TIP3   OH230715   2.637   1.264   6.678 -0.0854 -0.1262  0.9975
 3075TIP3    H130716   2.543   1.248   6.668  0.2973 -2.1974  0.0423
 3075TIP3    H230717   2.664   1.300   6.594  0.0005  0.3204  1.2169
 3076TIP3   OH230718   4.281   5.092   1.139  0.4705 -0.1558  0.5411
 3076TIP3    H130719   4.244   5.126   1.220 -0.4296  0.4225 -0.0980
 3076TIP3    H230720   4.221   5.120   1.071  1.9354  0.5698 -0.5184
 3077TIP3   OH230721   2.764   6.469  15.079 -0.2712  0.2640 -0.3053
 3077TIP3    H130722   2.792   6.382  15.051 -0.6642  0.5217 -1.5715
 3077TIP3    H230723   2.798   6.528  15.011 -1.1798  0.9247 -0.2034
 3078TIP3   OH230724   4.008   0.245  11.833  0.3798 -0.6039  0.5476
 3078TIP3    H130725   4.094   0.287  11.830  0.3707 -0.6165  0.1768
 3078TIP3    H230726   3.977   0.262  11.923 -0.1915  1.3305  0.0399
 3079TIP3   OH230727   3.446   5.652   5.069  0.5981 -0.1967 -0.0637
 3079TIP3    H130728   3.489   5.722   5.118 -0.0467  1.1320 -1.3137
 3079TIP3    H230729   3.518   5.592   5.046  1.4622  0.9206 -0.3802
 3080TIP3   OH230730   1.943   2.471   4.629  0.4302 -0.5705 -0.1714
 3080TIP3    H130731   2.030   2.433   4.617  0.5508 -0.2324 -0.3928
 3080TIP3    H230732   1.904   2.470   4.542  0.7856  0.6300 -0.3770
 3081TIP3   OH230733   4.857   5.039   1.565 -0.4390  0.5673 -0.2932
 3081TIP3    H130734   4.819   5.074   1.645 -0.3960  0.8371 -0.3911
 3081TIP3    H230735   4.798   4.968   1.540 -1.0832  1.2107 -0.6367
 3082TIP3   OH230736   5.363   6.129   4.242 -0.5566  0.8984 -0.0664
 3082TIP3    H130737   5.417   6.123   4.321 -0.9579  1.9810  0.3062
 3082TIP3    H230738   5.283   6.172   4.272 -0.4252  1.9646 -1.1990
 3083TIP3   OH230739   6.392   1.465  16.318 -0.5794 -0.1129  0.3192
 3083TIP3    H130740   6.415   1.373  16.306 -2.3107 -0.5136 -0.1864
 3083TIP3    H230741   6.428   1.508  16.241 -0.7490 -0.5574 -0.0126
 3084TIP3   OH230742   0.143   0.189   3.040 -0.1928 -0.5304 -0.7091
 3084TIP3    H130743   0.148   0.190   2.944 -1.5701 -0.2115 -0.8014
 3084TIP3    H230744   0.152   0.282   3.064 -0.4741 -0.5402 -0.5711
 3085TIP3   OH230745   1.689   5.672   2.875  0.1338  0.0098 -0.2197
 3085TIP3    H130746   1.629   5.706   2.809  0.0347 -0.2835 -0.2798
 3085TIP3    H230747   1.761   5.633   2.825 -0.0134 -0.3419 -0.1552
 3086TIP3   OH230748   4.012   4.284  14.535 -0.3037  0.0029  0.0480
 3086TIP3    H130749   4.088   4.286  14.594  0.4551  1.1238 -0.9333
 3086TIP3    H230750   4.049   4.293  14.447 -1.4823 -0.8191 -0.5680
 3087TIP3   OH230751   1.355   5.226  10.969  0.0647  0.6352 -0.8118
 3087TIP3    H130752   1.413   5.210  10.894  0.5194  1.5911 -0.6857
 3087TIP3    H230753   1.340   5.320  10.968 -2.3701  0.2817 -1.4482
 3088TIP3   OH230754   0.214   5.850  11.890  0.3569  0.4202  0.2831
 3088TIP3    H130755   0.187   5.926  11.839  2.1486 -0.0593 -1.5143
 3088TIP3    H230756   0.162   5.777  11.856 -1.1240  0.7091  1.7825
 3089TIP3   OH230757   6.741   2.321  17.008  0.1621  0.2087  0.7354
 3089TIP3    H130758   6.830   2.311  16.974 -0.1622 -0.1775 -0.0477
 3089TIP3    H230759   6.749   2.382  17.081  0.9134  1.0706 -0.0316
 3090TIP3   OH230760   3.496   1.749  16.416 -0.3102  0.2404 -0.2879
 3090TIP3    H130761   3.408   1.723  16.386 -0.3716  0.0035  0.0925
 3090TIP3    H230762   3.480   1.827  16.469 -0.1940  0.7007 -0.9202
 3091TIP3   OH230763   6.034   5.905   2.473 -0.3519  0.0718  0.5789
 3091TIP3    H130764   6.081   5.947   2.545 -1.1103  2.7132 -0.3507
 3091TIP3    H230765   6.100   5.894   2.404  0.0593 -1.2312  1.1371
 3092TIP3   OH230766   2.587   5.837  12.713  0.0690 -0.0569 -0.0986
 3092TIP3    H130767   2.529   5.761  12.720 -0.0167 -0.0788 -0.9118
 3092TIP3    H230768   2.530   5.913  12.719 -0.1105 -0.0817 -1.3117
 3093TIP3   OH230769   6.088   0.053   2.442  0.4221 -0.6312 -0.1340
 3093TIP3    H130770   6.055   0.074   2.530  2.7596  0.5707  0.5465
 3093TIP3    H230771   6.137   0.131   2.416  0.6842 -1.3921 -2.0724
 3094TIP3   OH230772   5.761   5.022  15.968 -0.5218  0.0223 -0.4484
 3094TIP3    H130773   5.723   4.967  16.036  1.3752 -1.9749 -0.8972
 3094TIP3    H230774   5.790   5.101  16.014 -0.9334 -0.4865  0.7004
 3095TIP3   OH230775   2.883   0.601  12.675  0.0906  0.4552  0.7597
 3095TIP3    H130776   2.910   0.519  12.717 -2.4404 -0.2068  1.2746
 3095TIP3    H230777   2.837   0.649  12.744  2.0647  2.6636  0.6370
 3096TIP3   OH230778   2.363   0.271  15.571  0.3594  0.3466 -0.1375
 3096TIP3    H130779   2.336   0.311  15.488 -1.1702  1.5954  0.9160
 3096TIP3    H230780   2.380   0.345  15.629  0.9626 -0.5206  0.8213
 3097TIP3   OH230781   6.706   3.335   2.632 -0.1315  1.2177  0.0837
 3097TIP3    H130782   6.650   3.324   2.555  0.4850 -0.7975 -0.1476
 3097TIP3    H230783   6.794   3.316   2.600  0.0162 -0.6928  1.4543
 3098TIP3   OH230784   2.214   5.455  12.007  0.5774  0.1976  0.0942
 3098TIP3    H130785   2.304   5.480  11.984  0.4551 -0.5429 -1.2530
 3098TIP3    H230786   2.208   5.474  12.101  2.1022  0.3700  0.1890
 3099TIP3   OH230787   6.606   5.826  12.502 -0.1831  0.0256  0.7477
 3099TIP3    H130788   6.581   5.812  12.593 -0.4485  0.7403  0.7949
 3099TIP3    H230789   6.548   5.768  12.452  2.1538 -2.9235  1.1553
 3100TIP3   OH230790   0.399   1.027   2.821 -0.2536 -0.4478 -0.0402
 3100TIP3    H130791   0.411   0.946   2.771 -0.3048 -0.1891 -0.4687
 3100TIP3    H230792   0.377   1.093   2.756  0.8199  0.1437  0.1721
 3101TIP3   OH230793   5.426   6.011  13.502 -0.0070 -0.3444 -0.1111
 3101TIP3    H130794   5.382   6.024  13.586 -0.9947  1.8158 -0.8932
 3101TIP3    H230795   5.516   6.039  13.517 -0.1950  0.0884  0.2057
 3102TIP3   OH230796   5.652   5.635   0.313  0.3986 -0.0097 -0.0849
 3102TIP3    H130797   5.648   5.624   0.218  0.7795  1.1021 -0.2455
 3102TIP3    H230798   5.672   5.548   0.346 -0.1379 -0.4949 -0.9917
 3103TIP3   OH230799   2.011   4.603   5.656  0.0492 -0.5433 -0.1490
 3103TIP3    H130800   1.925   4.610   5.697  0.5604 -1.0281  1.0574
 3103TIP3    H230801   2.013   4.674   5.592 -1.4173 -0.8194 -0.5321
 3104TIP3   OH230802   5.736   5.292   2.364 -0.1755 -0.2610  0.3655
 3104TIP3    H130803   5.644   5.315   2.353 -0.2760 -1.3557 -1.6180
 3104TIP3    H230804   5.735   5.223   2.430 -0.5633  0.9281  1.6255
 3105TIP3   OH230805   2.886   3.284  11.779  0.3855 -0.7708 -0.1013
 3105TIP3    H130806   2.850   3.372  11.771  2.0315 -0.0187  0.1907
 3105TIP3    H230807   2.820   3.235  11.827 -1.6637 -0.4081 -2.3645
 3106TIP3   OH230808   5.375   0.479   2.100 -0.4099  0.0958  0.4230
 3106TIP3    H130809   5.463   0.496   2.134 -1.1595  0.6981  2.1828
 3106TIP3    H230810   5.340   0.566   2.080 -0.8332 -0.0958  0.3198
 3107TIP3   OH230811   2.531   4.284  14.816 -0.1329  0.3083  0.4398
 3107TIP3    H130812   2.451   4.267  14.765 -0.8318 -0.4139  1.7401
 3107TIP3    H230813   2.601   4.287  14.750 -1.0237 -0.4441 -0.5828
 3108TIP3   OH230814   0.117   4.106  13.293  0.0865  0.5818  0.2900
 3108TIP3    H130815   0.112   4.156  13.212  2.6820 -0.8908 -0.8846
 3108TIP3    H230816   0.181   4.037  13.276  0.1877 -0.2570  3.3690
 3109TIP3   OH230817   1.778   2.032   3.912  0.2362  0.2395 -0.2727
 3109TIP3    H130818   1.784   1.941   3.883 -3.2168  0.1913 -1.2581
 3109TIP3    H230819   1.866   2.067   3.899  0.9074 -2.0779 -2.9405
 3110TIP3   OH230820   0.591   2.475  13.298 -0.0287  0.0049  0.1590
 3110TIP3    H130821   0.620   2.556  13.339 -0.0776  0.0324  0.1393
 3110TIP3    H230822   0.535   2.503  13.225 -3.2881 -0.0489  2.4226
 3111TIP3   OH230823   3.652   0.642  14.683 -0.1043 -0.4575 -0.3305
 3111TIP3    H130824   3.567   0.685  14.692 -0.2206 -0.8147  0.3800
 3111TIP3    H230825   3.711   0.711  14.653 -1.0908 -0.6975 -3.0951
 3112TIP3   OH230826   0.966   0.028  15.416 -0.2978  0.2456  0.0734
 3112TIP3    H130827   1.051   0.022  15.460 -0.4025  0.5649  0.3179
 3112TIP3    H230828   0.988   0.028  15.322 -0.0767 -0.4696  0.1194
 3113TIP3   OH230829   4.567   1.696   6.010 -0.0449 -0.2099  0.0577
 3113TIP3    H130830   4.639   1.743   6.052  2.1171 -2.2368 -1.1688
 3113TIP3    H230831   4.516   1.660   6.083  0.5327  0.7199  0.9503
 3114TIP3   OH230832   0.761   6.257  11.197  0.2132  0.0849 -0.2722
 3114TIP3    H130833   0.820   6.332  11.189  1.2836 -0.7207 -0.1925
 3114TIP3    H230834   0.676   6.289  11.165  1.2138  0.6472 -2.5635
 3115TIP3   OH230835   1.036   0.446   3.626 -0.1199 -0.6916 -0.4354
 3115TIP3    H130836   1.122   0.483   3.604  0.7930 -2.1944  0.4163
 3115TIP3    H230837   0.990   0.517   3.671  0.8917 -0.0246 -0.4230
 3116TIP3   OH230838   6.519   2.265   2.729 -0.3330  0.2153 -1.0359
 3116TIP3    H130839   6.443   2.291   2.780 -0.8828 -0.5358 -1.4577
 3116TIP3    H230840   6.556   2.190   2.777  0.2266  0.6554 -0.7618
 3117TIP3   OH230841   1.680   1.877   0.410  0.3500 -0.5590  0.1912
 3117TIP3    H130842   1.757   1.900   0.358 -0.4474  1.0045 -0.3941
 3117TIP3    H230843   1.627   1.957   0.410 -1.8338 -1.9137 -0.4476
 3118TIP3   OH230844   4.280   4.874   0.569 -0.4540  0.6321  0.2557
 3118TIP3    H130845   4.333   4.899   0.644 -0.0496 -0.5426  0.3907
 3118TIP3    H230846   4.318   4.791   0.539 -2.9465 -0.9830  1.1649
 3119TIP3   OH230847   3.854   3.338   2.168  0.1539  0.2173 -0.1082
 3119TIP3    H130848   3.912   3.265   2.190  0.1275 -0.2908 -1.5943
 3119TIP3    H230849   3.903   3.390   2.104 -0.2503  0.8985  0.1260
 3120TIP3   OH230850   2.861   5.910   0.676 -0.5999  0.1490  0.0127
 3120TIP3    H130851   2.911   5.850   0.620 -0.1693 -0.3018  0.8525
 3120TIP3    H230852   2.785   5.934   0.623 -0.7557 -1.0909 -0.3790
 3121TIP3   OH230853   1.728   1.219   4.416  0.3766 -0.0007 -0.1476
 3121TIP3    H130854   1.811   1.246   4.376 -0.2843  0.6888 -1.0913
 3121TIP3    H230855   1.752   1.147   4.474  1.6040  0.0348 -0.5805
 3122TIP3   OH230856   0.784   0.531  11.664 -0.1454 -0.2252 -0.1434
 3122TIP3    H130857   0.715   0.590  11.636 -0.8881 -0.8579  0.3175
 3122TIP3    H230858   0.809   0.562  11.751 -0.5419 -0.5798  0.1023
 3123TIP3   OH230859   2.308   3.864   4.943 -0.1814 -0.6510 -0.0359
 3123TIP3    H130860   2.216   3.884   4.957 -0.2629 -0.6840 -0.5297
 3123TIP3    H230861   2.351   3.949   4.937 -0.2384 -0.6334 -0.1933
 3124TIP3   OH230862   3.545   6.138  16.407  0.0429 -0.2110 -0.0908
 3124TIP3    H130863   3.478   6.197  16.375 -1.1033 -0.5035  1.6476
 3124TIP3    H230864   3.498   6.072  16.458  1.5828 -0.7489  0.7196
 3125TIP3   OH230865   5.029   1.671   3.711 -0.5371  0.0765 -0.3376
 3125TIP3    H130866   5.101   1.733   3.695 -0.0869 -0.8249 -2.0722
 3125TIP3    H230867   4.965   1.721   3.763  0.8542  1.2238  0.3663
 3126TIP3   OH230868   4.542   5.260   2.253  0.5949  0.0541  0.0031
 3126TIP3    H130869   4.596   5.339   2.248 -0.3531  0.6728 -1.3737
 3126TIP3    H230870   4.545   5.234   2.345  1.5738  1.2271  0.3339
 3127TIP3   OH230871   1.253   4.396  11.794 -0.1308  0.2489  0.3380
 3127TIP3    H130872   1.241   4.414  11.888  0.1805  2.0692  0.0735
 3127TIP3    H230873   1.275   4.303  11.790  2.6640  0.7101  2.3392
 3128TIP3   OH230874   5.689   4.175  15.896  0.8848  0.2453  0.1684
 3128TIP3    H130875   5.698   4.177  15.801  0.1067  0.6844  0.0966
 3128TIP3    H230876   5.604   4.215  15.913  0.5280 -0.8057  0.9826
 3129TIP3   OH230877   5.756   2.313   3.882 -0.2415  0.2422  0.4353
 3129TIP3    H130878   5.734   2.272   3.799 -1.0407  0.5538  0.4814
 3129TIP3    H230879   5.678   2.299   3.936  0.8056 -1.2669  1.6582
 3130TIP3   OH230880   5.522   4.776  12.993  0.4832 -0.2990 -0.4855
 3130TIP3    H130881   5.502   4.698  13.044 -0.0163 -0.6000 -1.1290
 3130TIP3    H230882   5.539   4.844  13.058 -1.5675 -0.3041  0.1260
 3131TIP3   OH230883   5.421   6.037  12.153  0.4919  0.1024  0.8191
 3131TIP3    H130884   5.421   5.948  12.118  0.9656  0.5077 -0.2444
 3131TIP3    H230885   5.336   6.073  12.128  0.6900  0.2756  0.3971
 3132TIP3   OH230886   3.542   2.107   5.702  0.4015  0.1033 -0.9997
 3132TIP3    H130887   3.516   2.168   5.633  2.0333 -0.6577 -2.3627
 3132TIP3    H230888   3.553   2.024   5.657 -1.6072 -1.2357  0.7879
 3133TIP3   OH230889   4.111   4.957   4.501  0.0278  0.0316 -0.4425
 3133TIP3    H130890   4.084   5.020   4.435 -2.2785 -0.7918 -0.3858
 3133TIP3    H230891   4.042   4.961   4.567  0.5970 -1.4740  0.2910
 3134TIP3   OH230892   3.266   0.395  13.527 -0.2895  0.2004  0.3176
 3134TIP3    H130893   3.337   0.340  13.559  0.8606  1.1561 -0.5254
 3134TIP3    H230894   3.250   0.456  13.599 -0.1300  0.1071  0.4351
 3135TIP3   OH230895   0.182   6.509   2.513  0.0453  0.2970  0.6902
 3135TIP3    H130896   0.222   6.470   2.434 -0.3131  0.0653  0.6208
 3135TIP3    H230897   0.107   6.453   2.532 -0.5797  1.0492  0.4939
 3136TIP3   OH230898   5.772   2.938  15.545 -0.4525 -0.3096 -0.1189
 3136TIP3    H130899   5.849   2.945  15.601 -0.4574 -4.0924  0.6087
 3136TIP3    H230900   5.699   2.962  15.601 -0.1514 -0.6829  0.4447
 3137TIP3   OH230901   2.916   4.658   2.647 -0.0089 -0.1054 -0.1702
 3137TIP3    H130902   2.827   4.671   2.614  0.4305 -0.8625 -1.7361
 3137TIP3    H230903   2.936   4.566   2.629  1.8764  0.5749 -1.9127
 3138TIP3   OH230904   5.483   1.898  16.622 -0.3235  0.5620  0.3013
 3138TIP3    H130905   5.482   1.943  16.538  0.7472  0.8932  0.4456
 3138TIP3    H230906   5.422   1.825  16.611 -1.4669  1.5574 -0.1947
 3139TIP3   OH230907   3.194   4.732  12.602  0.0161 -0.1512  0.4789
 3139TIP3    H130908   3.230   4.729  12.691  2.1918  0.1574 -0.3487
 3139TIP3    H230909   3.225   4.652  12.560  0.4918  0.5524 -0.5380
 3140TIP3   OH230910   2.583   1.081   2.805 -0.4017 -0.2314  0.0991
 3140TIP3    H130911   2.606   1.001   2.758 -0.8741 -0.4533  0.2461
 3140TIP3    H230912   2.576   1.054   2.896 -0.6396 -0.0366  0.1376
 3141TIP3   OH230913   2.853   0.499   2.634 -0.1416  0.4620 -0.0245
 3141TIP3    H130914   2.915   0.515   2.563 -1.4306  2.1611 -0.8274
 3141TIP3    H230915   2.866   0.572   2.694  0.7301 -0.8053  1.3934
 3142TIP3   OH230916   5.941   3.786   6.551  0.4585 -0.0268  1.1146
 3142TIP3    H130917   5.868   3.780   6.489  1.2896  3.4666 -0.4066
 3142TIP3    H230918   5.900   3.805   6.635 -0.4786  0.3410  0.5879
 3143TIP3   OH230919   0.818   3.326  12.441 -0.3989  0.2668  0.1101
 3143TIP3    H130920   0.847   3.347  12.530 -0.1453  1.7802 -0.2978
 3143TIP3    H230921   0.888   3.271  12.405 -0.7118 -0.7292  0.9680
 3144TIP3   OH230922   5.243   1.604  11.797 -0.2050 -0.6286  0.4187
 3144TIP3    H130923   5.163   1.640  11.836 -0.4139 -0.6106 -0.0281
 3144TIP3    H230924   5.241   1.512  11.821  0.5139 -0.3070  1.8824
 3145TIP3   OH230925   3.242   4.968  16.653 -0.3059  0.3937 -0.0717
 3145TIP3    H130926   3.303   5.039  16.634  0.0879 -0.6150 -3.0626
 3145TIP3    H230927   3.164   4.988  16.601 -0.5835 -0.8133 -0.1504
 3146TIP3   OH230928   3.129   4.097  15.352  0.7917  0.4316  0.3068
 3146TIP3    H130929   3.193   4.118  15.421 -0.3061  1.1374  1.1481
 3146TIP3    H230930   3.091   4.014  15.379 -0.0580  0.9914  0.9068
 3147TIP3   OH230931   6.769   1.344   0.522 -0.4776  0.2560 -0.2516
 3147TIP3    H130932   6.768   1.255   0.486 -1.5629 -0.1239  0.6486
 3147TIP3    H230933   6.719   1.337   0.604 -1.0603  1.8043 -0.4449
 3148TIP3   OH230934   3.537   5.903   0.883 -1.0784 -0.3609  0.4613
 3148TIP3    H130935   3.556   5.892   0.790  2.1516  1.7946  0.7212
 3148TIP3    H230936   3.493   5.988   0.889 -0.5076 -0.0871  0.9355
 3149TIP3   OH230937   5.396   5.256  14.033 -0.0309  0.4834  0.1641
 3149TIP3    H130938   5.380   5.176  13.983 -0.0776  0.3233  0.4323
 3149TIP3    H230939   5.317   5.308  14.021  0.6016  1.1700 -1.2679
 3150TIP3   OH230940   4.349   3.926  12.747 -0.1139  0.3476  0.1989
 3150TIP3    H130941   4.312   3.844  12.781  0.2480  0.4734  0.9010
 3150TIP3    H230942   4.310   3.994  12.801 -1.8150  0.8333 -1.5204
 3151TIP3   OH230943   3.802   6.580  11.862  0.2003  0.3872 -0.0211
 3151TIP3    H130944   3.893   6.576  11.834  0.0288  0.6313 -0.6162
 3151TIP3    H230945   3.755   6.523  11.801  0.0544 -0.2978  0.7145
 3152TIP3   OH230946   1.245   3.421  14.360 -0.1278  0.5459 -0.1141
 3152TIP3    H130947   1.234   3.493  14.297 -0.9120  0.1667 -0.4242
 3152TIP3    H230948   1.208   3.455  14.441 -0.5535  0.4714 -0.2760
 3153TIP3   OH230949   5.481   3.158  11.515 -0.2990 -0.2863 -0.3331
 3153TIP3    H130950   5.574   3.161  11.496  0.1151  4.2941  1.2762
 3153TIP3    H230951   5.438   3.164  11.430  0.8677 -1.0020 -0.9954
 3154TIP3   OH230952   4.248   5.246  15.801 -0.2355 -0.1814  0.0411
 3154TIP3    H130953   4.204   5.248  15.886 -0.3557  0.0690 -0.0264
 3154TIP3    H230954   4.183   5.280  15.739  0.4284  1.3285  0.1204
 3155TIP3   OH230955   0.605   3.384   5.434 -0.6807 -0.0607  0.3370
 3155TIP3    H130956   0.647   3.447   5.375 -0.3927 -1.2691 -0.8312
 3155TIP3    H230957   0.607   3.302   5.384 -1.6642 -0.8275  1.5236
 3156TIP3   OH230958   3.232   1.404  14.093  0.8515  0.1914 -0.4593
 3156TIP3    H130959   3.322   1.412  14.125  0.9423  0.3505 -0.7496
 3156TIP3    H230960   3.222   1.310  14.074  0.2464 -0.2181  1.6019
 3157TIP3   OH230961   2.934   2.694  12.145  0.1815 -0.4826 -0.2676
 3157TIP3    H130962   2.972   2.733  12.067  0.4816  1.5694  0.8465
 3157TIP3    H230963   3.006   2.690  12.207 -0.0711 -2.0172 -0.0305
 3158TIP3   OH230964   5.434   4.199   5.087  0.0635  0.0271  0.7675
 3158TIP3    H130965   5.418   4.142   5.011  0.7688  0.6591  0.1227
 3158TIP3    H230966   5.492   4.267   5.053 -0.2945  0.7984  1.6761
 3159TIP3   OH230967   4.875   1.827  17.094 -0.0125  0.3279  0.1657
 3159TIP3    H130968   4.961   1.785  17.095  0.4361  1.2219 -0.2222
 3159TIP3    H230969   4.893   1.920  17.103 -1.0625  0.4027  2.1081
 3160TIP3   OH230970   3.437   0.849   2.948 -0.1444 -0.0790  0.4886
 3160TIP3    H130971   3.466   0.767   2.909  2.2399  0.3665  1.1801
 3160TIP3    H230972   3.412   0.824   3.037  1.0802 -0.0053  0.8696
 3161TIP3   OH230973   0.670   6.559  11.604 -0.1722 -0.0885 -0.2792
 3161TIP3    H130974   0.755   6.538  11.567  0.0916  1.1647 -0.4251
 3161TIP3    H230975   0.610   6.495  11.565  0.6257 -0.7300 -0.4754
 3162TIP3   OH230976   3.399   3.264   2.812  0.3709 -0.5970  0.4004
 3162TIP3    H130977   3.345   3.200   2.765  0.3707  1.2364 -2.3176
 3162TIP3    H230978   3.336   3.318   2.860  0.0344 -0.4049 -0.2418
 3163TIP3   OH230979   4.507   2.989   2.525  0.0788  0.2479  0.3981
 3163TIP3    H130980   4.533   2.933   2.598 -2.6406 -1.8836 -0.1144
 3163TIP3    H230981   4.565   2.964   2.454 -0.1584 -0.9033  0.5964
 3164TIP3   OH230982   2.932   6.760  12.734  0.3533  0.1550  0.0595
 3164TIP3    H130983   3.000   6.819  12.700  0.7529 -0.6081 -0.5041
 3164TIP3    H230984   2.958   6.673  12.702  0.0526 -0.4016  1.2928
 3165TIP3   OH230985   4.862   6.788   1.976 -0.0001  0.4290 -0.1918
 3165TIP3    H130986   4.887   6.878   1.996  1.4077  0.1869 -0.7330
 3165TIP3    H230987   4.935   6.754   1.923 -0.7813 -0.8386 -0.5021
 3166TIP3   OH230988   4.253   0.217   5.814 -0.2322  0.0612  0.5640
 3166TIP3    H130989   4.303   0.282   5.863 -1.3095  1.7235 -0.4595
 3166TIP3    H230990   4.298   0.209   5.731  1.0276 -2.0331  1.3713
 3167TIP3   OH230991   1.015   1.747  16.368 -0.5426 -0.2992  0.0339
 3167TIP3    H130992   1.071   1.815  16.406 -1.0691  0.7104 -0.9645
 3167TIP3    H230993   1.045   1.666  16.410 -0.1105  0.5665  1.4880
 3168TIP3   OH230994   2.451   0.526   0.212 -0.1996 -0.3038 -0.1752
 3168TIP3    H130995   2.386   0.497   0.148  1.2703 -1.0929 -1.3746
 3168TIP3    H230996   2.507   0.450   0.226  1.6584  0.8895 -0.7063
 3169TIP3   OH230997   6.036   4.411   6.389  0.4785 -0.8042 -0.1280
 3169TIP3    H130998   5.991   4.496   6.393  0.3502 -0.8821  0.1511
 3169TIP3    H230999   6.128   4.433   6.377  0.5707 -0.5915  0.8899
 3170TIP3   OH231000   0.754   2.905   5.843  0.4788  0.0631  0.0529
 3170TIP3    H131001   0.674   2.953   5.866  1.5391  1.5543  0.7855
 3170TIP3    H231002   0.749   2.896   5.748 -0.0694  1.0678 -0.0316
 3171TIP3   OH231003   4.172   0.678  17.074 -0.1442  0.1488 -0.6198
 3171TIP3    H131004   4.099   0.638  17.026 -0.1406  0.4592 -0.8851
 3171TIP3    H231005   4.235   0.702  17.006 -0.4306  1.2025 -0.5409
 3172TIP3   OH231006   3.886   2.497  14.890  0.5911  0.1259  0.4122
 3172TIP3    H131007   3.967   2.509  14.939  1.1143 -0.2880 -0.3379
 3172TIP3    H231008   3.853   2.412  14.918  1.2919 -0.4623 -0.5014
 3173TIP3   OH231009   2.644   2.094  15.507 -0.4914  0.4651 -0.5910
 3173TIP3    H131010   2.553   2.065  15.501 -1.2482  2.4535  0.2499
 3173TIP3    H231011   2.689   2.045  15.438 -1.3119 -3.4194  1.3492
 3174TIP3   OH231012   3.297   3.555  15.671 -0.2099 -0.0618  0.2627
 3174TIP3    H131013   3.366   3.492  15.692  0.1471  0.7021  1.4943
 3174TIP3    H231014   3.342   3.640  15.671 -0.9631  0.3384  0.0894
 3175TIP3   OH231015   0.588   0.270   5.363  0.5917 -0.0178 -0.1265
 3175TIP3    H131016   0.521   0.257   5.296  0.6212 -0.4878 -0.0696
 3175TIP3    H231017   0.666   0.226   5.328 -0.0454 -2.4343  1.2636
 3176TIP3   OH231018   3.712   3.896  17.151 -0.2801 -0.2793  0.4820
 3176TIP3    H131019   3.683   3.835  17.083  1.6328  0.2318 -0.8730
 3176TIP3    H231020   3.725   3.842  17.228  1.4593 -1.6786 -0.7044
 3177TIP3   OH231021   3.395   0.466  17.102 -0.6788 -0.4036  0.2284
 3177TIP3    H131022   3.406   0.537  17.039  0.2330 -1.6805 -1.1104
 3177TIP3    H231023   3.342   0.505  17.172  0.7218  1.9154  0.1134
 3178TIP3   OH231024   2.477   2.485   3.041  0.0455 -0.3006  0.0415
 3178TIP3    H131025   2.534   2.482   3.118 -0.0335 -0.3647  0.0983
 3178TIP3    H231026   2.525   2.537   2.977  0.7704 -1.4552 -0.3895
 3179TIP3   OH231027   4.938   2.256  10.716 -0.1347  0.3368 -0.1345
 3179TIP3    H131028   5.024   2.224  10.743 -0.8393 -0.6047  1.1034
 3179TIP3    H231029   4.891   2.179  10.686 -0.7490  0.7370 -0.2354
 3180TIP3   OH231030   5.553   6.754  12.605  0.5424 -0.2483 -0.0080
 3180TIP3    H131031   5.591   6.709  12.529 -0.1913 -1.9478  0.5764
 3180TIP3    H231032   5.627   6.769  12.663  0.4544 -4.0609  1.3884
 3181TIP3   OH231033   4.290   3.704   2.155  0.3401  0.4986  0.5412
 3181TIP3    H131034   4.332   3.709   2.069  0.7365 -1.7521  0.5539
 3181TIP3    H231035   4.334   3.772   2.207  1.2578  0.7657 -0.5457
 3182TIP3   OH231036   1.490   5.437  13.351 -0.3616  0.3451  0.2121
 3182TIP3    H131037   1.503   5.519  13.303 -0.5740 -0.7916 -1.9364
 3182TIP3    H231038   1.575   5.392  13.345  0.3358  1.1023  2.9642
 3183TIP3   OH231039   4.826   2.743   1.452 -0.3180  0.2040 -0.0550
 3183TIP3    H131040   4.756   2.710   1.508  0.3592 -1.5023 -0.1401
 3183TIP3    H231041   4.892   2.673   1.452 -0.2507  0.1403 -2.8685
 3184TIP3   OH231042   1.284   0.524   1.947  0.4701  0.2176 -0.4162
 3184TIP3    H131043   1.201   0.555   1.983 -0.0498 -0.8897 -0.6129
 3184TIP3    H231044   1.351   0.574   1.993 -0.2577  0.2078  0.6865
 3185TIP3   OH231045   1.529   3.569  16.952 -0.6054 -0.0617  0.2361
 3185TIP3    H131046   1.607   3.517  16.933 -1.0075 -0.6494  0.1606
 3185TIP3    H231047   1.457   3.522  16.909 -0.9135  0.8188 -0.2417
 3186TIP3   OH231048   1.992   2.598   1.368 -0.1431  0.0070 -0.0780
 3186TIP3    H131049   2.034   2.609   1.283  0.4430  0.8678  0.3129
 3186TIP3    H231050   1.972   2.687   1.397  1.8845 -0.0590  1.7798
 3187TIP3   OH231051   2.240   3.839  14.578  0.2466  0.0816  0.2962
 3187TIP3    H131052   2.176   3.860  14.646 -0.6291  0.3697 -0.5881
 3187TIP3    H231053   2.258   3.923  14.535 -0.0294 -0.2647 -0.5131
 3188TIP3   OH231054   1.727   5.713   0.802 -0.1505  0.5481  0.7898
 3188TIP3    H131055   1.760   5.801   0.820  0.5590  0.7530 -1.3017
 3188TIP3    H231056   1.632   5.721   0.811 -0.2478  1.9798 -0.9190
 3189TIP3   OH231057   4.141   6.821  12.584  0.8322 -0.7269 -0.0879
 3189TIP3    H131058   4.070   6.772  12.625 -0.0100 -0.0723 -0.7079
 3189TIP3    H231059   4.213   6.816  12.646  0.4129 -1.8371  0.3295
 3190TIP3   OH231060   0.143   3.469   4.805 -0.8489  0.4216 -0.0688
 3190TIP3    H131061   0.126   3.393   4.862 -0.9203 -0.3920 -1.1573
 3190TIP3    H231062   0.071   3.529   4.825  0.0628  0.9423  1.9644
 3191TIP3   OH231063   1.090   4.535  15.218 -0.1715  0.0771 -0.1350
 3191TIP3    H131064   1.160   4.472  15.203  2.4214  2.5792  0.5435
 3191TIP3    H231065   1.091   4.591  15.141  0.4056  1.7057  1.0129
 3192TIP3   OH231066   4.415   0.108   2.694 -0.3508  0.2193 -0.1863
 3192TIP3    H131067   4.360   0.094   2.617 -1.8982  0.6632  0.7912
 3192TIP3    H231068   4.436   0.201   2.693 -1.0967  0.3989  0.3806
 3193TIP3   OH231069   1.976   2.070  11.848 -0.0697 -0.6252 -0.2012
 3193TIP3    H131070   1.910   2.011  11.886 -1.1177  1.0086  0.6895
 3193TIP3    H231071   2.059   2.024  11.858 -0.8115 -1.8252  0.7087
 3194TIP3   OH231072   1.571   6.772   0.300 -0.8216 -0.4593 -0.4037
 3194TIP3    H131073   1.554   6.754   0.208  0.2828 -0.1369 -0.6958
 3194TIP3    H231074   1.621   6.854   0.299  0.0931 -0.9835  0.4029
 3195TIP3   OH231075   6.160   4.735   2.539 -0.4377  0.2975 -0.2858
 3195TIP3    H131076   6.146   4.829   2.556 -2.0558 -0.0899  0.6976
 3195TIP3    H231077   6.078   4.693   2.563  0.1812 -1.3780 -0.9234
 3196TIP3   OH231078   4.601   1.992  14.792  0.0955 -0.3195  0.3848
 3196TIP3    H131079   4.581   2.022  14.881  0.1683 -0.5526  0.4791
 3196TIP3    H231080   4.523   1.945  14.764 -0.0628  0.0507  0.1937
 3197TIP3   OH231081   1.590   5.539   2.484  0.1676  0.7108 -0.2944
 3197TIP3    H131082   1.502   5.572   2.467 -0.4451  0.0049  1.3889
 3197TIP3    H231083   1.592   5.452   2.443 -0.4845  0.0512  1.0144
 3198TIP3   OH231084   3.560   5.978  11.025  0.0130 -0.4436 -1.5823
 3198TIP3    H131085   3.560   6.022  10.940 -0.4130 -0.1909 -1.4543
 3198TIP3    H231086   3.487   5.917  11.020  0.5084 -1.0421 -1.7025
 3199TIP3   OH231087   2.462   2.509  13.182  0.9335  0.7518  0.2992
 3199TIP3    H131088   2.557   2.495  13.183  1.1370  2.0154  1.0288
 3199TIP3    H231089   2.446   2.562  13.105  1.0357  1.7622  0.9534
 3200TIP3   OH231090   0.267   4.562   2.696 -0.5684 -0.0060 -0.6563
 3200TIP3    H131091   0.321   4.597   2.625  0.3103 -1.2339 -0.6212
 3200TIP3    H231092   0.190   4.526   2.652  0.5227 -1.8620 -1.1988
 3201TIP3   OH231093   0.010   0.362  14.010  0.4245 -0.2816  0.1131
 3201TIP3    H131094   0.093   0.316  14.024 -0.5181 -1.6587  1.3353
 3201TIP3    H231095  -0.021   0.330  13.925 -1.3855 -3.9361  1.9302
 3202TIP3   OH231096   4.996   1.174   5.416  0.1317  0.5058  0.3617
 3202TIP3    H131097   5.083   1.139   5.433 -0.6233 -1.1174  1.1685
 3202TIP3    H231098   4.994   1.258   5.461  0.8173 -0.1116  1.5923
 3203TIP3   OH231099   1.602   4.694   1.708 -0.1874 -0.0089  0.2169
 3203TIP3    H131100   1.649   4.699   1.792  0.6280 -3.1190  0.0949
 3203TIP3    H231101   1.652   4.750   1.649 -0.0605  1.2674  1.4839
 3204TIP3   OH231102   4.084   4.806  11.581 -0.0272  0.4011  0.0471
 3204TIP3    H131103   4.093   4.811  11.676 -2.0790  2.9106  0.2118
 3204TIP3    H231104   4.034   4.725  11.567  0.3430 -0.0265  1.0733
 3205TIP3   OH231105   2.057   0.428  16.433 -0.2329  0.2192 -0.5259
 3205TIP3    H131106   1.964   0.409  16.448  0.2282 -0.6925  1.4481
 3205TIP3    H231107   2.099   0.342  16.433  0.6241  0.6235 -1.4540
 3206TIP3   OH231108   5.755   3.073  13.621 -0.7125 -0.2090 -0.1233
 3206TIP3    H131109   5.748   3.168  13.630 -1.8663 -0.3230  0.3632
 3206TIP3    H231110   5.690   3.051  13.555  0.0608 -0.5965 -0.7722
 3207TIP3   OH231111   1.650   0.816   0.433 -0.0660  0.0839 -0.2983
 3207TIP3    H131112   1.611   0.868   0.363 -0.2185 -1.6671 -1.5889
 3207TIP3    H231113   1.575   0.775   0.477  0.1270 -0.7867 -0.7497
 3208TIP3   OH231114   4.597   1.538   2.358 -0.4829 -0.1687  0.1842
 3208TIP3    H131115   4.655   1.485   2.302  2.5814 -1.0500  3.8054
 3208TIP3    H231116   4.513   1.537   2.312  1.3781 -1.8286 -3.6844
 3209TIP3   OH231117   2.746   3.520  11.726 -0.4526  0.9437  0.0987
 3209TIP3    H131118   2.688   3.544  11.654  0.4824  0.5423 -0.8151
 3209TIP3    H231119   2.780   3.604  11.758  0.8635  1.0294 -1.4288
 3210TIP3   OH231120   5.197   6.649   5.122  0.4571  0.2831 -0.4669
 3210TIP3    H131121   5.171   6.734   5.157 -2.9968  0.1599 -2.3097
 3210TIP3    H231122   5.198   6.591   5.199  3.2162  1.9117  0.8660
 3211TIP3   OH231123   5.464   5.912  12.745  0.6217 -0.8264 -0.2224
 3211TIP3    H131124   5.530   5.931  12.679  1.1268 -1.3787  0.1188
 3211TIP3    H231125   5.381   5.912  12.697  0.8997 -0.4706 -0.7113
 3212TIP3   OH231126   3.147   4.025  17.162 -0.5348  0.2415  0.1286
 3212TIP3    H131127   3.150   4.031  17.066 -3.3626  0.3517 -0.0365
 3212TIP3    H231128   3.152   4.116  17.191 -0.9017  0.3041  0.0024
 3213TIP3   OH231129   1.537   1.947  16.534 -0.3424  0.5211  0.2574
 3213TIP3    H131130   1.554   1.891  16.610 -0.3647  0.8078  0.4740
 3213TIP3    H231131   1.579   2.030  16.555  1.6248 -0.0744 -0.9936
 3214TIP3   OH231132   1.263   0.588   5.596  0.1778  0.1088 -0.0153
 3214TIP3    H131133   1.311   0.515   5.633 -2.3858 -0.7194  1.9734
 3214TIP3    H231134   1.268   0.657   5.663 -1.0993  0.0879  0.1374
 3215TIP3   OH231135   4.853   3.615   1.150 -0.4763  0.5448  0.3957
 3215TIP3    H131136   4.849   3.583   1.060  2.9070  0.5573  0.1217
 3215TIP3    H231137   4.799   3.554   1.200 -1.3248 -0.2679 -1.4235
 3216TIP3   OH231138   0.450   1.412   1.775  0.3608 -0.3155  0.3904
 3216TIP3    H131139   0.450   1.506   1.793 -0.6441 -0.4867  1.4289
 3216TIP3    H231140   0.539   1.383   1.796  0.9938  0.5575 -0.9537
 3217TIP3   OH231141   1.760   1.877   4.905  0.6483 -0.3229 -0.6961
 3217TIP3    H131142   1.796   1.835   4.827  2.1282 -1.9196  0.7428
 3217TIP3    H231143   1.666   1.856   4.903  1.0641 -2.3346 -0.9046
 3218TIP3   OH231144   6.015   3.997  15.591  0.1865  0.3353  0.4866
 3218TIP3    H131145   5.988   3.917  15.637 -1.6266 -1.3321 -3.0830
 3218TIP3    H231146   5.996   4.068  15.652 -1.8321 -1.6765  2.3717
 3219TIP3   OH231147   5.933   4.383  13.004 -0.4095  0.2250 -0.2365
 3219TIP3    H131148   5.860   4.322  12.991 -0.3417  0.6659 -3.6100
 3219TIP3    H231149   5.890   4.468  13.017 -0.4575 -0.0570  1.8331
 3220TIP3   OH231150   2.272   3.161   6.299 -0.3724  0.4823 -0.4415
 3220TIP3    H131151   2.221   3.094   6.345  1.7513  0.5194  2.2740
 3220TIP3    H231152   2.330   3.112   6.242 -0.3400  0.1313 -0.1146
 3221TIP3   OH231153   0.226   4.112   3.475 -0.0655  0.2922  0.0137
 3221TIP3    H131154   0.269   4.041   3.523 -0.1859 -0.8160 -1.4263
 3221TIP3    H231155   0.291   4.182   3.473  1.4782 -1.0769 -1.4757
 3222TIP3   OH231156   1.395   4.309   2.227 -0.7494 -0.3320 -0.1976
 3222TIP3    H131157   1.431   4.221   2.237 -1.5280 -0.7310 -0.8129
 3222TIP3    H231158   1.460   4.356   2.175 -0.9257 -0.9309 -0.9737
 3223TIP3   OH231159   5.362   6.361  13.760 -0.2062 -0.2410  0.1413
 3223TIP3    H131160   5.330   6.401  13.841 -1.0560 -1.1590  0.2816
 3223TIP3    H231161   5.363   6.267  13.778 -1.9221 -0.6179 -1.3881
 3224TIP3   OH231162   5.289   1.666  13.006  0.3215  0.4791 -0.4117
 3224TIP3    H131163   5.381   1.692  13.010  0.5472 -0.3712  0.0993
 3224TIP3    H231164   5.276   1.611  13.082 -0.4389  0.0248 -0.8590
 3225TIP3   OH231165   3.621   3.665   0.629  0.1806 -0.5101 -0.4009
 3225TIP3    H131166   3.687   3.598   0.613  0.4440 -0.4252  0.3200
 3225TIP3    H231167   3.671   3.747   0.633 -0.3231  0.0796 -3.3479
 3226TIP3   OH231168   0.661   5.000   4.950  0.0694  0.2198  0.5257
 3226TIP3    H131169   0.584   5.015   4.896 -1.2560 -0.0274  2.2610
 3226TIP3    H231170   0.646   5.052   5.029  1.6198  0.0522  0.9759
 3227TIP3   OH231171   6.503   2.879  16.117  0.3261 -0.0838  0.0517
 3227TIP3    H131172   6.451   2.824  16.059  0.4198 -0.8975  0.7202
 3227TIP3    H231173   6.497   2.966  16.079  0.3832 -0.5917 -1.1714
 3228TIP3   OH231174   2.862   5.663   4.757 -0.5243 -0.2531  0.2105
 3228TIP3    H131175   2.836   5.753   4.737  0.2264  0.3895  1.9392
 3228TIP3    H231176   2.795   5.609   4.717 -0.5651  1.0196 -1.5756
 3229TIP3   OH231177   0.406   0.065   3.313 -0.2180  0.8514 -0.4548
 3229TIP3    H131178   0.464   0.012   3.367 -3.1450 -0.9263  1.1337
 3229TIP3    H231179   0.358   0.002   3.259 -1.2816  2.1813 -1.1297
 3230TIP3   OH231180   1.195   6.587   1.481 -0.3603 -0.4333  0.0612
 3230TIP3    H131181   1.167   6.675   1.510  1.3240 -0.0446  0.6190
 3230TIP3    H231182   1.205   6.595   1.387  1.3971  0.4864  0.2957
 3231TIP3   OH231183   1.263   0.773   4.922  0.2609 -1.2772  0.1879
 3231TIP3    H131184   1.310   0.769   5.006  1.9956  0.1411 -0.6399
 3231TIP3    H231185   1.186   0.826   4.941 -0.0390 -2.0274  1.1614
 3232TIP3   OH231186   6.781   2.267   3.381 -0.3299  0.3168 -0.4369
 3232TIP3    H131187   6.828   2.315   3.449 -0.6599 -0.6146  0.4810
 3232TIP3    H231188   6.714   2.218   3.429 -1.9034  1.2054 -1.6595
 3233TIP3   OH231189   5.593   0.264   2.605 -0.2568  0.3197 -0.3799
 3233TIP3    H131190   5.573   0.352   2.572  0.4885  0.3195 -0.8476
 3233TIP3    H231191   5.573   0.205   2.532  1.3089  0.3126 -0.8276
 3234TIP3   OH231192   0.787   1.418  14.303  0.4051 -0.4507 -0.2362
 3234TIP3    H131193   0.812   1.436  14.212 -1.1342  1.2690 -0.3816
 3234TIP3    H231194   0.691   1.416  14.301  0.3741 -1.9860  1.0982
 3235TIP3   OH231195   0.002   0.615   4.805  0.4510 -1.0644 -0.0941
 3235TIP3    H131196  -0.053   0.693   4.798 -0.4018 -1.4261  1.8507
 3235TIP3    H231197  -0.059   0.544   4.826  1.4130 -1.9210 -0.0710
 3236TIP3   OH231198   1.798   2.444   0.484  0.3180  0.2923  0.0515
 3236TIP3    H131199   1.784   2.514   0.419  1.0679  0.7270  0.3460
 3236TIP3    H231200   1.820   2.367   0.433 -1.7048 -0.0673 -0.3564
 3237TIP3   OH231201   2.890   4.261  15.377 -0.0244  0.7166  0.3744
 3237TIP3    H131202   2.942   4.181  15.374 -0.4568  0.4495  0.0045
 3237TIP3    H231203   2.942   4.326  15.329  0.3103  0.6540  0.6499
 3238TIP3   OH231204   5.267   1.917  15.090  0.3860  0.3092  0.1790
 3238TIP3    H131205   5.349   1.884  15.127  1.0622 -1.7108 -2.7548
 3238TIP3    H231206   5.295   1.983  15.026 -0.1435 -0.7515 -1.2062
 3239TIP3   OH231207   5.200   4.178   5.234  0.0514 -0.3347  0.3217
 3239TIP3    H131208   5.122   4.171   5.179  0.1174  0.2100  0.1494
 3239TIP3    H231209   5.273   4.182   5.171  0.0939  0.7827  0.4097
 3240TIP3   OH231210   4.040   3.390   1.877 -0.0503  0.0807  0.2197
 3240TIP3    H131211   4.029   3.406   1.783 -0.2370 -0.3401  0.1676
 3240TIP3    H231212   4.016   3.298   1.889  3.1369 -0.8791  0.1408
 3241TIP3   OH231213   6.568   1.583   2.739  0.6590  0.1286 -0.0001
 3241TIP3    H131214   6.570   1.500   2.786  0.6646  0.3495  0.3944
 3241TIP3    H231215   6.489   1.579   2.685  0.0934  0.2878  0.7966
 3242TIP3   OH231216   3.102   1.325  17.173 -0.1616  0.1993  0.0227
 3242TIP3    H131217   3.062   1.256  17.120 -0.1904 -0.2701  0.6311
 3242TIP3    H231218   3.029   1.359  17.226  0.4025 -1.6124  2.1639
 3243TIP3   OH231219   3.812   6.529   4.437  0.1565 -0.8942 -0.5645
 3243TIP3    H131220   3.875   6.555   4.503 -2.1032  1.3859  0.8987
 3243TIP3    H231221   3.816   6.598   4.371 -0.9394 -0.5647 -0.3090
 3244TIP3   OH231222   5.812   1.564  16.220  0.3985  0.0549 -0.2630
 3244TIP3    H131223   5.819   1.566  16.124  0.4296 -1.1555 -0.3029
 3244TIP3    H231224   5.896   1.529  16.249 -0.2737 -1.3105  0.0861
 3245TIP3   OH231225   1.256   0.695   3.046  0.5524 -0.8186  0.3415
 3245TIP3    H131226   1.212   0.641   3.112 -1.8853  0.3899 -0.1768
 3245TIP3    H231227   1.259   0.640   2.968 -2.2626 -0.2598 -0.2975
 3246TIP3   OH231228   6.298   1.501   1.604  0.1932 -0.2335 -0.1157
 3246TIP3    H131229   6.364   1.557   1.564 -1.4822  0.3556 -2.2298
 3246TIP3    H231230   6.284   1.430   1.541 -1.0161 -0.4603  0.3683
 3247TIP3   OH231231   2.899   0.476  16.786  0.9103  0.6056 -0.1333
 3247TIP3    H131232   2.899   0.439  16.697  0.2520 -1.4028  0.6481
 3247TIP3    H231233   2.925   0.567  16.773  2.1698  0.0376 -2.2393
 3248TIP3   OH231234   4.371   0.233   0.804  0.6267  0.7475  0.3820
 3248TIP3    H131235   4.349   0.318   0.765 -0.1689  1.2085  1.7908
 3248TIP3    H231236   4.350   0.242   0.896  1.0359 -0.8264  0.6616
 3249TIP3   OH231237   2.843   1.214   2.784  0.3198 -0.1803  0.1831
 3249TIP3    H131238   2.890   1.132   2.770  0.1106 -0.4057  0.7346
 3249TIP3    H231239   2.751   1.189   2.785  0.2721 -0.0104  0.7598
 3250TIP3   OH231240   2.281   2.733  14.632  0.4993  0.1819  0.0161
 3250TIP3    H131241   2.350   2.718  14.568 -1.0120 -1.6456 -1.3127
 3250TIP3    H231242   2.210   2.771  14.581  0.1874  1.1504  1.1614
 3251TIP3   OH231243   6.196   1.536  16.829  0.4383  0.0983 -0.0673
 3251TIP3    H131244   6.188   1.611  16.888  0.1678  0.1251 -0.1397
 3251TIP3    H231245   6.155   1.565  16.748  0.9577  0.1195 -0.3270
 3252TIP3   OH231246   4.164   2.443   0.637  0.3316  0.3082  0.2852
 3252TIP3    H131247   4.191   2.365   0.589 -0.0668  1.3537 -1.7616
 3252TIP3    H231248   4.069   2.439   0.639  0.2494  1.1955 -0.7295
 3253TIP3   OH231249   0.844   3.990  16.681 -0.0081 -0.2902  0.2708
 3253TIP3    H131250   0.751   4.010  16.672  0.2227  0.5323 -0.4039
 3253TIP3    H231251   0.872   3.964  16.593  0.5093 -0.0432  0.3622
 3254TIP3   OH231252   3.779   3.908   0.641 -0.0316  0.7123  0.2811
 3254TIP3    H131253   3.799   3.900   0.734  1.1893 -2.3396 -0.1268
 3254TIP3    H231254   3.858   3.948   0.603  0.5616 -0.4265  0.2635
 3255TIP3   OH231255   5.076   6.112  11.418 -0.1736  0.1945  0.6607
 3255TIP3    H131256   5.040   6.177  11.357 -0.4869  0.0549  0.6958
 3255TIP3    H231257   5.124   6.051  11.363  0.1935  0.5016  0.6357
 3256TIP3   OH231258   1.934   4.208  16.580  0.1336  0.3336 -0.1346
 3256TIP3    H131259   1.964   4.247  16.662  2.2624 -0.0631 -0.6864
 3256TIP3    H231260   1.847   4.174  16.601 -0.4411  2.4117  1.2538
 3257TIP3   OH231261   5.477   6.066   2.463 -0.3364 -0.1860  0.1333
 3257TIP3    H131262   5.563   6.092   2.494 -0.8677  0.5746  1.0165
 3257TIP3    H231263   5.416   6.123   2.509 -1.4233 -1.6746  0.6380
 3258TIP3   OH231264   0.841   5.022   2.683 -0.3050  0.2936 -0.0161
 3258TIP3    H131265   0.812   5.102   2.639 -3.4138 -0.5867  0.2333
 3258TIP3    H231266   0.877   4.969   2.612  1.4413  1.6749 -0.2447
 3259TIP3   OH231267   2.390   0.693   6.179  0.1170  0.7474 -0.0636
 3259TIP3    H131268   2.478   0.681   6.142  0.4461  1.1363  0.5795
 3259TIP3    H231269   2.404   0.702   6.273 -0.7008 -0.0853  0.1464
 3260TIP3   OH231270   1.794   4.651  12.952 -0.1582  0.1780  0.1558
 3260TIP3    H131271   1.843   4.642  12.870 -0.1675  0.6043  0.1012
 3260TIP3    H231272   1.714   4.601  12.938  0.1420 -0.3034  0.1494
 3261TIP3   OH231273   5.051   0.763  11.707  0.7785 -0.3881 -0.6459
 3261TIP3    H131274   5.043   0.753  11.612 -0.4896 -0.2005 -0.5708
 3261TIP3    H231275   5.062   0.857  11.720 -0.6065 -0.2252 -0.5262
 3262TIP3   OH231276   4.272   0.629   5.328 -0.2922 -0.2269  0.0319
 3262TIP3    H131277   4.331   0.692   5.285 -0.7255  0.0057 -0.2247
 3262TIP3    H231278   4.330   0.559   5.358 -0.1461 -1.3778 -2.6215
 3263TIP3   OH231279   5.149   0.406   1.427  0.3793 -0.0841 -0.2290
 3263TIP3    H131280   5.197   0.334   1.387  0.3016  0.4232 -1.2568
 3263TIP3    H231281   5.097   0.443   1.356  1.5717  1.9481 -0.1156
 3264TIP3   OH231282   1.901   4.683   0.367 -0.1903 -0.6807 -0.4384
 3264TIP3    H131283   1.930   4.634   0.445 -0.1310  1.3706  0.9070
 3264TIP3    H231284   1.806   4.670   0.365 -0.4703  0.7002  1.1337
 3265TIP3   OH231285   5.787   2.178  12.475 -0.4110 -0.0134  0.1421
 3265TIP3    H131286   5.758   2.190  12.566  0.5954 -1.9828  0.7859
 3265TIP3    H231287   5.789   2.083  12.463  0.6142  0.1880 -1.5690
 3266TIP3   OH231288   1.021   4.766  13.774  0.1821 -0.2203 -0.2167
 3266TIP3    H131289   1.070   4.705  13.719 -0.8761  0.0035 -1.4601
 3266TIP3    H231290   1.079   4.785  13.847  1.8976 -0.0654 -1.5674
 3267TIP3   OH231291   4.027   4.964   4.790 -0.5280  0.4249 -0.1331
 3267TIP3    H131292   4.107   4.929   4.830 -1.2920  1.0040  2.0551
 3267TIP3    H231293   3.957   4.908   4.822 -1.2209  1.1447 -0.3513
 3268TIP3   OH231294   0.562   2.185  14.573  0.1361  0.0023 -0.2444
 3268TIP3    H131295   0.551   2.133  14.652  1.6779  1.0402  0.7126
 3268TIP3    H231296   0.473   2.207  14.546 -0.4413 -1.1834  0.6264
 3269TIP3   OH231297   0.331   2.298   0.517  0.0949 -0.2062 -0.4412
 3269TIP3    H131298   0.277   2.372   0.488 -0.2396 -0.6026 -0.8476
 3269TIP3    H231299   0.420   2.322   0.492  0.3192  1.0477  1.4235
 3270TIP3   OH231300   1.433   2.767  15.412  0.1863 -0.5261  0.4779
 3270TIP3    H131301   1.463   2.810  15.331  0.4454  0.0363  0.8677
 3270TIP3    H231302   1.338   2.772  15.408  0.2159  0.8798  0.9247
 3271TIP3   OH231303   0.567   4.941   0.366  0.1171 -0.5144  0.7370
 3271TIP3    H131304   0.597   4.936   0.275 -1.9576  1.7538 -0.1915
 3271TIP3    H231305   0.645   4.922   0.418  2.4327  2.0319 -1.5060
 3272TIP3   OH231306   2.455   3.156  14.802 -0.3648  0.0714  0.1697
 3272TIP3    H131307   2.470   3.120  14.890 -2.7912  0.5872  0.8866
 3272TIP3    H231308   2.367   3.195  14.807 -2.0060 -2.6475 -3.3668
 3273TIP3   OH231309   1.389   4.477   4.115 -0.7294  0.3716  0.1270
 3273TIP3    H131310   1.332   4.434   4.051  1.1627 -0.8243 -0.8552
 3273TIP3    H231311   1.356   4.447   4.200 -1.1495 -0.8399 -0.4346
 3274TIP3   OH231312   6.269   6.493  12.949  0.6795  0.6838  0.1267
 3274TIP3    H131313   6.228   6.416  12.909  1.4734  0.7075 -0.7855
 3274TIP3    H231314   6.292   6.465  13.038 -0.3484  0.3479  0.3003
 3275TIP3   OH231315   3.910   3.137   1.920  0.3080  0.8802  0.6961
 3275TIP3    H131316   3.915   3.085   2.000 -1.2381  1.1622  1.0056
 3275TIP3    H231317   3.944   3.079   1.852 -1.9345 -0.8403  0.9171
 3276TIP3   OH231318   0.151   3.415  16.643  0.5155 -0.8363 -0.1839
 3276TIP3    H131319   0.170   3.380  16.556  2.9306 -1.4608  0.5163
 3276TIP3    H231320   0.207   3.364  16.702  1.7666  1.9703  1.2618
 3277TIP3   OH231321   5.826   0.054   0.458 -0.6909 -0.2028 -0.3975
 3277TIP3    H131322   5.833  -0.015   0.392  0.7367 -0.8425  0.3712
 3277TIP3    H231323   5.893   0.117   0.434  0.5449 -0.9425  0.9691
 3278TIP3   OH231324   4.636   6.606  16.642 -0.9324  0.7578 -0.3429
 3278TIP3    H131325   4.627   6.622  16.736 -0.5733  1.6984 -0.4616
 3278TIP3    H231326   4.562   6.653  16.603 -0.8666  0.6737 -0.5666
 3279TIP3   OH231327   6.584   3.427  14.625  0.2156  0.1516 -0.3812
 3279TIP3    H131328   6.588   3.519  14.597 -0.7598  0.5721  0.7921
 3279TIP3    H231329   6.632   3.425  14.708  0.9173 -0.5726 -0.7922
 3280TIP3   OH231330   3.728   0.169   3.425 -0.0261 -0.3716  0.5558
 3280TIP3    H131331   3.789   0.095   3.419  0.0378 -0.2685 -0.0680
 3280TIP3    H231332   3.652   0.142   3.374 -0.3243 -0.3127  0.9592
 3281TIP3   OH231333   1.218   1.407  10.767  0.2629  0.0002 -0.7251
 3281TIP3    H131334   1.152   1.460  10.812  0.1727 -0.6142 -0.1195
 3281TIP3    H231335   1.290   1.468  10.749 -0.3026  0.5886 -1.0631
 3282TIP3   OH231336   5.441   2.927   4.105 -0.3620  0.3224  0.0405
 3282TIP3    H131337   5.374   2.879   4.153 -0.4625  0.8128  0.3880
 3282TIP3    H231338   5.401   2.944   4.019 -1.2219  1.8182  0.7075
 3283TIP3   OH231339   2.215   2.839   0.317  0.0685  0.1338  0.3475
 3283TIP3    H131340   2.147   2.776   0.341  1.5265 -1.2425  1.1055
 3283TIP3    H231341   2.217   2.837   0.221  0.8014 -1.8384  0.3614
 3284TIP3   OH231342   3.147   5.288  12.470  0.1198  0.0402  0.8772
 3284TIP3    H131343   3.236   5.256  12.453 -0.6862 -2.1773  0.4146
 3284TIP3    H231344   3.156   5.382  12.481  2.8101 -0.3183  2.7133
 3285TIP3   OH231345   1.494   5.571  13.602  0.3811  0.0228 -0.4653
 3285TIP3    H131346   1.488   5.517  13.523 -0.2449 -0.2329 -0.2468
 3285TIP3    H231347   1.403   5.592  13.624  0.4282 -1.2303  1.0946
 3286TIP3   OH231348   3.050   4.205   0.481 -0.2748  0.1281 -0.2789
 3286TIP3    H131349   3.052   4.139   0.412  1.5505  1.5582 -1.7188
 3286TIP3    H231350   2.991   4.273   0.449 -2.6108 -0.9562  1.4546
 3287TIP3   OH231351   6.396   2.819  16.375  0.5786  0.0086  0.5742
 3287TIP3    H131352   6.452   2.823  16.297 -0.5226 -0.1376 -0.2433
 3287TIP3    H231353   6.432   2.885  16.434  2.6985 -1.2520  0.8206
 3288TIP3   OH231354   4.579   6.739  13.849 -0.5939  0.1375 -0.5675
 3288TIP3    H131355   4.598   6.669  13.788 -0.6854 -2.2184  1.9169
 3288TIP3    H231356   4.649   6.735  13.914 -2.1708  0.3412  1.2521
 3289TIP3   OH231357   0.665   4.142   5.609 -0.0818  0.1698  0.3222
 3289TIP3    H131358   0.684   4.179   5.695  0.7459 -1.9811  1.1493
 3289TIP3    H231359   0.693   4.209   5.547  1.1281  1.0026  1.7056
 3290TIP3   OH231360   0.673   2.075  12.221  0.5675  0.3504  0.6990
 3290TIP3    H131361   0.696   2.058  12.313  0.4030  1.6036  0.9917
 3290TIP3    H231362   0.662   1.988  12.183  0.7764 -0.1979  1.8355
 3291TIP3   OH231363   4.818   3.670   5.972 -0.1516 -0.3922  0.0148
 3291TIP3    H131364   4.851   3.587   5.939 -0.4667 -0.0949 -1.0806
 3291TIP3    H231365   4.831   3.732   5.900 -1.8387  0.0421  0.0370
 3292TIP3   OH231366   2.565   6.300   1.043  0.2104  0.0260  0.4789
 3292TIP3    H131367   2.535   6.290   1.134  0.3610  1.5915  0.7267
 3292TIP3    H231368   2.589   6.392   1.036  1.7591 -0.4270 -0.6894
 3293TIP3   OH231369   4.055   3.858   3.056 -0.0137  0.3595  0.3061
 3293TIP3    H131370   3.979   3.849   3.114 -0.5815  0.3055 -0.4274
 3293TIP3    H231371   4.114   3.917   3.103 -1.3413  1.9396  0.0717
 3294TIP3   OH231372   0.947   3.238   1.686  0.7794  0.4787 -0.0842
 3294TIP3    H131373   0.875   3.300   1.696 -0.1257 -0.3977 -0.9265
 3294TIP3    H231374   0.991   3.265   1.605  0.4684  0.1156 -0.3778
 3295TIP3   OH231375   5.090   4.105  12.740 -0.4371  0.3904  0.0296
 3295TIP3    H131376   5.101   4.053  12.661  0.1377  1.0393 -0.3162
 3295TIP3    H231377   5.135   4.054  12.808 -0.9086 -0.1508 -0.0494
 3296TIP3   OH231378   0.737   3.865  13.502 -0.2055 -0.4657  0.2046
 3296TIP3    H131379   0.708   3.914  13.579 -0.5498  0.1098 -0.2833
 3296TIP3    H231380   0.659   3.817  13.473 -1.0611  1.9514 -1.7747
 3297TIP3   OH231381   3.017   6.043   3.366  0.3435 -0.4957  0.4855
 3297TIP3    H131382   2.994   6.074   3.454  0.8271  0.3928  0.3037
 3297TIP3    H231383   3.069   6.113   3.329 -1.2186 -0.1167 -1.1328
 3298TIP3   OH231384   2.544   6.573  11.287 -0.4463 -0.4953 -0.3328
 3298TIP3    H131385   2.606   6.501  11.298 -0.2239 -0.2790 -0.1702
 3298TIP3    H231386   2.542   6.617  11.372  0.3027  0.3959 -0.7615
 3299TIP3   OH231387   6.137   0.174  17.121  0.5840  0.4413  0.2010
 3299TIP3    H131388   6.103   0.259  17.093 -0.1570  0.2502  0.4946
 3299TIP3    H231389   6.067   0.113  17.101  0.7588  0.0334  0.8191
 3300TIP3   OH231390   4.956   6.111   3.488  0.1327  0.0620  0.4574
 3300TIP3    H131391   4.986   6.109   3.579  0.5166 -0.6397  0.3205
 3300TIP3    H231392   4.905   6.192   3.482  1.0275  0.6867  1.0016
 3301TIP3   OH231393   0.125   1.065   1.335  0.1240 -0.2258 -0.4813
 3301TIP3    H131394   0.211   1.074   1.295  0.1680 -0.3262 -0.4092
 3301TIP3    H231395   0.080   1.147   1.314  1.4289  1.3774  2.3433
 3302TIP3   OH231396   2.503   0.905  13.760  0.4575  0.4685 -0.0067
 3302TIP3    H131397   2.420   0.937  13.725  0.4859 -0.5998 -1.1159
 3302TIP3    H231398   2.548   0.866  13.685  1.6126  0.2963  0.7423
 3303TIP3   OH231399   6.148   4.505   5.294  0.0640  0.2648 -0.7613
 3303TIP3    H131400   6.150   4.429   5.352  0.6933  0.7078 -0.1793
 3303TIP3    H231401   6.061   4.503   5.255  0.6520 -1.7502 -2.1414
 3304TIP3   OH231402   1.629   1.032  15.305 -0.2242 -0.9670  0.2767
 3304TIP3    H131403   1.572   1.026  15.229 -0.5475 -0.5950  0.4783
 3304TIP3    H231404   1.608   1.118  15.343  1.3612 -0.2762 -0.3416
 3305TIP3   OH231405   4.644   1.975  11.954  0.4857 -0.4480  0.2976
 3305TIP3    H131406   4.715   2.028  11.917 -0.7776  0.0832 -1.4971
 3305TIP3    H231407   4.596   2.035  12.011 -0.0183 -0.0885 -0.4989
 3306TIP3   OH231408   0.521   0.960  12.589  0.0845 -0.3370  0.1942
 3306TIP3    H131409   0.553   0.905  12.660 -0.8673  0.3057  1.1634
 3306TIP3    H231410   0.461   1.021  12.631 -1.3649 -0.6235 -1.3264
 3307TIP3   OH231411   5.896   0.343  12.069  0.1068  0.1687 -0.2674
 3307TIP3    H131412   5.842   0.412  12.031 -0.4269  1.2834  2.2880
 3307TIP3    H231413   5.983   0.357  12.031 -0.5818  0.5980 -1.7253
 3308TIP3   OH231414   3.663   1.720   4.965 -0.6277  0.2694  0.4949
 3308TIP3    H131415   3.700   1.783   5.027 -0.6802 -0.6664  1.5040
 3308TIP3    H231416   3.581   1.693   5.005 -1.8296  1.3541 -1.1065
 3309TIP3   OH231417   3.296   4.001  12.091  0.2462  0.3972  0.1413
 3309TIP3    H131418   3.297   4.079  12.037  1.1791  0.0611 -0.3476
 3309TIP3    H231419   3.224   3.948  12.056 -0.1224  0.8429  0.2145
 3310TIP3   OH231420   2.226   0.149   3.982 -0.3226 -0.0698  0.0848
 3310TIP3    H131421   2.236   0.225   3.924  2.2189 -0.6341 -0.2860
 3310TIP3    H231422   2.131   0.139   3.990 -0.7434  2.0910 -1.2306
 3311TIP3   OH231423   6.710   2.462  12.340  0.0300 -0.1661  1.0777
 3311TIP3    H131424   6.755   2.508  12.411  1.1166 -0.0518  0.3507
 3311TIP3    H231425   6.719   2.520  12.265 -1.6313 -0.0165  0.9759
 3312TIP3   OH231426   2.033   1.072  13.568 -0.3306  0.4654 -0.1904
 3312TIP3    H131427   1.989   1.092  13.485  1.0755 -0.0984 -1.1013
 3312TIP3    H231428   1.977   1.005  13.608  0.1092 -0.9415 -1.7781
 3313TIP3   OH231429   0.326   1.486  12.707  0.4970 -0.2016 -0.4268
 3313TIP3    H131430   0.275   1.566  12.723  1.6736  0.8665 -1.7475
 3313TIP3    H231431   0.395   1.487  12.773  1.7086  0.9850 -1.6448
 3314TIP3   OH231432   3.002   1.521   5.234 -0.0620 -0.5297  0.1677
 3314TIP3    H131433   2.917   1.547   5.198  0.0806 -1.7881 -1.1657
 3314TIP3    H231434   3.057   1.507   5.157  0.6422 -2.0540  0.9171
 3315TIP3   OH231435   4.236   0.103   1.284 -0.1182  0.4130 -0.2928
 3315TIP3    H131436   4.288   0.130   1.359 -1.0662  1.1193  0.1313
 3315TIP3    H231437   4.146   0.127   1.307 -0.4505  0.4705 -1.5727
 3316TIP3   OH231438   3.977   0.915  15.862  0.3366  0.1346 -0.1253
 3316TIP3    H131439   3.978   0.891  15.954 -0.5560  0.3244 -0.0498
 3316TIP3    H231440   3.891   0.886  15.831  1.0072 -0.8208 -1.1533
 3317TIP3   OH231441   0.114   6.264   3.304 -0.1916  0.4304  0.0606
 3317TIP3    H131442   0.209   6.274   3.295 -0.0674 -2.0583 -2.8169
 3317TIP3    H231443   0.080   6.352   3.285  1.4570  1.4274  1.3454
 3318TIP3   OH231444   1.122   6.122   4.919 -0.0749  0.1251  0.7361
 3318TIP3    H131445   1.063   6.107   4.993 -0.0526  0.7152  0.8759
 3318TIP3    H231446   1.069   6.104   4.842 -0.7750  1.6567  0.8140
 3319TIP3   OH231447   0.662   1.041   5.516  0.0335  0.5097 -0.5168
 3319TIP3    H131448   0.638   1.096   5.442  0.3412  0.0996 -0.9216
 3319TIP3    H231449   0.671   0.953   5.480 -1.2156  0.0310  0.2653
 3320TIP3   OH231450   0.066   1.793  11.400  0.2916  0.3092 -0.5744
 3320TIP3    H131451   0.027   1.757  11.320  2.5501  0.0092 -1.6178
 3320TIP3    H231452   0.088   1.715  11.452  0.0521  0.4565 -0.2474
 3321TIP3   OH231453   1.323   5.171  12.024 -0.4190 -0.0245 -0.3224
 3321TIP3    H131454   1.244   5.152  11.974  0.3186 -2.2482 -0.7494
 3321TIP3    H231455   1.298   5.156  12.115 -0.5848 -0.4107 -0.4291
 3322TIP3   OH231456   5.754   5.147   5.115 -0.1736  0.1168 -0.2010
 3322TIP3    H131457   5.734   5.233   5.077  0.6394  2.5677  4.0912
 3322TIP3    H231458   5.839   5.123   5.078  0.3326  2.0339 -0.4073
 3323TIP3   OH231459   3.745   1.738  12.293  0.3516  0.3525 -0.5379
 3323TIP3    H131460   3.727   1.663  12.349  0.9509  1.9262  1.9276
 3323TIP3    H231461   3.695   1.722  12.213  0.0441 -2.3592  0.1127
 3324TIP3   OH231462   1.704   0.305   6.548  0.0826 -0.1631 -0.6632
 3324TIP3    H131463   1.798   0.317   6.538 -0.0078 -0.4819 -2.1918
 3324TIP3    H231464   1.665   0.376   6.497 -0.4880 -0.7958 -1.1258
 3325TIP3   OH231465   0.314   6.142  11.931 -0.0276 -0.1083  0.3809
 3325TIP3    H131466   0.381   6.189  11.880 -0.7429 -1.9526 -2.5470
 3325TIP3    H231467   0.358   6.061  11.958  0.3737  0.9025  2.9748
 3326TIP3   OH231468   3.489   2.486   2.627 -0.1496  0.0019 -0.4689
 3326TIP3    H131469   3.435   2.419   2.585  0.5308 -1.2815  0.6383
 3326TIP3    H231470   3.428   2.532   2.685 -0.2246 -0.9954  0.2686
 3327TIP3   OH231471   2.374   6.434   0.190  0.1954 -0.0064  0.1291
 3327TIP3    H131472   2.351   6.398   0.105  0.2961  0.3190 -0.0371
 3327TIP3    H231473   2.309   6.397   0.250 -0.5155  0.5722 -0.2645
 3328TIP3   OH231474   2.450   1.661   0.628  0.6911 -0.0412  0.3584
 3328TIP3    H131475   2.385   1.731   0.625 -0.1749 -0.7724  1.5241
 3328TIP3    H231476   2.443   1.618   0.542 -0.5130 -0.2244  0.5264
 3329TIP3   OH231477   6.629   3.293   0.092  0.0998 -0.4763 -0.3225
 3329TIP3    H131478   6.628   3.304  -0.003 -1.6161  0.2067 -0.2632
 3329TIP3    H231479   6.572   3.218   0.108 -0.1345 -0.1989  0.1817
 3330TIP3   OH231480   3.057   0.272  12.912 -0.2343  0.1703  0.0568
 3330TIP3    H131481   3.087   0.181  12.907 -0.2634  0.1919 -0.5239
 3330TIP3    H231482   2.962   0.267  12.904 -0.4027  0.1172  1.7435
 3331TIP3   OH231483   2.135   6.396   2.427 -0.3096 -0.6437  0.0362
 3331TIP3    H131484   2.044   6.417   2.449 -0.1901 -0.9546  0.8677
 3331TIP3    H231485   2.149   6.438   2.342 -1.5315 -1.4441 -0.5918
 3332TIP3   OH231486   3.533   1.860  17.130 -0.3771 -0.2379  0.0348
 3332TIP3    H131487   3.545   1.840  17.223 -1.0505 -0.8157  0.0044
 3332TIP3    H231488   3.438   1.859  17.117 -0.4102  1.6875 -0.2589
 3333TIP3   OH231489   3.732   4.098  13.326 -0.4480  0.0513 -0.0857
 3333TIP3    H131490   3.801   4.048  13.369 -0.9769 -1.6817 -1.1716
 3333TIP3    H231491   3.670   4.117  13.397  1.1452  1.7722  0.9346
 3334TIP3   OH231492   5.972   0.788   1.713  0.0961  0.6839 -0.2166
 3334TIP3    H131493   6.045   0.817   1.768  0.2049  0.7682 -0.4040
 3334TIP3    H231494   5.909   0.751   1.774  0.4824  0.2237 -0.0951
 3335TIP3   OH231495   6.780   3.004   4.049  0.0645 -0.0267  0.1066
 3335TIP3    H131496   6.686   3.016   4.062  0.2742  1.4527  0.4549
 3335TIP3    H231497   6.816   3.092   4.055  1.6253 -0.7015  1.1124
 3336TIP3   OH231498   5.013   0.332  12.092 -0.1718 -0.4068 -0.3944
 3336TIP3    H131499   5.008   0.318  11.998 -0.8746 -0.1276 -0.4019
 3336TIP3    H231500   5.064   0.412  12.102 -2.6162  1.3136 -0.7033
 3337TIP3   OH231501   1.338   5.954   0.317 -0.1606  0.0731 -0.5471
 3337TIP3    H131502   1.360   5.988   0.403 -0.5220 -0.9926 -0.0172
 3337TIP3    H231503   1.415   5.903   0.292 -1.2416 -2.2375  0.5594
 3338TIP3   OH231504   5.398   2.877   0.853  0.0302 -0.4256  0.0079
 3338TIP3    H131505   5.331   2.881   0.921 -0.2980  1.8627 -0.3470
 3338TIP3    H231506   5.480   2.897   0.898 -0.5263  3.9693 -0.4932
 3339TIP3   OH231507   3.708   0.768   1.372 -1.2061 -0.0670  0.7524
 3339TIP3    H131508   3.764   0.811   1.437  0.8128  2.0202 -2.1341
 3339TIP3    H231509   3.742   0.679   1.367 -1.7791 -0.4717  2.8257
 3340TIP3   OH231510   4.489   6.435   5.560 -0.3211 -0.3588  0.1315
 3340TIP3    H131511   4.519   6.473   5.477 -1.0127  1.1122  0.5121
 3340TIP3    H231512   4.443   6.355   5.534 -1.3937  0.5773 -1.0414
 3341TIP3   OH231513   2.193   5.553   0.622  0.0058 -0.3305  0.0828
 3341TIP3    H131514   2.113   5.520   0.663  0.1912 -1.1638 -0.2096
 3341TIP3    H231515   2.161   5.604   0.547 -0.2374 -1.7751 -0.8359
 3342TIP3   OH231516   4.771   4.460  13.980 -0.2954 -0.2337  0.3110
 3342TIP3    H131517   4.786   4.523  14.050  0.8497  1.4035 -1.2985
 3342TIP3    H231518   4.676   4.448  13.978 -0.7498  2.6384 -0.2141
 3343TIP3   OH231519   2.719   2.732  17.163 -0.1542 -0.3252 -0.1119
 3343TIP3    H131520   2.763   2.713  17.081 -0.9483  1.6445 -1.0615
 3343TIP3    H231521   2.785   2.717  17.231  0.7546 -1.2024 -1.1715
 3344TIP3   OH231522   5.277   5.760   0.877 -0.0100  0.3919 -0.1733
 3344TIP3    H131523   5.364   5.800   0.878  0.1989 -0.0322 -0.7075
 3344TIP3    H231524   5.271   5.717   0.791 -0.8321  0.6045 -0.2319
 3345TIP3   OH231525   2.502   4.123  13.625  0.2363  0.1885  0.1800
 3345TIP3    H131526   2.436   4.085  13.567  0.2007  2.7500 -1.6239
 3345TIP3    H231527   2.451   4.165  13.694  0.1626 -0.5196  0.5703
 3346TIP3   OH231528   0.853   0.664   2.629  0.0049  0.0138 -0.3674
 3346TIP3    H131529   0.894   0.664   2.716  0.1944  1.2761 -0.4449
 3346TIP3    H231530   0.791   0.591   2.632  0.5141 -0.3941  0.5862
 3347TIP3   OH231531   1.746   1.297  10.369  0.1517  0.6465  0.7309
 3347TIP3    H131532   1.730   1.235  10.440  0.1285 -0.4024 -0.1657
 3347TIP3    H231533   1.677   1.362  10.378  1.3691  1.7500  2.9428
 3348TIP3   OH231534   6.048   2.861  11.976 -0.0700 -0.5051  0.4140
 3348TIP3    H131535   5.965   2.885  12.017 -0.1504  0.2499 -0.1830
 3348TIP3    H231536   6.104   2.835  12.050 -0.6300 -0.4236  0.8752
 3349TIP3   OH231537   3.660   6.744   2.015 -0.3202 -0.0797 -0.0821
 3349TIP3    H131538   3.596   6.800   1.972  1.3519  2.3357  0.3998
 3349TIP3    H231539   3.718   6.714   1.944 -0.9094 -0.8142 -0.2649
 3350TIP3   OH231540   1.954   3.751   4.083  0.0228 -0.2435 -0.2073
 3350TIP3    H131541   1.947   3.742   4.178 -0.0821  0.8268 -0.1030
 3350TIP3    H231542   1.872   3.793   4.057 -0.1125 -0.8729 -0.8271
 3351TIP3   OH231543   6.256   4.619  11.366  0.3131 -0.2156 -0.5113
 3351TIP3    H131544   6.339   4.571  11.368  0.3591 -0.1530 -0.8863
 3351TIP3    H231545   6.216   4.601  11.451  0.5826 -0.4722 -0.4369
 3352TIP3   OH231546   4.358   3.112  16.262  0.4649  0.1224  0.1388
 3352TIP3    H131547   4.379   3.020  16.250  0.5749  0.1474  0.1440
 3352TIP3    H231548   4.287   3.113  16.326  1.3395  0.1155  1.1351
 3353TIP3   OH231549   5.181   0.076  16.352 -0.0409 -0.4296 -0.0245
 3353TIP3    H131550   5.208   0.069  16.261 -1.1827 -1.3067 -0.3191
 3353TIP3    H231551   5.202   0.166  16.377  2.1919 -0.7691 -0.4977
 3354TIP3   OH231552   3.987   3.355  12.063 -0.3500 -0.0507 -0.0716
 3354TIP3    H131553   4.025   3.272  12.033  1.3047  0.4056  0.6815
 3354TIP3    H231554   4.048   3.422  12.033 -2.1338  1.0327 -1.4599
 3355TIP3   OH231555   3.355   6.743   0.799 -0.1370 -0.1382 -0.3250
 3355TIP3    H131556   3.321   6.677   0.739 -0.4539 -0.0891 -0.2012
 3355TIP3    H231557   3.421   6.697   0.851 -0.3673 -0.3605 -0.2288
 3356TIP3   OH231558   5.049   5.762   3.635 -0.0756  0.5943  0.4242
 3356TIP3    H131559   5.026   5.840   3.686 -0.6410 -1.0136  2.8602
 3356TIP3    H231560   5.118   5.720   3.687  1.2090  0.1475 -1.5574
 3357TIP3   OH231561   5.891   6.476   1.505 -0.2565 -0.0794  0.6498
 3357TIP3    H131562   5.879   6.413   1.576 -0.2214  0.7477  1.3982
 3357TIP3    H231563   5.839   6.441   1.433 -0.1894 -0.9931  1.0291
 3358TIP3   OH231564   5.346   2.742   5.036 -0.0989 -0.5531 -0.0845
 3358TIP3    H131565   5.282   2.737   4.966  0.3200 -1.2555 -0.4303
 3358TIP3    H231566   5.378   2.652   5.046 -1.8237 -0.9984  2.5830
 3359TIP3   OH231567   3.617   3.420   2.048 -0.0845  0.3171  0.2091
 3359TIP3    H131568   3.696   3.394   2.095 -0.1100 -0.2433 -0.0460
 3359TIP3    H231569   3.639   3.410   1.955  0.2996  2.3775  0.0273
 3360TIP3   OH231570   4.443   6.224  13.810 -0.1384 -0.2338 -0.4849
 3360TIP3    H131571   4.425   6.158  13.744 -0.7249  1.0926 -1.7018
 3360TIP3    H231572   4.539   6.234  13.810  0.2222 -2.6781  1.3903
 3361TIP3   OH231573   3.864   5.587   3.107  0.1329  0.1284 -0.3807
 3361TIP3    H131574   3.828   5.628   3.028  0.1144 -0.4273 -0.6672
 3361TIP3    H231575   3.787   5.568   3.161  0.1250  0.2890 -0.3349
 3362TIP3   OH231576   5.128   4.575   3.909  0.3616  0.7429 -0.1494
 3362TIP3    H131577   5.198   4.547   3.969  0.0195  0.7520  0.2603
 3362TIP3    H231578   5.094   4.656   3.949 -1.9751 -0.8680  1.3911
 3363TIP3   OH231579   4.390   6.434  16.883 -0.2598 -0.1412  0.4135
 3363TIP3    H131580   4.342   6.369  16.934 -4.8235  0.8799 -2.0026
 3363TIP3    H231581   4.411   6.503  16.946 -2.9800 -0.2536  1.5614
 3364TIP3   OH231582   6.506   4.862   2.550  0.7728 -0.0495  0.9923
 3364TIP3    H131583   6.462   4.782   2.523  1.2697  0.2861 -0.9186
 3364TIP3    H231584   6.547   4.840   2.634  0.8543 -1.7763  0.5287
 3365TIP3   OH231585   1.816   2.893   6.630  0.0846 -0.2358  0.7725
 3365TIP3    H131586   1.733   2.901   6.582  0.1221  2.5470  0.9933
 3365TIP3    H231587   1.853   2.810   6.600 -0.9981  0.2232 -2.2437
 3366TIP3   OH231588   0.523   3.909  11.231 -0.0851  0.2971 -1.0719
 3366TIP3    H131589   0.561   3.924  11.318 -3.1875  1.0408  0.2845
 3366TIP3    H231590   0.574   3.836  11.196  1.5070  0.1872  1.2059
 3367TIP3   OH231591   4.306   1.673   0.479 -0.0484 -0.3401 -0.0321
 3367TIP3    H131592   4.211   1.669   0.466 -0.3694  0.4742  1.7784
 3367TIP3    H231593   4.318   1.734   0.552  1.6908 -2.2602  1.4271
 3368TIP3   OH231594   5.298   6.328  11.519  0.2333 -0.0740 -0.2797
 3368TIP3    H131595   5.306   6.252  11.577  3.0497 -1.1954 -1.9372
 3368TIP3    H231596   5.203   6.339  11.508 -0.3400 -4.0689 -0.8067
 3369TIP3   OH231597   6.024   3.693   3.639  0.1968 -0.1417  0.8586
 3369TIP3    H131598   5.997   3.663   3.726  0.5962 -1.7606  0.4414
 3369TIP3    H231599   6.113   3.726   3.651  0.5705 -1.1375  0.9253
 3370TIP3   OH231600   2.725   5.741   2.853  0.2846 -0.0557 -0.0421
 3370TIP3    H131601   2.770   5.785   2.925 -0.3189  1.0113 -0.3068
 3370TIP3    H231602   2.682   5.811   2.804 -3.3696 -1.0836  1.3318
 3371TIP3   OH231603   6.151   2.213  11.295 -0.5126  0.3194 -0.4873
 3371TIP3    H131604   6.200   2.162  11.231  0.7202  2.1750 -1.0962
 3371TIP3    H231605   6.176   2.177  11.380 -0.5979 -0.8384 -0.9396
 3372TIP3   OH231606   6.527   5.747  12.750 -0.1478  0.7485  0.0649
 3372TIP3    H131607   6.589   5.691  12.797 -0.8418 -0.5726 -0.5327
 3372TIP3    H231608   6.441   5.715  12.777 -0.5613  0.6448 -1.3125
 3373TIP3   OH231609   0.679   0.916   2.632  0.8086 -0.1360 -0.0680
 3373TIP3    H131610   0.597   0.879   2.600 -0.1864  1.0672  1.0131
 3373TIP3    H231611   0.744   0.847   2.617 -0.2473 -0.8564 -1.5523
 3374TIP3   OH231612   0.251   3.376   2.084  0.1003  0.1550 -0.5921
 3374TIP3    H131613   0.278   3.436   2.154 -0.3121 -1.0923  0.6971
 3374TIP3    H231614   0.330   3.361   2.033  0.5473  0.6985 -0.0772
 3375TIP3   OH231615   0.770   2.458  16.772 -0.1492 -0.1602 -0.1833
 3375TIP3    H131616   0.819   2.495  16.846 -0.6105 -0.2661  0.1823
 3375TIP3    H231617   0.738   2.374  16.804  0.5714 -0.7110 -0.8851
 3376TIP3   OH231618   3.360   1.823   6.151  0.2833  0.4294 -0.4343
 3376TIP3    H131619   3.352   1.885   6.224  0.4242  0.5704 -0.5358
 3376TIP3    H231620   3.298   1.753   6.171  0.3279  0.4635 -0.1752
 3377TIP3   OH231621   3.503   4.360  17.031  0.0258  0.3711 -0.5697
 3377TIP3    H131622   3.430   4.380  16.972 -0.5516 -1.0726 -0.3727
 3377TIP3    H231623   3.481   4.276  17.070  2.4809 -0.8789 -1.6354
 3378TIP3   OH231624   2.242   5.727   3.970 -0.2411 -0.4576  0.4261
 3378TIP3    H131625   2.269   5.809   3.930 -1.1698 -0.4607 -0.2270
 3378TIP3    H231626   2.245   5.663   3.899 -1.7753 -0.4901  0.3520
 3379TIP3   OH231627   1.421   2.569   1.921 -0.1443  0.7437 -0.6544
 3379TIP3    H131628   1.429   2.573   1.826 -0.7011  1.9960 -0.6681
 3379TIP3    H231629   1.355   2.634   1.943  0.8327  1.3521  0.6827
 3380TIP3   OH231630   3.393   4.223  14.061 -0.0404 -0.1123  0.3066
 3380TIP3    H131631   3.444   4.224  14.142  1.5996 -0.0118 -0.6849
 3380TIP3    H231632   3.434   4.156  14.007 -1.8995 -1.0718 -0.0041
 3381TIP3   OH231633   0.345   1.442   3.950  0.0333  0.1503  0.4507
 3381TIP3    H131634   0.287   1.379   3.908 -0.7975  1.0657  0.1905
 3381TIP3    H231635   0.351   1.413   4.041 -0.9605  0.1256  0.5137
 3382TIP3   OH231636   0.771   4.113  12.553 -0.8484 -0.3253  0.6120
 3382TIP3    H131637   0.771   4.037  12.611  0.7535  0.2361  1.4086
 3382TIP3    H231638   0.797   4.186  12.609 -1.0222  0.5725 -0.4372
 3383TIP3   OH231639   1.487   1.234   5.339 -0.6785 -0.0705  0.3411
 3383TIP3    H131640   1.556   1.241   5.406  0.1870  2.7292 -0.6699
 3383TIP3    H231641   1.405   1.245   5.388 -0.2494 -0.7836  1.2487
 3384TIP3   OH231642   1.281   0.968   1.836 -0.6951 -0.2090  0.3700
 3384TIP3    H131643   1.216   1.020   1.789 -0.9909  0.0608  1.0773
 3384TIP3    H231644   1.282   0.883   1.790  0.7144  0.7904 -1.6291
 3385TIP3   OH231645   0.140   5.214  15.470 -0.4669  0.1028  0.1949
 3385TIP3    H131646   0.161   5.218  15.377  3.1047  1.1432  0.8983
 3385TIP3    H231647   0.191   5.140  15.503 -0.9025  0.3466  1.4743
 3386TIP3   OH231648   6.015   1.969   3.736  0.9237 -0.0453 -0.0527
 3386TIP3    H131649   6.075   1.934   3.670  0.5898 -1.7279  0.4921
 3386TIP3    H231650   5.992   1.894   3.790 -0.1612  0.9570  0.9379
 3387TIP3   OH231651   5.127   3.270   4.500 -0.1451  0.3385  0.2302
 3387TIP3    H131652   5.134   3.341   4.436 -1.2503  0.0787 -0.2064
 3387TIP3    H231653   5.033   3.258   4.512  0.0139 -1.1628  0.1652
 3388TIP3   OH231654   3.692   5.019   1.948 -0.0784 -0.0269  0.0910
 3388TIP3    H131655   3.760   4.972   1.996 -0.5663 -0.6561  0.1749
 3388TIP3    H231656   3.613   4.967   1.962 -0.6675  0.9117  0.3455
 3389TIP3   OH231657   0.905   3.309  16.871 -0.0377  0.5738  0.3241
 3389TIP3    H131658   0.861   3.269  16.796 -1.4571 -0.5311  1.6525
 3389TIP3    H231659   0.833   3.338  16.928  0.9349 -0.2483  2.0614
 3390TIP3   OH231660   2.047   4.227   1.553 -0.5813  0.3171  0.8234
 3390TIP3    H131661   2.091   4.309   1.532  0.8712 -0.3773  1.0236
 3390TIP3    H231662   2.035   4.229   1.648  0.3241 -0.0836  0.9627
 3391TIP3   OH231663   2.074   6.297  13.037 -0.5360 -0.3409 -0.3504
 3391TIP3    H131664   2.162   6.293  13.000  0.3045  0.0633  1.4625
 3391TIP3    H231665   2.065   6.387  13.070 -1.6672 -0.3443 -0.5945
 3392TIP3   OH231666   4.306   1.024  17.073  0.1976 -0.1150 -0.0385
 3392TIP3    H131667   4.362   0.949  17.053 -0.2075 -0.0315 -1.6089
 3392TIP3    H231668   4.245   0.992  17.139 -0.9844 -1.7078 -1.7870
 3393TIP3   OH231669   1.564   4.152   0.837  0.3039 -0.1447 -0.4867
 3393TIP3    H131670   1.597   4.242   0.830 -0.0161 -0.0617 -0.9676
 3393TIP3    H231671   1.497   4.146   0.769  0.2441 -0.7144 -0.3786
 3394TIP3   OH231672   5.488   3.594   0.510  0.5325  0.1034  0.0055
 3394TIP3    H131673   5.480   3.504   0.542  0.3229 -0.0831 -0.5654
 3394TIP3    H231674   5.433   3.645   0.570 -1.6576 -0.5565 -1.3310
 3395TIP3   OH231675   4.712   1.096  16.440  0.0899  0.0802 -0.0667
 3395TIP3    H131676   4.757   1.157  16.383  0.6409 -0.1568  0.1068
 3395TIP3    H231677   4.620   1.120  16.434  0.3752  1.4133  0.5857
 3396TIP3   OH231678   0.351   4.080   2.931  0.1289  0.2582  0.0710
 3396TIP3    H131679   0.291   4.005   2.920  1.1765 -0.3871 -1.5809
 3396TIP3    H231680   0.306   4.153   2.890  0.6507 -0.3461 -1.6359
 3397TIP3   OH231681   5.099   4.735   2.349  0.5211  0.5434 -0.4656
 3397TIP3    H131682   5.110   4.662   2.411 -2.5641  1.5399  1.5208
 3397TIP3    H231683   5.150   4.806   2.387 -0.6867  0.8938  0.6078
 3398TIP3   OH231684   5.462   0.513   5.018 -0.7097  0.2276  0.1345
 3398TIP3    H131685   5.557   0.500   5.022 -0.7956 -0.7609 -0.8706
 3398TIP3    H231686   5.439   0.498   4.927 -1.9715 -0.4426  0.5471
 3399TIP3   OH231687   6.536   6.754  13.795  0.2681 -0.0264  0.8732
 3399TIP3    H131688   6.533   6.776  13.702 -0.1954  1.1407  1.1512
 3399TIP3    H231689   6.509   6.662  13.798  3.1785 -1.0737 -0.4192
 3400TIP3   OH231690   3.152   1.461   3.884  0.1384  0.0910 -0.8915
 3400TIP3    H131691   3.159   1.495   3.973  1.8595  0.1898 -1.0373
 3400TIP3    H231692   3.175   1.369   3.892  1.6308  0.3973 -1.4087
 3401TIP3   OH231693   2.487   1.204  14.051 -0.1056  0.9005  0.2607
 3401TIP3    H131694   2.515   1.212  13.960  0.8963  1.9528  0.6461
 3401TIP3    H231695   2.567   1.191  14.100 -0.6059  0.6916  1.0335
 3402TIP3   OH231696   5.661   3.247   5.404  0.0050 -0.2397  0.3123
 3402TIP3    H131697   5.640   3.226   5.313  1.0710 -0.8294  0.1844
 3402TIP3    H231698   5.616   3.181   5.456  1.4089 -1.4614  0.0467
 3403TIP3   OH231699   6.504   6.805  14.254 -0.2412 -0.2185  0.2655
 3403TIP3    H131700   6.448   6.765  14.188 -1.3581  2.2391 -0.3964
 3403TIP3    H231701   6.580   6.837  14.206 -0.9109  1.3045  0.1669
 3404TIP3   OH231702   4.667   1.641  10.583 -0.2829 -0.0754  0.4274
 3404TIP3    H131703   4.609   1.676  10.515  1.8086  0.3695 -1.2204
 3404TIP3    H231704   4.701   1.719  10.628 -0.4875 -0.3024  0.9782
 3405TIP3   OH231705   2.645   6.756  14.909 -0.2381 -0.1518 -1.0353
 3405TIP3    H131706   2.588   6.690  14.948 -0.0258  0.8809  1.2143
 3405TIP3    H231707   2.715   6.768  14.974  0.8839  0.7706 -2.3496
 3406TIP3   OH231708   3.762   0.550  12.629  0.1630  0.0881 -0.4806
 3406TIP3    H131709   3.813   0.528  12.708 -0.7883  0.4562  0.2589
 3406TIP3    H231710   3.688   0.490  12.631  2.0213 -2.6028 -3.1981
 3407TIP3   OH231711   4.209   1.647   1.366 -0.1663  0.2905 -0.1463
 3407TIP3    H131712   4.200   1.676   1.276  1.2419  0.9148 -0.1065
 3407TIP3    H231713   4.267   1.572   1.363 -0.0017  0.3948  0.2512
 3408TIP3   OH231714   4.401   4.382   3.289  0.0198  0.6484 -0.4415
 3408TIP3    H131715   4.464   4.361   3.358 -0.3354 -0.2958 -0.3904
 3408TIP3    H231716   4.455   4.391   3.210  0.2636  0.1508 -0.3409
 3409TIP3   OH231717   5.569   3.363   1.298  0.4335  0.4169  0.1537
 3409TIP3    H131718   5.502   3.297   1.315 -0.7820  1.1289 -1.5872
 3409TIP3    H231719   5.622   3.325   1.228 -0.6186  1.4459 -1.2612
 3410TIP3   OH231720   4.437   4.109  14.384 -0.7482  0.2016  0.3299
 3410TIP3    H131721   4.393   4.117  14.299 -1.7939 -0.4952  0.7890
 3410TIP3    H231722   4.491   4.030  14.376  2.2608  2.1696 -0.9820
 3411TIP3   OH231723   0.021   3.817  11.145 -0.1028 -0.1832  0.2219
 3411TIP3    H131724   0.011   3.740  11.089  3.0219  0.7827 -1.9779
 3411TIP3    H231725  -0.017   3.889  11.095  1.5756  0.4860 -0.1652
 3412TIP3   OH231726   4.837   5.751   6.417 -0.3510  0.9631 -0.2682
 3412TIP3    H131727   4.797   5.767   6.502 -1.2608 -1.3554 -0.1715
 3412TIP3    H231728   4.931   5.745   6.435 -0.6572 -1.3500  1.0130
 3413TIP3   OH231729   3.476   5.696  16.058 -0.1347  0.3511 -0.0712
 3413TIP3    H131730   3.416   5.770  16.062  0.1035  0.5096  0.6862
 3413TIP3    H231731   3.509   5.687  16.147  0.1481 -0.4123 -0.2448
 3414TIP3   OH231732   1.466   0.907  11.901  0.0122 -0.0615 -0.2491
 3414TIP3    H131733   1.427   0.822  11.923 -1.8161  0.4339 -1.3402
 3414TIP3    H231734   1.426   0.968  11.963 -0.6347  0.3698 -1.0570
 3415TIP3   OH231735   1.177   5.277  15.163 -0.2817 -0.0408 -0.4822
 3415TIP3    H131736   1.190   5.186  15.134  0.4622 -0.0850 -0.0291
 3415TIP3    H231737   1.157   5.325  15.083 -2.1253 -0.8532 -0.5556
 3416TIP3   OH231738   3.083   5.630   1.143 -0.0261 -0.1775 -0.2123
 3416TIP3    H131739   3.169   5.593   1.124  1.1582  2.8260 -1.3728
 3416TIP3    H231740   3.083   5.644   1.237 -0.3357 -2.4844  0.1927
 3417TIP3   OH231741   5.611   0.305   3.958 -0.4748 -0.0390 -0.6551
 3417TIP3    H131742   5.560   0.373   4.002  0.8054 -0.7547  2.1576
 3417TIP3    H231743   5.624   0.338   3.869 -0.4169  3.1224  0.4114
 3418TIP3   OH231744   0.486   4.840  11.100  0.1667 -0.0087 -0.2902
 3418TIP3    H131745   0.452   4.930  11.098 -0.7539 -0.2586  1.8496
 3418TIP3    H231746   0.564   4.843  11.044 -1.5133  1.3566 -2.7541
 3419TIP3   OH231747   4.716   5.430  12.520 -0.0439 -0.8963  0.0711
 3419TIP3    H131748   4.636   5.473  12.492  0.7840 -0.2335 -1.3955
 3419TIP3    H231749   4.699   5.337  12.506 -0.7420 -0.8079  0.2903
 3420TIP3   OH231750   5.280   6.654   1.209  0.4027 -0.0453  0.0844
 3420TIP3    H131751   5.193   6.654   1.249  1.1561 -2.2253  1.9405
 3420TIP3    H231752   5.315   6.741   1.229 -1.1092  0.6556 -0.1987
 3421TIP3   OH231753   4.696   0.501   2.653 -0.1345 -0.1410  0.2141
 3421TIP3    H131754   4.688   0.585   2.698  1.3268  0.7026 -1.0166
 3421TIP3    H231755   4.726   0.523   2.565 -0.2951 -1.9243 -0.3344
 3422TIP3   OH231756   1.349   2.352  11.376  0.0104  0.1741 -0.4527
 3422TIP3    H131757   1.309   2.266  11.364 -0.9069  0.3759  0.9593
 3422TIP3    H231758   1.391   2.371  11.292 -0.4166 -1.3071 -1.0301
 3423TIP3   OH231759   1.787   5.128  13.985  0.1639  0.2120 -0.3598
 3423TIP3    H131760   1.709   5.115  14.038  0.2997 -1.3097 -0.4849
 3423TIP3    H231761   1.841   5.188  14.036 -1.8318  2.8901 -1.1231
 3424TIP3   OH231762   3.943   1.624  10.608 -0.0282  0.2719  0.5595
 3424TIP3    H131763   4.031   1.588  10.608  0.1188  0.6290  0.5419
 3424TIP3    H231764   3.890   1.559  10.561  0.4283  0.5692 -0.3811
 3425TIP3   OH231765   6.640   2.033  11.458  0.8608  0.3875  0.1680
 3425TIP3    H131766   6.618   2.006  11.369  2.7333 -0.5933 -0.0381
 3425TIP3    H231767   6.632   1.953  11.510  0.0815  0.8872  0.8374
 3426TIP3   OH231768   2.062   6.103   4.398 -0.0526  0.3274  0.4167
 3426TIP3    H131769   2.048   6.077   4.489  0.3263 -0.1979  0.3298
 3426TIP3    H231770   2.022   6.033   4.347 -0.9984  1.0272  0.1664
 3427TIP3   OH231771   1.221   4.521  13.914 -0.7401  0.5275 -0.1406
 3427TIP3    H131772   1.244   4.614  13.917 -1.3241  0.6637  0.3918
 3427TIP3    H231773   1.175   4.511  13.830 -0.8536  0.7666 -0.1088
 3428TIP3   OH231774   4.208   4.319  13.277 -0.7648  0.0186 -0.8090
 3428TIP3    H131775   4.184   4.348  13.365  1.1227 -0.6827 -0.0038
 3428TIP3    H231776   4.198   4.397  13.223  0.5191  1.2097  0.5649
 3429TIP3   OH231777   5.400   1.598   5.812  0.3973 -0.0553  0.5563
 3429TIP3    H131778   5.356   1.601   5.897  1.7587 -2.4733  1.4568
 3429TIP3    H231779   5.482   1.645   5.825  0.3202  0.1189  0.4069
 3430TIP3   OH231780   5.247   0.566  14.790 -0.3995  0.2527 -0.4354
 3430TIP3    H131781   5.183   0.580  14.860  0.6321 -2.3877  1.2034
 3430TIP3    H231782   5.209   0.609  14.714 -2.5040  1.6304  1.2785
 3431TIP3   OH231783   3.339   0.260  15.957 -0.0736 -0.0868 -0.6092
 3431TIP3    H131784   3.403   0.309  15.906 -1.3086  1.4189 -0.7910
 3431TIP3    H231785   3.300   0.199  15.894  0.9773 -0.8525 -0.5481
 3432TIP3   OH231786   0.915   6.043  16.776 -0.6363  0.5435  0.7667
 3432TIP3    H131787   0.844   6.107  16.775 -1.0435  0.1155 -0.8114
 3432TIP3    H231788   0.980   6.080  16.836 -0.5420  2.8090 -0.6002
 3433TIP3   OH231789   2.250   6.555   5.161  0.6001  0.0160  0.0762
 3433TIP3    H131790   2.341   6.582   5.143  1.0658 -0.5843  1.4299
 3433TIP3    H231791   2.221   6.516   5.078  1.9290 -0.6774 -0.1068
 3434TIP3   OH231792   6.809   3.576  13.541 -0.1358  0.3008 -0.1648
 3434TIP3    H131793   6.880   3.639  13.529 -1.0746  1.4598  0.1683
 3434TIP3    H231794   6.843   3.514  13.606  1.1998 -0.1866 -1.2880
 3435TIP3   OH231795   5.564   6.590   2.647 -0.1158  0.5895  0.4554
 3435TIP3    H131796   5.582   6.537   2.725 -0.4901 -2.2180 -1.2051
 3435TIP3    H231797   5.645   6.587   2.596 -1.2929 -2.2051 -1.6006
 3436TIP3   OH231798   0.866   3.896  11.040  0.1550  0.2076 -0.3733
 3436TIP3    H131799   0.911   3.924  10.961 -0.2574  0.0576 -0.6622
 3436TIP3    H231800   0.836   3.978  11.081 -0.3346  0.2440 -0.7929
 3437TIP3   OH231801   1.692   3.087   0.554 -0.0912  0.5768 -0.0450
 3437TIP3    H131802   1.745   3.090   0.474  0.1385  0.5962  0.1092
 3437TIP3    H231803   1.747   3.126   0.621 -0.7771  1.7426 -0.1474
 3438TIP3   OH231804   6.017   0.130  16.327 -0.0222 -0.2484 -0.5878
 3438TIP3    H131805   6.036   0.158  16.416  1.1484  0.4767 -1.0457
 3438TIP3    H231806   6.099   0.143  16.279 -0.6686 -0.4893 -1.8097
 3439TIP3   OH231807   1.339   2.735  16.755 -0.0621 -0.0340  0.1692
 3439TIP3    H131808   1.400   2.670  16.721 -0.9971 -1.3777  0.9607
 3439TIP3    H231809   1.376   2.819  16.728  1.1442 -0.8818 -0.9416
 3440TIP3   OH231810   5.681   0.726  10.448 -0.6856 -0.3890  0.0435
 3440TIP3    H131811   5.628   0.802  10.425 -1.9915 -0.8316  1.3840
 3440TIP3    H231812   5.745   0.760  10.511 -0.2165 -0.1030 -0.5816
 3441TIP3   OH231813   4.550   5.600  13.501  0.1000  0.2248  0.1540
 3441TIP3    H131814   4.528   5.682  13.458 -0.1936 -0.1683 -0.4565
 3441TIP3    H231815   4.491   5.535  13.462  0.7405 -0.3927  0.1963
 3442TIP3   OH231816   2.218   3.916   0.060  0.8518 -0.0304 -0.0364
 3442TIP3    H131817   2.248   3.930   0.150  0.9970 -0.5453 -0.0025
 3442TIP3    H231818   2.134   3.871   0.068 -0.6759  2.5906 -0.0973
 3443TIP3   OH231819   5.516   4.560   5.669  0.0694  0.4082  0.5873
 3443TIP3    H131820   5.527   4.654   5.682 -1.4718  0.6760  0.2022
 3443TIP3    H231821   5.512   4.549   5.574 -4.6520  0.7309  0.4939
 3444TIP3   OH231822   2.439   4.885  11.331  0.0284  0.4878  0.4764
 3444TIP3    H131823   2.442   4.831  11.251 -1.4907 -0.6020  1.1111
 3444TIP3    H231824   2.470   4.971  11.302 -0.5107  0.1377 -1.3183
 3445TIP3   OH231825   1.928   6.014   5.296 -0.2501  0.1277  0.2263
 3445TIP3    H131826   1.949   6.046   5.384  2.9862  0.3552 -0.5076
 3445TIP3    H231827   1.955   5.922   5.296  0.0653  0.2062 -0.5737
 3446TIP3   OH231828   4.746   4.775   2.830 -0.0493  0.1675  0.0677
 3446TIP3    H131829   4.658   4.808   2.850 -0.8765 -0.3888 -2.3714
 3446TIP3    H231830   4.803   4.851   2.841 -0.8817  0.6518  1.2373
 3447TIP3   OH231831   2.401   2.226  14.990 -0.1927 -0.2449 -0.0564
 3447TIP3    H131832   2.332   2.290  14.974 -0.2702  0.7490  3.5854
 3447TIP3    H231833   2.479   2.264  14.950 -0.8328  0.7362 -0.4083
 3448TIP3   OH231834   1.688   0.708   1.611  0.6347  0.1553  0.3027
 3448TIP3    H131835   1.622   0.659   1.562  1.0210 -0.7496  0.6755
 3448TIP3    H231836   1.698   0.660   1.693 -0.5906  2.0921  1.6696
 3449TIP3   OH231837   2.321   5.992  11.838 -0.4861 -0.2794 -1.1461
 3449TIP3    H131838   2.331   5.902  11.807  0.3190 -0.7360  0.3342
 3449TIP3    H231839   2.383   6.043  11.785  0.6127 -0.9793 -0.5620
 3450TIP3   OH231840   4.147   0.540   0.398 -0.3145 -0.4151 -0.1655
 3450TIP3    H131841   4.166   0.494   0.316 -1.7451  0.8501 -1.2694
 3450TIP3    H231842   4.208   0.503   0.461  1.6510 -0.6246 -2.0747
 3451TIP3   OH231843   2.407   1.260  16.173  0.4660 -0.5711 -0.4342
 3451TIP3    H131844   2.339   1.310  16.127 -0.0115 -1.1502 -0.3703
 3451TIP3    H231845   2.386   1.169  16.154 -0.4442 -0.9102  1.8822
 3452TIP3   OH231846   2.188   2.004   1.221 -0.2379 -0.0573 -0.5509
 3452TIP3    H131847   2.128   1.963   1.283 -0.1133 -0.0686 -0.4357
 3452TIP3    H231848   2.245   2.058   1.276  1.5301 -2.0222 -0.3248
 3453TIP3   OH231849   4.103   1.653   6.508 -0.0989  0.8646  0.1372
 3453TIP3    H131850   4.069   1.728   6.557 -0.2812  1.7367 -1.2545
 3453TIP3    H231851   4.043   1.581   6.528 -1.4211  1.7642 -0.4809
 3454TIP3   OH231852   4.285   0.799   0.766 -0.3990 -0.0924  0.4284
 3454TIP3    H131853   4.205   0.772   0.811 -0.3193  0.5914  1.0035
 3454TIP3    H231854   4.351   0.736   0.797 -0.3730  0.2953  1.1917
 3455TIP3   OH231855   1.575   4.129  13.475  0.1829  0.4276 -0.3063
 3455TIP3    H131856   1.633   4.103  13.547 -0.3552  3.7618  1.5714
 3455TIP3    H231857   1.527   4.050  13.453  2.7799 -1.5522  0.6111
 3456TIP3   OH231858   3.868   5.683  14.610 -0.2118  0.1583  0.1258
 3456TIP3    H131859   3.897   5.753  14.668 -1.2915  0.6701  0.0707
 3456TIP3    H231860   3.949   5.640  14.582  0.3700  0.4086  1.3709
 3457TIP3   OH231861   0.038   4.909   3.286  0.1268  0.6586 -0.0286
 3457TIP3    H131862  -0.032   4.871   3.232 -0.3243 -0.6932  1.4150
 3457TIP3    H231863   0.113   4.917   3.227 -0.6660  0.2705 -1.1159
 3458TIP3   OH231864   1.831   6.517  12.349  0.0122  0.5836 -0.5249
 3458TIP3    H131865   1.899   6.565  12.302  1.7032  0.0328  1.2442
 3458TIP3    H231866   1.831   6.555  12.436 -0.7582 -0.5723  0.0024
 3459TIP3   OH231867   6.000   5.977  14.798  0.3893 -0.0515 -0.3314
 3459TIP3    H131868   6.040   5.923  14.730  1.2204  0.8430 -0.5732
 3459TIP3    H231869   6.001   6.066  14.762  0.4901  0.3772  0.6919
 3460TIP3   OH231870   3.614   5.098  16.608 -0.3900  0.5319  0.3982
 3460TIP3    H131871   3.632   5.050  16.689  0.6875  1.1766  0.5580
 3460TIP3    H231872   3.519   5.106  16.606 -0.4535  0.1942  1.4183
 3461TIP3   OH231873   3.524   5.436   3.272  0.4781 -0.5314  0.2988
 3461TIP3    H131874   3.470   5.408   3.198 -0.7190 -0.4572  1.1053
 3461TIP3    H231875   3.538   5.529   3.258  1.2265 -0.7469 -0.4166
 3462TIP3   OH231876   2.953   2.040   3.783 -0.5277 -0.6151  0.9712
 3462TIP3    H131877   2.987   1.965   3.735 -0.9048  0.3896 -0.9812
 3462TIP3    H231878   3.007   2.046   3.862  1.9147 -0.7926 -0.6003
 3463TIP3   OH231879   3.504   3.441   6.074  0.7417 -0.4162  0.0986
 3463TIP3    H131880   3.567   3.379   6.111  1.2529 -0.5192 -0.9127
 3463TIP3    H231881   3.425   3.389   6.057  0.3490 -0.2766  1.4128
 3464TIP3   OH231882   2.015   4.858   0.159  0.4836  0.3186  0.5567
 3464TIP3    H131883   1.979   4.786   0.106 -1.9402  0.0921  2.3281
 3464TIP3    H231884   2.004   4.828   0.250  0.0265  2.6356  1.3235
 3465TIP3   OH231885   0.262   5.466  16.007 -0.1381  0.0580 -0.2647
 3465TIP3    H131886   0.357   5.459  16.008 -0.1075  0.0061 -1.6644
 3465TIP3    H231887   0.238   5.452  15.916 -1.6422 -1.7362  0.3372
 3466TIP3   OH231888   5.513   0.200  14.198  0.0528 -0.1101 -0.4490
 3466TIP3    H131889   5.481   0.131  14.257  0.2632 -0.5630 -0.8621
 3466TIP3    H231890   5.468   0.279  14.228 -0.5351 -0.5091 -0.2509
 3467TIP3   OH231891   1.662   1.049  16.551  0.2789 -0.1950  0.4609
 3467TIP3    H131892   1.735   0.998  16.516  1.1406 -0.3424  2.3473
 3467TIP3    H231893   1.618   0.990  16.613  1.0363  1.1194  2.3562
 3468TIP3   OH231894   1.909   0.879   0.340  1.0877  0.0975  0.2088
 3468TIP3    H131895   1.834   0.857   0.394  0.7195  2.1397  0.6421
 3468TIP3    H231896   1.890   0.842   0.255 -0.6544  0.9279  0.1957
 3469TIP3   OH231897   6.827   4.702  11.655 -0.7073  0.9273  0.4076
 3469TIP3    H131898   6.856   4.782  11.612 -0.2581  1.1108  1.0293
 3469TIP3    H231899   6.780   4.733  11.733  0.8588  0.5851  1.5231
 3470TIP3   OH231900   6.015   6.565  14.973 -0.1693 -0.0140  0.1466
 3470TIP3    H131901   5.965   6.504  14.919 -2.4525  1.1804  0.7468
 3470TIP3    H231902   6.024   6.643  14.919 -0.4754  0.3754  0.6378
 3471TIP3   OH231903   6.199   5.912  13.192  0.5023 -0.2273 -0.5794
 3471TIP3    H131904   6.106   5.929  13.181 -0.2385 -3.1302  0.4335
 3471TIP3    H231905   6.231   5.984  13.247 -1.5655 -0.2001  0.6595
 3472TIP3   OH231906   2.699   1.379  14.294 -0.1302  0.5979  1.0172
 3472TIP3    H131907   2.708   1.287  14.268  2.9267  0.9945  0.3549
 3472TIP3    H231908   2.604   1.391  14.305 -0.6620 -2.5283  0.8824
 3473TIP3   OH231909   4.523   0.319  16.703 -0.6227 -0.3273  0.7729
 3473TIP3    H131910   4.528   0.248  16.639  1.4210  1.4121 -1.1253
 3473TIP3    H231911   4.614   0.339  16.723 -0.9808  3.3557 -0.6558
 3474TIP3   OH231912   6.754   2.528   4.397 -0.3349  0.2044  0.3718
 3474TIP3    H131913   6.695   2.588   4.443  1.0708  0.4366  1.9806
 3474TIP3    H231914   6.754   2.449   4.451 -0.1720 -0.2734 -0.3199
 3475TIP3   OH231915   1.893   1.486   1.370 -0.0547 -0.1597 -0.0329
 3475TIP3    H131916   1.934   1.458   1.452 -0.9093 -1.3155  0.0160
 3475TIP3    H231917   1.878   1.405   1.321 -1.7920  0.2456 -0.2572
 3476TIP3   OH231918   1.670   1.654   4.283  0.0088  0.2388  0.6151
 3476TIP3    H131919   1.685   1.745   4.309 -0.8185  0.4650  0.3374
 3476TIP3    H231920   1.703   1.602   4.356 -2.2770  0.8525  2.1921
 3477TIP3   OH231921   3.606   5.498  13.382  0.0001  0.1853  0.3963
 3477TIP3    H131922   3.669   5.457  13.323 -2.5555 -0.0328 -2.4591
 3477TIP3    H231923   3.645   5.582  13.406  1.0286  0.4604 -1.9805
 3478TIP3   OH231924   5.662   3.766  14.928 -0.7721 -0.0320 -0.1982
 3478TIP3    H131925   5.742   3.816  14.915  0.4957 -1.8995 -0.0306
 3478TIP3    H231926   5.643   3.775  15.022 -0.6394  0.2453 -0.1985
 3479TIP3   OH231927   0.316   3.667  16.057 -0.3443 -1.0691 -0.2965
 3479TIP3    H131928   0.234   3.709  16.084 -0.5222 -0.7024 -1.3821
 3479TIP3    H231929   0.320   3.587  16.111 -0.9846 -0.6713  0.3702
 3480TIP3   OH231930   2.026   5.098   1.213  0.1188  0.4306  0.4584
 3480TIP3    H131931   1.989   5.168   1.266 -2.7422  0.6288 -1.5381
 3480TIP3    H231932   1.949   5.049   1.182  1.9225 -2.8028  0.6861
 3481TIP3   OH231933   0.859   3.969   1.529 -0.1719  0.4821 -0.0992
 3481TIP3    H131934   0.769   4.002   1.528  0.1549  1.3969 -0.5793
 3481TIP3    H231935   0.898   4.003   1.448  0.4025 -0.5087 -0.2614
 3482TIP3   OH231936   2.806   3.125   0.400  0.3748 -0.5352  0.3816
 3482TIP3    H131937   2.723   3.142   0.356  1.0016 -0.3869 -0.8006
 3482TIP3    H231938   2.844   3.052   0.351  2.2742  1.3038 -1.0706
 3483TIP3   OH231939   4.280   2.377   3.336 -0.0707  0.0612  0.5466
 3483TIP3    H131940   4.283   2.467   3.302 -0.2428  0.1843  0.8497
 3483TIP3    H231941   4.216   2.381   3.407 -2.3567 -0.9811 -1.3427
 3484TIP3   OH231942   3.136   5.038   2.766 -1.0411  0.1800  0.3225
 3484TIP3    H131943   3.155   4.945   2.750 -1.2057  0.3747 -1.1894
 3484TIP3    H231944   3.128   5.045   2.861 -2.8595 -1.7256  0.3704
 3485TIP3   OH231945   0.888   6.817   2.021  0.0328  0.0843  0.5161
 3485TIP3    H131946   0.876   6.906   2.053 -2.8984 -0.5220  1.3866
 3485TIP3    H231947   0.902   6.765   2.101  2.9165 -0.1711 -0.0515
 3486TIP3   OH231948   3.707   3.408   1.267 -0.5550  0.5410 -0.8966
 3486TIP3    H131949   3.799   3.392   1.244 -0.5305  2.9601 -2.7538
 3486TIP3    H231950   3.658   3.340   1.220  0.2082 -0.8737  0.2382
 3487TIP3   OH231951   4.802   6.094  12.454 -0.8882 -0.6643  0.0454
 3487TIP3    H131952   4.844   6.073  12.371 -1.6438 -1.1504 -0.2189
 3487TIP3    H231953   4.805   6.189  12.459  1.7532 -0.6840  0.8270
 3488TIP3   OH231954   5.685   6.488   0.442  0.2796  0.6613  0.1019
 3488TIP3    H131955   5.647   6.573   0.417  0.0456  0.4224 -0.3559
 3488TIP3    H231956   5.623   6.451   0.504 -0.6995 -0.1142 -1.2897
 3489TIP3   OH231957   5.884   0.432   5.698 -0.6933  0.1819  0.0662
 3489TIP3    H131958   5.880   0.435   5.793  0.6677  2.1431  0.1257
 3489TIP3    H231959   5.869   0.522   5.670  1.9350  0.2853 -1.3625
 3490TIP3   OH231960   6.627   1.721  16.394  0.3660 -0.2057  0.4247
 3490TIP3    H131961   6.544   1.717  16.345  0.6654  0.0868 -0.1164
 3490TIP3    H231962   6.602   1.700  16.484 -0.5236  1.1975  0.5370
 3491TIP3   OH231963   0.987   2.451  16.965  0.1924 -0.2426  0.2250
 3491TIP3    H131964   0.962   2.536  17.002 -2.2483 -0.7288 -0.1423
 3491TIP3    H231965   1.038   2.473  16.887 -0.8572  0.8934 -0.1666
 3492TIP3   OH231966   1.071   2.141   5.612 -0.5033  0.2183  0.1099
 3492TIP3    H131967   1.093   2.219   5.663 -0.8672  0.6399 -0.3637
 3492TIP3    H231968   1.135   2.140   5.541 -0.1541 -0.2275  0.4220
 3493TIP3   OH231969   6.252   3.094  15.382  0.2470 -0.0908 -0.3300
 3493TIP3    H131970   6.246   3.107  15.477  1.8976 -0.1370 -0.1862
 3493TIP3    H231971   6.170   3.052  15.358  0.2238 -1.0150  1.2427
 3494TIP3   OH231972   6.380   2.438  16.796  0.1827  0.2768  0.0169
 3494TIP3    H131973   6.450   2.501  16.782  1.4112 -1.1574 -0.4898
 3494TIP3    H231974   6.370   2.433  16.891  0.8343  0.4129  0.0933
 3495TIP3   OH231975   2.476   5.188   2.966  0.4526 -0.3498  0.6030
 3495TIP3    H131976   2.506   5.098   2.959 -1.1377 -0.8183 -1.0538
 3495TIP3    H231977   2.519   5.234   2.893 -0.6881 -0.4067 -0.1364
 3496TIP3   OH231978   1.454   3.180   6.015 -0.5714 -0.5453 -0.6798
 3496TIP3    H131979   1.531   3.144   5.972 -1.3809 -2.9754 -0.2386
 3496TIP3    H231980   1.455   3.142   6.103 -1.3090  0.8513 -0.0196
 3497TIP3   OH231981   2.847   5.904   5.358 -0.6427 -0.3486 -0.6276
 3497TIP3    H131982   2.921   5.938   5.308 -0.5219  0.2569 -0.0547
 3497TIP3    H231983   2.806   5.982   5.396 -1.7258 -0.6477 -1.1361
 3498TIP3   OH231984   5.106   3.264   3.875 -0.1400 -0.2364  0.4453
 3498TIP3    H131985   5.036   3.328   3.865  1.5589  1.4843 -1.2649
 3498TIP3    H231986   5.082   3.193   3.815 -0.0726  0.7041 -0.7310
 3499TIP3   OH231987   4.644   6.480  16.095 -1.1791  1.1108  0.0008
 3499TIP3    H131988   4.734   6.498  16.069 -0.7091 -0.2632  0.6188
 3499TIP3    H231989   4.593   6.548  16.051  0.4331  3.8595  1.9939
 3500TIP3   OH231990   6.678   2.365   2.102 -0.0546 -0.3056  0.6269
 3500TIP3    H131991   6.638   2.283   2.131 -0.3322 -0.6787 -0.7286
 3500TIP3    H231992   6.659   2.369   2.008 -0.6092  1.6399  0.7759
 3501TIP3   OH231993   4.430   3.373   1.459  0.0644 -0.1893  0.0881
 3501TIP3    H131994   4.428   3.302   1.395 -0.8095  0.2193 -0.3599
 3501TIP3    H231995   4.369   3.438   1.425 -1.4502 -0.5253  1.9693
 3502TIP3   OH231996   1.303   0.057   5.498 -0.0396 -0.3809 -0.0856
 3502TIP3    H131997   1.227   0.043   5.441 -0.0987  0.2682 -0.1719
 3502TIP3    H231998   1.337  -0.031   5.513 -0.4400 -0.6260 -0.5515
 3503TIP3   OH231999   4.641   1.823  11.371 -0.0155  0.1271  0.0366
 3503TIP3    H132000   4.637   1.796  11.462 -0.2912  0.0044 -0.0116
 3503TIP3    H232001   4.652   1.741  11.322  1.6718  0.3020  0.0531
 3504TIP3   OH232002   6.230   6.773  11.434  0.2766  0.2247  0.1003
 3504TIP3    H132003   6.230   6.743  11.344  0.3611  0.2107  0.1049
 3504TIP3    H232004   6.317   6.811  11.447  0.8046 -1.0921  0.6092
 3505TIP3   OH232005   4.920   5.471   3.829  0.0603 -0.1529 -1.0746
 3505TIP3    H132006   4.956   5.384   3.811  0.2443 -0.1716 -0.6352
 3505TIP3    H232007   4.860   5.458   3.902  0.7999  0.2425 -0.3877
 3506TIP3   OH232008   1.499   3.793   6.582  0.0457  0.1199 -0.3369
 3506TIP3    H132009   1.570   3.752   6.532  0.3519  0.8430 -0.5083
 3506TIP3    H232010   1.509   3.887   6.565 -1.9075  0.1504 -1.6293
 3507TIP3   OH232011   5.307   2.611  14.707 -0.0633  0.5118 -0.2725
 3507TIP3    H132012   5.225   2.569  14.683 -0.3191  1.1333 -0.4994
 3507TIP3    H232013   5.281   2.692  14.751  0.4040 -0.0784  1.1788
 3508TIP3   OH232014   0.434   3.781  11.479  0.2282  0.0767  0.5470
 3508TIP3    H132015   0.372   3.840  11.435  0.5207  0.6498  0.8841
 3508TIP3    H232016   0.510   3.836  11.498  1.4762 -0.9621 -1.1682
 3509TIP3   OH232017   4.639   6.170  16.961  0.0595  1.0186 -0.3350
 3509TIP3    H132018   4.710   6.199  16.904 -0.8528  2.8562 -0.6384
 3509TIP3    H232019   4.561   6.214  16.925 -1.2582 -0.9450 -0.0492
 3510TIP3   OH232020   5.030   6.200  11.944 -0.0219  0.0389 -0.1293
 3510TIP3    H132021   5.100   6.135  11.949  1.6921  1.5331 -2.6469
 3510TIP3    H232022   5.066   6.278  11.985 -0.4749  0.6373 -0.8547
 3511TIP3   OH232023   5.446   2.682   4.620  0.3637  0.3720  0.0490
 3511TIP3    H132024   5.390   2.633   4.559 -0.1740  0.4293  0.4919
 3511TIP3    H232025   5.386   2.740   4.666  1.0405  1.6858 -0.6795
 3512TIP3   OH232026   0.685   3.508   5.193  0.4391 -0.0181  0.8128
 3512TIP3    H132027   0.717   3.437   5.137  0.2379  0.6441 -0.1791
 3512TIP3    H232028   0.612   3.546   5.143  0.7471  1.0774  1.1723
 3513TIP3   OH232029   3.399   5.918  15.572  0.1427  0.9996 -0.3235
 3513TIP3    H132030   3.453   5.947  15.646  0.1551  0.1045  0.0257
 3513TIP3    H232031   3.318   5.888  15.612  0.9435 -1.4947 -0.4305
 3514TIP3   OH232032   3.346   3.034  14.968  0.2840 -0.0590 -0.4932
 3514TIP3    H132033   3.288   3.045  15.044 -0.2184  1.1037 -1.0127
 3514TIP3    H232034   3.420   3.092  14.987 -0.3342  1.0587 -1.3215
 3515TIP3   OH232035   3.901   0.096   0.495 -0.0288  0.0646 -0.2017
 3515TIP3    H132036   3.938   0.055   0.573 -0.3716  0.3587  0.1282
 3515TIP3    H232037   3.946   0.056   0.422  0.3212 -0.1979  0.1542
 3516TIP3   OH232038   3.090   5.047  15.200  0.6810  0.0573  0.0533
 3516TIP3    H132039   3.120   4.972  15.252 -0.6679 -1.0250 -0.6651
 3516TIP3    H232040   3.139   5.041  15.118  0.3633 -0.2139 -0.1177
 3517TIP3   OH232041   1.660   2.548   0.877 -0.0535 -0.2227  0.5629
 3517TIP3    H132042   1.621   2.555   0.964 -1.3741  1.6084 -0.0965
 3517TIP3    H232043   1.590   2.513   0.822  0.4743 -0.5078  0.0545
 3518TIP3   OH232044   2.412   3.476  14.214 -0.6801  0.1975 -0.4886
 3518TIP3    H132045   2.336   3.516  14.258 -2.3348 -0.9280 -2.1553
 3518TIP3    H232046   2.435   3.537  14.144 -1.5126 -0.4654 -1.3707
 3519TIP3   OH232047   0.309   5.535  11.877  0.1634 -0.6607 -0.1628
 3519TIP3    H132048   0.274   5.574  11.956  1.8982  0.5567  0.0490
 3519TIP3    H232049   0.381   5.480  11.907  1.1699  0.2124 -0.9014
 3520TIP3   OH232050   3.103   2.591   5.867  0.0117  0.0036  0.9898
 3520TIP3    H132051   3.120   2.525   5.933  0.0076  0.3001  1.2885
 3520TIP3    H232052   3.011   2.614   5.878  0.3834  1.1732  1.9218
 3521TIP3   OH232053   1.247   0.732  12.708 -0.3059  0.2500 -0.4201
 3521TIP3    H132054   1.156   0.757  12.693 -0.5004 -1.2927 -2.0246
 3521TIP3    H232055   1.297   0.781  12.643 -0.0778  0.4560 -0.0936
 3522TIP3   OH232056   2.422   6.193  11.444  0.3641  0.2965 -0.4519
 3522TIP3    H132057   2.334   6.224  11.465  0.5871  1.1139 -0.6645
 3522TIP3    H232058   2.442   6.129  11.512 -0.2815  0.3235 -0.2275
 3523TIP3   OH232059   2.538   4.527   3.683 -0.4511 -0.5223  0.3895
 3523TIP3    H132060   2.471   4.593   3.702 -1.2974 -1.6216  1.3664
 3523TIP3    H232061   2.603   4.573   3.630 -1.8141  0.6594 -0.3062
 3524TIP3   OH232062   3.225   3.495   0.041 -0.2063 -0.5093 -0.4739
 3524TIP3    H132063   3.161   3.434   0.078 -1.1457  0.7148 -0.0148
 3524TIP3    H232064   3.174   3.572   0.018  1.0348  0.3024 -0.5876
 3525TIP3   OH232065   3.922   3.515   1.570 -0.5987  0.2699 -0.0475
 3525TIP3    H132066   3.868   3.453   1.618  1.4509  0.4100  2.6738
 3525TIP3    H232067   3.963   3.463   1.501 -1.0528 -0.7311  0.4208
 3526TIP3   OH232068   5.242   4.080  15.883 -0.2955 -0.5457 -0.4102
 3526TIP3    H132069   5.276   3.991  15.891 -0.1050 -0.5123 -0.8078
 3526TIP3    H232070   5.148   4.068  15.867 -0.8695 -0.5967  2.5169
 3527TIP3   OH232071   0.254   0.087   6.526 -0.2129  0.0541  0.4459
 3527TIP3    H132072   0.270   0.152   6.457 -0.7382 -0.3919 -0.1010
 3527TIP3    H232073   0.193   0.130   6.586 -0.8130 -0.0539 -0.0875
 3528TIP3   OH232074   5.570   4.795  13.428  0.2935  0.0713 -0.0706
 3528TIP3    H132075   5.630   4.795  13.502  1.3294  0.4989 -0.8788
 3528TIP3    H232076   5.509   4.866  13.445 -0.3655 -0.7296  1.0362
 3529TIP3   OH232077   3.511   4.546   0.517  0.1803 -0.2947  0.2520
 3529TIP3    H132078   3.563   4.552   0.597 -0.3634  2.1370  0.4903
 3529TIP3    H232079   3.549   4.611   0.458 -0.8594 -0.4315 -0.6113
 3530TIP3   OH232080   5.521   1.180  11.163 -0.0371  0.3324 -0.3873
 3530TIP3    H132081   5.579   1.175  11.087 -0.6265 -0.3412 -0.8078
 3530TIP3    H232082   5.435   1.157  11.129 -0.5034  1.0398  0.2849
 3531TIP3   OH232083   5.608   4.417   4.425 -0.3534 -0.2287 -0.4826
 3531TIP3    H132084   5.591   4.355   4.496 -0.9362 -1.7000 -1.8453
 3531TIP3    H232085   5.586   4.503   4.463 -0.6638 -0.9538  1.0877
 3532TIP3   OH232086   0.946   0.807   4.418 -0.4488  0.1811  0.0115
 3532TIP3    H132087   1.008   0.858   4.470 -0.8529  0.3410  0.3414
 3532TIP3    H232088   0.932   0.860   4.339 -0.0921  0.0986 -0.1062
 3533TIP3   OH232089   1.872   5.411  16.476  0.2682 -0.6011  0.2351
 3533TIP3    H132090   1.967   5.424  16.465  0.1638 -0.9565 -1.3218
 3533TIP3    H232091   1.836   5.431  16.389 -1.0394 -0.9025  0.7025
 3534TIP3   OH232092   0.079   0.845   3.025  0.2331 -0.5049  0.7960
 3534TIP3    H132093   0.135   0.847   3.103  1.2033 -0.1463  0.0999
 3534TIP3    H232094   0.106   0.922   2.974  0.0253 -1.0752 -0.1903
 3535TIP3   OH232095   5.802   3.495   0.150 -0.3230 -0.0804  0.7712
 3535TIP3    H132096   5.780   3.402   0.152 -2.5609  0.3557 -0.2630
 3535TIP3    H232097   5.897   3.497   0.157 -0.3092 -2.3461  2.4490
 3536TIP3   OH232098   5.195   0.378   0.017  0.0080  0.0022  0.3346
 3536TIP3    H132099   5.105   0.354  -0.009  0.3746 -0.2258 -0.7920
 3536TIP3    H232100   5.194   0.372   0.112 -1.2076  0.1084  0.3536
 3537TIP3   OH232101   0.470   1.696   4.206 -0.3912  0.0954 -0.1888
 3537TIP3    H132102   0.381   1.701   4.169 -1.1776  0.7571  1.6730
 3537TIP3    H232103   0.471   1.763   4.274  1.7141  0.4083 -0.4621
 3538TIP3   OH232104   2.108   6.018  12.224 -0.1667 -0.3124 -0.1371
 3538TIP3    H132105   2.161   5.939  12.233  0.1059 -0.1210 -0.0171
 3538TIP3    H232106   2.026   5.998  12.269  0.2467 -0.2194  0.6841
 3539TIP3   OH232107   4.165   3.959  14.312  0.5059 -0.7596 -0.6194
 3539TIP3    H132108   4.177   4.037  14.258  1.7496  1.8342  3.0078
 3539TIP3    H232109   4.071   3.956  14.330  0.5576  0.4926 -0.0621
 3540TIP3   OH232110   0.635   6.192  16.147 -0.2983 -0.4186 -0.0425
 3540TIP3    H132111   0.545   6.182  16.179 -0.2190  1.1072  0.7470
 3540TIP3    H232112   0.628   6.175  16.053 -1.1868 -1.5091  0.1981
 3541TIP3   OH232113   2.222   3.714   4.103  0.0752 -0.5053  0.3575
 3541TIP3    H132114   2.134   3.747   4.086  0.1720  0.3405  1.4257
 3541TIP3    H232115   2.243   3.660   4.026 -0.6942  0.6557 -0.6939
 3542TIP3   OH232116   0.327   3.668  12.728  0.3617 -0.0651  0.4025
 3542TIP3    H132117   0.407   3.616  12.728 -0.7156 -1.8686 -0.8544
 3542TIP3    H232118   0.335   3.726  12.652  0.4084 -0.3771  0.1679
 3543TIP3   OH232119   4.662   2.547  12.639  0.5472 -0.9707  0.1758
 3543TIP3    H132120   4.668   2.585  12.551  0.4385 -2.2325 -0.4003
 3543TIP3    H232121   4.752   2.520  12.660  1.5290  3.1987  2.3314
 3544TIP3   OH232122   2.360   5.364  15.841  0.2822 -0.1842 -0.4168
 3544TIP3    H132123   2.406   5.357  15.757 -0.0687  1.3448 -0.7747
 3544TIP3    H232124   2.372   5.455  15.867 -1.2494 -0.1352  0.2326
 3545TIP3   OH232125   1.340   3.248   0.025  1.2510  0.0140  0.2796
 3545TIP3    H132126   1.326   3.309  -0.048 -0.5333  0.1094  0.6541
 3545TIP3    H232127   1.364   3.166  -0.018 -1.1541 -0.3350 -0.6096
 3546TIP3   OH232128   2.769   3.840  11.425  0.5163  0.2124 -0.1459
 3546TIP3    H132129   2.794   3.756  11.387  0.9996  0.9913 -1.6122
 3546TIP3    H232130   2.830   3.903  11.386  0.6787  1.1498  1.5159
 3547TIP3   OH232131   1.393   2.357   1.044  0.1440 -0.0128 -0.6903
 3547TIP3    H132132   1.436   2.443   1.050  1.9690 -0.9385  0.3694
 3547TIP3    H232133   1.310   2.369   1.088  0.7628  1.0093  0.2517
 3548TIP3   OH232134   4.649   5.519  13.732  0.0754  0.6828 -0.3777
 3548TIP3    H132135   4.578   5.508  13.795 -0.2376  0.0555 -0.8289
 3548TIP3    H232136   4.607   5.556  13.654  0.2255  0.2675 -0.6643
 3549TIP3   OH232137   3.111   3.992  16.115  0.1486 -0.1915  0.0645
 3549TIP3    H132138   3.166   3.934  16.169  0.5543 -0.0539 -0.1948
 3549TIP3    H232139   3.146   4.079  16.130 -1.0314  0.1149  1.1468
 3550TIP3   OH232140   4.152   2.926  16.876 -0.6680  0.4494  0.2136
 3550TIP3    H132141   4.105   3.007  16.857 -2.0224 -0.2731  0.4005
 3550TIP3    H232142   4.137   2.910  16.969  1.2086  0.9825  0.6373
 3551TIP3   OH232143   5.801   3.389  15.796 -0.0788  0.3905  0.4040
 3551TIP3    H132144   5.782   3.481  15.815 -2.5843 -0.3201  1.6823
 3551TIP3    H232145   5.814   3.386  15.701  2.3304  2.3684  0.5787
 3552TIP3   OH232146   4.326   5.593   3.597 -0.3665  0.3097 -0.4109
 3552TIP3    H132147   4.290   5.605   3.509  0.0488 -0.4073 -0.6848
 3552TIP3    H232148   4.406   5.541   3.583 -0.5934 -0.2799  0.4407
 3553TIP3   OH232149   6.432   5.320   0.277 -0.0472 -0.0855 -0.1368
 3553TIP3    H132150   6.470   5.283   0.356  0.4282  0.7176  0.0226
 3553TIP3    H232151   6.466   5.266   0.205  1.5158  0.6915 -0.0116
 3554TIP3   OH232152   6.758   3.086  13.992  0.2265  0.3213  0.5725
 3554TIP3    H132153   6.694   3.040  14.047  1.2852 -0.4261  1.2237
 3554TIP3    H232154   6.814   3.017  13.957 -1.4833  0.5451 -3.0317
 3555TIP3   OH232155   6.128   5.610   0.789 -0.1967 -0.2860  0.1781
 3555TIP3    H132156   6.208   5.565   0.762  0.0699 -0.0864  0.6211
 3555TIP3    H232157   6.075   5.614   0.710  0.8660  0.9499 -0.5102
 3556TIP3   OH232158   1.948   3.961  11.779  0.2299 -0.6103  0.0552
 3556TIP3    H132159   2.035   3.948  11.816  0.5962  0.0656 -0.5338
 3556TIP3    H232160   1.953   4.048  11.738 -0.4521 -0.9299 -0.7210
 3557TIP3   OH232161   3.644   3.450  10.389 -0.4721 -0.5782 -0.5350
 3557TIP3    H132162   3.597   3.375  10.425 -0.3148 -0.0166  0.9266
 3557TIP3    H232163   3.647   3.512  10.461  2.6103 -0.6327 -0.5152
 3558TIP3   OH232164   1.919   5.917   6.343  0.0312  0.3402 -0.0413
 3558TIP3    H132165   1.993   5.901   6.402 -0.3998  0.2163  0.4685
 3558TIP3    H232166   1.902   6.011   6.350 -0.1743  0.2837  0.2136
 3559TIP3   OH232167   0.117   1.960   3.759  0.8099  0.1161  0.7816
 3559TIP3    H132168   0.032   1.922   3.740  1.9767 -1.7712 -1.2251
 3559TIP3    H232169   0.153   1.906   3.829  0.8986 -0.0151  0.6378
 3560TIP3   OH232170   1.027   5.235   0.004  0.0320 -0.6267  0.0942
 3560TIP3    H132171   0.968   5.309   0.014 -0.6615 -1.1554 -0.0481
 3560TIP3    H232172   1.101   5.271  -0.047 -1.1178 -0.4543 -1.5364
 3561TIP3   OH232173   2.225   0.166   2.225 -0.0662 -0.0604  0.2905
 3561TIP3    H132174   2.259   0.166   2.314  2.4020 -0.3681 -0.5663
 3561TIP3    H232175   2.195   0.077   2.209  0.8269 -0.3721  0.3554
 3562TIP3   OH232176   6.321   4.521  14.731 -0.0879 -0.2473 -0.3915
 3562TIP3    H132177   6.306   4.434  14.767 -0.3166  0.1588  0.5170
 3562TIP3    H232178   6.407   4.546  14.766  0.3876 -0.4533 -1.3679
 3563TIP3   OH232179   4.994   1.721  11.165 -0.3001 -0.0603 -0.2158
 3563TIP3    H132180   4.958   1.650  11.218 -2.2653  0.6747 -0.4677
 3563TIP3    H232181   5.024   1.786  11.228 -0.9863  0.0344  0.0202
 3564TIP3   OH232182   1.661   6.681  13.476  0.1880  0.2174 -0.3663
 3564TIP3    H132183   1.643   6.774  13.462  1.8400  0.5970 -0.1658
 3564TIP3    H232184   1.740   6.680  13.529 -0.2584 -1.3126  0.3332
 3565TIP3   OH232185   0.521   2.197   2.830  0.4150 -0.1165  0.2406
 3565TIP3    H132186   0.600   2.159   2.791 -0.2149 -1.0207 -0.2025
 3565TIP3    H232187   0.484   2.251   2.760  0.0054 -0.6607  0.0303
 3566TIP3   OH232188   6.647   1.842  13.053 -0.2106 -0.0253  0.6665
 3566TIP3    H132189   6.590   1.876  13.122 -0.2157 -0.0620  0.6803
 3566TIP3    H232190   6.667   1.918  12.998 -0.1621  0.0143  0.7402
 3567TIP3   OH232191   4.830   2.891  16.252 -0.0090  0.1919 -0.3218
 3567TIP3    H132192   4.885   2.945  16.310 -0.8627  2.4750 -1.5108
 3567TIP3    H232193   4.892   2.834  16.207  0.9646  0.2402  0.8856
 3568TIP3   OH232194   6.230   6.056   2.624  0.0859  0.7294  0.8420
 3568TIP3    H132195   6.290   6.103   2.682  0.6328 -0.6090  1.4265
 3568TIP3    H232196   6.223   6.110   2.546  2.9429  0.4256  0.2876
 3569TIP3   OH232197   5.862   5.757   5.926 -0.5266  0.5002 -0.1928
 3569TIP3    H132198   5.848   5.851   5.928  0.4028  0.6428  0.1102
 3569TIP3    H232199   5.783   5.719   5.964 -1.6951  1.0497 -1.9616
 3570TIP3   OH232200   6.529   6.146   2.254 -0.3335  0.0853 -0.4638
 3570TIP3    H132201   6.487   6.226   2.284  2.8875  1.5075  0.7690
 3570TIP3    H232202   6.499   6.135   2.164 -0.8013  2.7930 -0.7212
 3571TIP3   OH232203   5.325   4.841   2.432 -0.0424 -0.3503  0.1178
 3571TIP3    H132204   5.420   4.853   2.432 -0.0491  0.0036 -1.7018
 3571TIP3    H232205   5.313   4.748   2.413 -0.0691 -0.3348  0.0608
 3572TIP3   OH232206   3.192   0.673   1.297 -0.8403  0.0166  0.6642
 3572TIP3    H132207   3.244   0.707   1.369  2.7652 -0.4903 -1.4311
 3572TIP3    H232208   3.222   0.723   1.220 -1.9694 -1.7261 -1.0027
 3573TIP3   OH232209   0.212   2.883  11.822  0.2727  0.4817  0.3075
 3573TIP3    H132210   0.279   2.832  11.777  0.6554  0.6344  0.6844
 3573TIP3    H232211   0.130   2.836  11.808  0.6527 -0.3654  0.8458
 3574TIP3   OH232212   2.552   4.755   6.361  0.4045 -0.2030 -0.8882
 3574TIP3    H132213   2.628   4.809   6.384  0.7636 -0.7778 -0.6919
 3574TIP3    H232214   2.554   4.750   6.265  0.3437  0.1582 -0.9114
 3575TIP3   OH232215   5.104   0.640  15.875  0.2021  0.1471  0.3425
 3575TIP3    H132216   5.077   0.664  15.786 -0.2057  0.1488  0.4647
 3575TIP3    H232217   5.199   0.652  15.875  0.4838 -1.7595 -0.6780
 3576TIP3   OH232218   2.084   6.140   4.792 -0.4155  0.6242 -0.0192
 3576TIP3    H132219   2.049   6.219   4.750  0.2951  0.5646 -0.7474
 3576TIP3    H232220   2.178   6.157   4.801 -0.2321 -0.2003 -0.3103
 3577TIP3   OH232221   4.469   2.469  12.036  0.0289  0.0123 -0.3722
 3577TIP3    H132222   4.517   2.545  12.070 -1.0391  0.3481  0.4383
 3577TIP3    H232223   4.519   2.443  11.959  2.2121 -0.4266  1.0858
 3578TIP3   OH232224   4.063   0.301   0.671  0.0959  1.0360 -0.0253
 3578TIP3    H132225   4.090   0.212   0.695 -2.0336  0.4049  0.2348
 3578TIP3    H232226   4.144   0.352   0.674  1.3406 -0.8375  0.0109
 3579TIP3   OH232227   2.197   3.952   0.684 -0.0961 -1.2157  0.4280
 3579TIP3    H132228   2.208   4.020   0.617 -1.9390 -0.3833  0.9039
 3579TIP3    H232229   2.187   4.000   0.766  0.8306 -2.1728  1.1213
 3580TIP3   OH232230   5.529   6.308  14.921 -0.1200  0.7211 -0.4223
 3580TIP3    H132231   5.621   6.299  14.944 -0.6828 -1.8571  1.1527
 3580TIP3    H232232   5.485   6.332  15.002 -1.1417 -0.6470 -0.5308
 3581TIP3   OH232233   2.828   3.716  12.094  0.0702  0.1738 -0.6802
 3581TIP3    H132234   2.733   3.709  12.100  0.0832  1.0784  2.0722
 3581TIP3    H232235   2.859   3.627  12.111 -0.2404 -0.3643 -2.6869
 3582TIP3   OH232236   6.082   6.771   3.023  0.0389  0.1545  0.6291
 3582TIP3    H132237   6.106   6.731   3.107 -0.4781  0.1695  0.7892
 3582TIP3    H232238   6.003   6.821   3.043 -0.1402  0.0807  0.1072
 3583TIP3   OH232239   5.045   1.988  10.781  0.0299  0.0035 -0.4066
 3583TIP3    H132240   5.130   1.949  10.759 -1.0292 -1.4225 -2.3174
 3583TIP3    H232241   5.039   1.980  10.876  0.7192 -2.9360 -0.4998
 3584TIP3   OH232242   3.883   0.212   4.482  0.4077 -0.5237  0.1699
 3584TIP3    H132243   3.809   0.226   4.423  0.0703 -0.7477  0.5358
 3584TIP3    H232244   3.960   0.237   4.431 -0.1145  2.9035  0.8146
 3585TIP3   OH232245   2.366   0.564  15.664 -0.1692  0.3175  0.1018
 3585TIP3    H132246   2.290   0.568  15.722 -0.9416 -2.6400 -0.5289
 3585TIP3    H232247   2.364   0.647  15.616 -1.3896  1.4471  1.9834
 3586TIP3   OH232248   4.118   6.659   6.017 -0.3947  0.1750 -0.0208
 3586TIP3    H132249   4.077   6.683   6.100  0.9924  1.3868  0.3768
 3586TIP3    H232250   4.093   6.730   5.957  1.7046  1.4307  0.4692
 3587TIP3   OH232251   3.662   4.079   2.335  0.6153  0.3570 -0.6255
 3587TIP3    H132252   3.682   3.987   2.352 -0.1747  0.3820  0.5866
 3587TIP3    H232253   3.698   4.096   2.248  0.4758 -1.1847 -1.0157
 3588TIP3   OH232254   0.672   0.979  16.698  0.5486  0.1148 -0.4696
 3588TIP3    H132255   0.698   1.065  16.728  0.6414 -0.2054  0.3769
 3588TIP3    H232256   0.703   0.918  16.765  0.8917 -0.6294 -1.2703
 3589TIP3   OH232257   1.545   5.569   3.950  0.1922 -0.1294  0.2203
 3589TIP3    H132258   1.495   5.529   4.021  0.2406 -0.5992 -0.0088
 3589TIP3    H232259   1.627   5.598   3.991  0.8310 -1.6620  0.0863
 3590TIP3   OH232260   5.623   2.706   5.301 -0.7385 -0.1852 -0.2659
 3590TIP3    H132261   5.539   2.662   5.288 -0.5458 -0.4042 -0.7668
 3590TIP3    H232262   5.600   2.785   5.351 -1.0539 -0.9392  0.8150
 3591TIP3   OH232263   0.795   3.042   3.765  0.0118  0.4902  0.5253
 3591TIP3    H132264   0.836   2.979   3.706  0.2170 -1.0161  2.1956
 3591TIP3    H232265   0.702   3.020   3.764 -0.5511  2.5629 -1.6486
 3592TIP3   OH232266   1.055   0.667   1.994  0.4495 -0.0070  0.0961
 3592TIP3    H132267   0.959   0.662   1.993  0.3954 -0.3383  2.3317
 3592TIP3    H232268   1.080   0.667   1.902 -1.8497  3.6758 -0.7561
 3593TIP3   OH232269   3.168   1.640   6.218 -0.3913 -0.0894 -0.4599
 3593TIP3    H132270   3.128   1.575   6.275  1.0830 -0.1531  0.5626
 3593TIP3    H232271   3.105   1.712   6.214 -0.9000 -0.4658  0.5340
 3594TIP3   OH232272   6.501   6.137  12.086  0.5375  0.2540 -0.5585
 3594TIP3    H132273   6.421   6.112  12.040 -0.9250  1.0978  1.3569
 3594TIP3    H232274   6.491   6.097  12.173  1.9851  0.7596 -0.1348
 3595TIP3   OH232275   2.466   4.367   0.587  0.4518  0.2152 -0.1712
 3595TIP3    H132276   2.549   4.377   0.541 -0.2328  1.1962 -1.2310
 3595TIP3    H232277   2.474   4.425   0.663  0.8622  0.0241 -0.0613
 3596TIP3   OH232278   5.738   2.121  14.956 -0.3155  0.0269 -0.0709
 3596TIP3    H132279   5.760   2.213  14.968 -0.5695 -0.0512  1.1153
 3596TIP3    H232280   5.668   2.104  15.019 -0.4335 -0.9246 -0.4342
 3597TIP3   OH232281   6.016   3.826  11.296 -0.2244 -0.3637 -0.2201
 3597TIP3    H132282   6.057   3.856  11.377 -0.0992  0.9976 -0.7561
 3597TIP3    H232283   6.077   3.853  11.227 -0.4746 -1.2298 -0.7920
 3598TIP3   OH232284   5.936   0.813  15.272 -0.3856 -0.6971 -0.3040
 3598TIP3    H132285   5.967   0.836  15.184  0.9727 -0.1717  0.2799
 3598TIP3    H232286   6.009   0.765  15.311 -0.6827 -0.2912  0.7899
 3599TIP3   OH232287   5.583   5.687  11.204 -0.1853 -0.3596 -0.3490
 3599TIP3    H132288   5.527   5.649  11.136  0.3082  0.1012 -1.0214
 3599TIP3    H232289   5.541   5.770  11.227 -1.0560 -1.0920  0.8518
 3600TIP3   OH232290   5.272   0.546  13.165 -0.0764 -0.8273 -0.7902
 3600TIP3    H132291   5.277   0.581  13.254 -2.5867  1.9697 -1.5896
 3600TIP3    H232292   5.333   0.599  13.114 -0.2148 -0.9866 -1.1269
 3601TIP3   OH232293   0.842   1.882  16.935 -0.7772 -0.0776  0.5317
 3601TIP3    H132294   0.874   1.793  16.923 -1.0813 -0.0248 -0.9429
 3601TIP3    H232295   0.915   1.938  16.910 -0.6421  0.0963  1.2902
 3602TIP3   OH232296   4.664   3.743   0.803  0.3126 -0.2121 -0.1598
 3602TIP3    H132297   4.718   3.818   0.779  0.0696  0.3935  1.0832
 3602TIP3    H232298   4.697   3.717   0.889 -1.3069  0.1206  0.5917
 3603TIP3   OH232299   0.532   2.270   2.372 -0.2215 -0.3710  0.8119
 3603TIP3    H132300   0.553   2.338   2.436 -0.8097 -0.3026  0.9303
 3603TIP3    H232301   0.437   2.274   2.362 -0.3515 -1.6427  1.3407
 3604TIP3   OH232302   4.557   6.008  12.346 -0.2685 -0.1730  0.5232
 3604TIP3    H132303   4.641   6.045  12.372 -0.2188 -0.0759  0.2232
 3604TIP3    H232304   4.492   6.069  12.381 -0.1458  1.6690 -2.1651
 3605TIP3   OH232305   3.381   5.200  14.674  0.2579  0.4468  0.6639
 3605TIP3    H132306   3.461   5.196  14.622 -0.0642  2.2592 -0.0377
 3605TIP3    H232307   3.328   5.127  14.641  1.0440  0.0842  0.1561
 3606TIP3   OH232308   6.729   3.620   6.177 -0.0077  0.4191 -0.2007
 3606TIP3    H132309   6.780   3.694   6.143  2.4560 -0.2656  1.7377
 3606TIP3    H232310   6.698   3.575   6.099  2.8823  0.5707 -1.5492
 3607TIP3   OH232311   0.558   1.784   5.589  0.1330  0.4747  0.6748
 3607TIP3    H132312   0.584   1.767   5.498 -0.0315 -0.1819  0.7430
 3607TIP3    H232313   0.547   1.878   5.594  3.0418  0.9140  0.7568
 3608TIP3   OH232314   1.692   4.090  15.443 -0.0320  0.1015 -0.6270
 3608TIP3    H132315   1.720   4.009  15.401 -1.5853  0.3426 -2.2854
 3608TIP3    H232316   1.769   4.122  15.489  0.2542 -3.0797  1.4457
 3609TIP3   OH232317   6.721   2.687  13.924  0.0984 -0.7062 -0.0587
 3609TIP3    H132318   6.680   2.744  13.858 -0.7938  1.9503  2.5771
 3609TIP3    H232319   6.676   2.603  13.915 -0.2623 -0.3177 -2.5001
 3610TIP3   OH232320   4.557   0.980   1.194 -0.2012 -0.3403 -0.6633
 3610TIP3    H132321   4.579   1.058   1.144  1.9955 -1.1179 -1.0198
 3610TIP3    H232322   4.542   1.013   1.283  1.2798  0.4756 -0.6687
 3611TIP3   OH232323   3.089   1.766   3.978 -0.6453 -0.0232  0.1227
 3611TIP3    H132324   3.151   1.695   3.993 -0.2323  0.5692  1.4001
 3611TIP3    H232325   3.101   1.790   3.886  0.0816 -0.7889  0.0109
 3612TIP3   OH232326   3.971   2.175   1.514 -0.8524 -0.1894 -0.2530
 3612TIP3    H132327   3.992   2.234   1.441 -2.1294 -0.3224 -0.7642
 3612TIP3    H232328   4.053   2.166   1.562  0.0374 -0.1032 -1.6809
 3613TIP3   OH232329   4.313   4.088  13.217  0.5636 -0.0212  0.0909
 3613TIP3    H132330   4.394   4.113  13.172  1.6830 -2.1354  0.7973
 3613TIP3    H232331   4.276   4.172  13.247  3.3973  0.9501  1.2356
 3614TIP3   OH232332   4.610   1.268  11.582  0.3159 -0.1160 -0.0242
 3614TIP3    H132333   4.529   1.255  11.631  1.2643  0.8501  1.9239
 3614TIP3    H232334   4.674   1.213  11.627  0.7199 -1.0305 -1.6665
 3615TIP3   OH232335   0.707   3.796   4.302  0.2550  0.3354 -0.1729
 3615TIP3    H132336   0.775   3.806   4.234 -0.5364 -0.9344 -1.2007
 3615TIP3    H232337   0.638   3.857   4.276  0.8245  1.3844  0.6906
 3616TIP3   OH232338   0.439   0.771  15.976  0.1789  0.1555  0.4440
 3616TIP3    H132339   0.377   0.767  16.050  0.4978  1.2288  0.7862
 3616TIP3    H232340   0.387   0.743  15.901 -0.7317  0.9672  0.7338
 3617TIP3   OH232341   6.078   1.652   4.214  0.2242  0.2437 -0.4472
 3617TIP3    H132342   6.127   1.717   4.164  1.3185 -1.4322 -1.6483
 3617TIP3    H232343   6.143   1.613   4.272 -0.3801  0.0861  0.1355
 3618TIP3   OH232344   3.701   0.785   0.329 -0.5394 -0.6391 -0.3382
 3618TIP3    H132345   3.744   0.800   0.413 -0.7789 -1.6054 -0.0347
 3618TIP3    H232346   3.706   0.870   0.285 -0.2954 -0.1481  0.5940
 3619TIP3   OH232347   1.928   2.955  13.228 -0.2077 -0.1761  0.3587
 3619TIP3    H132348   1.885   3.014  13.290  1.5701 -0.6339  2.1201
 3619TIP3    H232349   1.979   3.013  13.171 -0.1870  0.1238  0.6822
 3620TIP3   OH232350   3.723   0.030  15.983 -0.7428  0.7307 -0.3145
 3620TIP3    H132351   3.668  -0.048  15.985  1.6984 -1.0730  1.4513
 3620TIP3    H232352   3.765   0.028  15.897 -0.2372 -0.2618 -0.0503
 3621TIP3   OH232353   0.045   6.518   3.209  0.0706 -0.1453  0.0733
 3621TIP3    H132354  -0.012   6.555   3.276 -0.2395  0.2394 -0.3989
 3621TIP3    H232355   0.015   6.557   3.127 -0.8575 -2.1107 -0.5911
 3622TIP3   OH232356   2.672   5.545   4.587  0.0417 -0.0255  0.2266
 3622TIP3    H132357   2.582   5.573   4.604  0.4256  2.3607 -1.1980
 3622TIP3    H232358   2.665   5.488   4.510 -0.2914 -0.3490  0.4906
 3623TIP3   OH232359   6.276   6.575  15.163 -0.2750  0.1452 -0.5346
 3623TIP3    H132360   6.355   6.627  15.149 -0.0945  0.2900  0.9049
 3623TIP3    H232361   6.214   6.609  15.098  0.0087  1.8183  0.0175
 3624TIP3   OH232362   2.240   6.113  11.182  0.2146 -0.0632 -0.1001
 3624TIP3    H132363   2.201   6.044  11.236 -1.2420 -0.2676 -1.3671
 3624TIP3    H232364   2.205   6.194  11.217 -2.1950 -0.2813 -1.7636
 3625TIP3   OH232365   3.187   1.610   2.362 -0.4837 -0.1252  0.2897
 3625TIP3    H132366   3.210   1.689   2.314  2.3416 -1.3487 -0.5841
 3625TIP3    H232367   3.218   1.625   2.451  0.7097 -0.4831 -0.0526
 3626TIP3   OH232368   2.816   5.342   0.040  0.2216 -0.3375 -0.3492
 3626TIP3    H132369   2.797   5.396  -0.036  1.4250 -1.1604 -1.2815
 3626TIP3    H232370   2.739   5.285   0.049 -0.9873  1.3570  0.5572
 3627TIP3   OH232371   3.754   3.301  10.635 -0.2889 -0.9468  0.0815
 3627TIP3    H132372   3.703   3.315  10.715 -1.6582 -0.0063 -0.9066
 3627TIP3    H232373   3.822   3.368  10.638 -0.4785 -0.7641  0.3527
 3628TIP3   OH232374   1.567   2.872  13.569  0.4933  0.7775  0.3988
 3628TIP3    H132375   1.597   2.818  13.495 -1.0935 -0.1956  0.4256
 3628TIP3    H232376   1.537   2.953  13.529 -0.5083  0.1933 -0.0687
 3629TIP3   OH232377   0.446   0.752   1.103 -0.0146  0.4882  0.4557
 3629TIP3    H132378   0.530   0.745   1.057 -0.7481 -0.3563 -0.8089
 3629TIP3    H232379   0.431   0.665   1.140 -0.3459  0.6301  0.6646
 3630TIP3   OH232380   2.869   1.136   3.999 -0.4978 -0.1013  0.3076
 3630TIP3    H132381   2.847   1.046   3.978  0.2849 -0.1322 -0.4441
 3630TIP3    H232382   2.924   1.131   4.077 -0.1623 -0.2984  0.0558
 3631TIP3   OH232383   0.608   3.905  17.201 -0.3396 -0.5791 -0.5631
 3631TIP3    H132384   0.655   3.987  17.215  1.5887 -1.1498 -2.9820
 3631TIP3    H232385   0.641   3.846  17.268  0.9338 -0.3747 -0.9959
 3632TIP3   OH232386   2.908   3.175   2.765 -0.1440  0.3264  0.4081
 3632TIP3    H132387   2.849   3.212   2.830 -0.6409 -1.4944  1.0491
 3632TIP3    H232388   2.855   3.110   2.718  0.5527  0.7246 -0.9722
 3633TIP3   OH232389   3.288   3.803  16.284 -0.1832  0.2992  0.1220
 3633TIP3    H132390   3.302   3.708  16.279 -0.5516  0.2718 -0.5116
 3633TIP3    H232391   3.244   3.816  16.367 -0.0789 -0.0834  0.2423
 3634TIP3   OH232392   1.451   5.937   3.321 -0.4722 -0.7822 -0.2578
 3634TIP3    H132393   1.377   5.885   3.291 -0.6775 -1.4031  1.2430
 3634TIP3    H232394   1.417   5.987   3.396 -0.1337  1.1314 -1.3065
 3635TIP3   OH232395   4.162   3.623  14.576 -0.5237 -0.1546  0.2435
 3635TIP3    H132396   4.126   3.710  14.592  0.2935  0.5423 -1.5140
 3635TIP3    H232397   4.110   3.587  14.504 -1.0031 -1.2495  1.0983
 3636TIP3   OH232398   2.405   1.891   3.989  0.0062 -0.5784  0.0370
 3636TIP3    H132399   2.413   1.817   4.050  0.0420 -1.5762 -1.1426
 3636TIP3    H232400   2.356   1.856   3.915  2.3571 -0.2505 -1.7842
 3637TIP3   OH232401   5.224   2.674   4.002 -0.2209  0.2152  0.6186
 3637TIP3    H132402   5.142   2.649   3.959 -0.2495  0.5385  0.4821
 3637TIP3    H232403   5.219   2.769   4.010 -0.3884  0.1263  1.7000
 3638TIP3   OH232404   2.493   6.580  13.277 -0.9271 -0.5153 -0.6217
 3638TIP3    H132405   2.406   6.540  13.281 -0.9685 -0.4765 -1.0941
 3638TIP3    H232406   2.495   6.625  13.193 -1.2004  1.2242  0.2499
 3639TIP3   OH232407   5.577   1.929  12.184 -0.3366  0.1427 -0.5164
 3639TIP3    H132408   5.623   2.013  12.186 -0.3374  0.1450 -0.6095
 3639TIP3    H232409   5.646   1.864  12.198 -0.4617  0.2087  0.4899
 3640TIP3   OH232410   4.891   5.573  14.482 -0.4676  0.4213  0.0486
 3640TIP3    H132411   4.936   5.518  14.419  0.3595  0.1760  0.8424
 3640TIP3    H232412   4.819   5.611  14.432  0.0052  0.0252 -0.9739
 3641TIP3   OH232413   5.219   0.013  12.820 -0.4753 -0.7926 -0.4338
 3641TIP3    H132414   5.216  -0.077  12.787  2.4240 -1.2699  0.3563
 3641TIP3    H232415   5.136   0.024  12.866 -1.2167 -2.7926 -1.1837
 3642TIP3   OH232416   6.427   6.618   1.600  0.4395 -0.0916  0.1788
 3642TIP3    H132417   6.369   6.688   1.569  1.2574  0.6908  0.3861
 3642TIP3    H232418   6.440   6.637   1.693  0.2088 -0.8472  0.3657
 3643TIP3   OH232419   3.255   1.158  11.747 -0.2126 -0.4834  0.6121
 3643TIP3    H132420   3.320   1.163  11.677  0.2070  0.5972  1.0432
 3643TIP3    H232421   3.256   1.067  11.775  0.2436 -0.7349 -0.1980
 3644TIP3   OH232422   4.613   0.264   5.555 -0.4362 -0.0172 -0.7767
 3644TIP3    H132423   4.654   0.350   5.553 -0.4497 -0.0153 -1.3978
 3644TIP3    H232424   4.606   0.242   5.648 -0.4420  0.6552 -0.6139
 3645TIP3   OH232425   0.694   4.519  15.063  0.6845 -0.0336 -0.1966
 3645TIP3    H132426   0.630   4.583  15.095  0.2403 -0.9556  0.7998
 3645TIP3    H232427   0.663   4.435  15.096  1.9320 -0.6215 -0.4588
 3646TIP3   OH232428   2.846   3.897  16.898  0.3879  0.0179  0.0805
 3646TIP3    H132429   2.807   3.956  16.963  2.5916  0.4682  1.0895
 3646TIP3    H232430   2.774   3.840  16.871 -0.7156  0.0962  2.6025
 3647TIP3   OH232431   4.668   1.443   5.536 -0.2355  0.1271 -0.7611
 3647TIP3    H132432   4.621   1.431   5.619 -2.7663  1.0128 -1.9650
 3647TIP3    H232433   4.678   1.355   5.501 -0.3144 -0.1315 -0.1535
 3648TIP3   OH232434   6.781   5.517   4.190 -0.1135  0.6563 -0.0847
 3648TIP3    H132435   6.774   5.421   4.190 -1.0360  0.7117 -0.6531
 3648TIP3    H232436   6.706   5.546   4.242  0.4479  1.0612  0.5072
 3649TIP3   OH232437   4.886   1.959   3.409  0.4919 -0.1110 -0.0752
 3649TIP3    H132438   4.898   1.899   3.336  0.9194 -1.6026  1.1641
 3649TIP3    H232439   4.821   1.915   3.465  0.7143  0.6456  0.7966
 3650TIP3   OH232440   3.949   2.522   1.128  0.5211 -0.2520 -0.9117
 3650TIP3    H132441   3.906   2.529   1.042 -2.2323 -1.4433  0.2521
 3650TIP3    H232442   3.886   2.559   1.189  2.5300  0.7769  0.6238
 3651TIP3   OH232443   0.100   3.330  12.874 -0.3732  0.4382  0.3321
 3651TIP3    H132444   0.064   3.241  12.868 -0.4364  0.4202  0.9645
 3651TIP3    H232445   0.134   3.347  12.786  0.4467 -0.5544  0.4352
 3652TIP3   OH232446   1.036   0.540  11.841  0.4113  0.0532  0.2397
 3652TIP3    H132447   1.019   0.601  11.913 -1.3701  0.2628 -0.3033
 3652TIP3    H232448   1.131   0.539  11.831  0.8278 -0.8697  3.3552
 3653TIP3   OH232449   3.840   5.838  16.007 -0.5262  0.7980  0.6216
 3653TIP3    H132450   3.928   5.819  15.974 -1.0333  0.4454 -0.6001
 3653TIP3    H232451   3.831   5.933  15.996 -0.8661  0.6235 -0.7781
 3654TIP3   OH232452   1.507   1.187   2.776  0.2957  0.2898  0.1440
 3654TIP3    H132453   1.597   1.183   2.742 -0.4595 -0.3382 -1.9511
 3654TIP3    H232454   1.462   1.247   2.717 -0.5328  1.1706  1.6021
 3655TIP3   OH232455   0.342   0.960   0.456  0.0530  0.3786  0.2912
 3655TIP3    H132456   0.307   0.933   0.371 -0.5863  0.6145  0.4764
 3655TIP3    H232457   0.437   0.965   0.442  0.0684 -0.7019 -0.0977
 3656TIP3   OH232458   0.163   6.023  12.422 -0.4423 -0.1031  0.2409
 3656TIP3    H132459   0.215   5.969  12.481  0.8552  0.3531 -0.4551
 3656TIP3    H232460   0.182   6.113  12.448 -1.1406  0.0686  0.1844
 3657TIP3   OH232461   2.904   3.424  16.111 -0.6629 -0.1428  0.3347
 3657TIP3    H132462   2.986   3.450  16.153 -1.6320  0.9581  1.6443
 3657TIP3    H232463   2.836   3.470  16.160 -1.9473  0.7200 -2.0610
 3658TIP3   OH232464   1.872   3.738   1.836  0.4551  0.4953 -0.3155
 3658TIP3    H132465   1.924   3.662   1.865 -0.4058 -0.2526 -0.6969
 3658TIP3    H232466   1.916   3.813   1.876 -0.4703 -0.4393  2.7342
 3659TIP3   OH232467   5.667   0.485   2.174 -0.1413 -0.2830 -0.2517
 3659TIP3    H132468   5.707   0.456   2.257  0.3696  3.0901  0.8254
 3659TIP3    H232469   5.742   0.504   2.117 -0.2862  1.4249  0.0696
 3660TIP3   OH232470   3.112   1.929   4.703  0.6193 -0.4374 -0.0174
 3660TIP3    H132471   3.136   1.873   4.776  1.0961 -0.0717  0.1071
 3660TIP3    H232472   3.048   1.990   4.739  0.6613 -0.4205  0.0271
 3661TIP3   OH232473   1.704   5.251  16.584 -0.4032  0.6276  0.0951
 3661TIP3    H132474   1.779   5.306  16.563  0.5835 -0.1682  1.3668
 3661TIP3    H232475   1.656   5.299  16.652 -0.1365  0.4162  0.4374
 3662TIP3   OH232476   2.803   4.739  10.994  0.2484  0.0894 -0.6492
 3662TIP3    H132477   2.875   4.802  10.991  1.0642 -0.8008 -0.3537
 3662TIP3    H232478   2.755   4.754  10.912  0.8546  0.5955 -0.9212
 3663TIP3   OH232479   6.285   0.524   6.292  0.1216  0.4482 -0.1692
 3663TIP3    H132480   6.258   0.585   6.360  0.6773  2.3745 -1.5947
 3663TIP3    H232481   6.338   0.459   6.338  1.0825  2.0899  1.1504
 3664TIP3   OH232482   0.143   2.896   4.562  0.8139  0.2706  0.2881
 3664TIP3    H132483   0.066   2.934   4.605  1.5676  0.8588  1.1441
 3664TIP3    H232484   0.199   2.971   4.541  1.1096 -0.1402 -0.4451
 3665TIP3   OH232485   4.226   2.255  13.857  0.2821  0.3285 -0.2600
 3665TIP3    H132486   4.275   2.182  13.895 -0.5608 -1.0223 -1.6482
 3665TIP3    H232487   4.286   2.329  13.861  1.2422 -0.4730  1.0241
 3666TIP3   OH232488   5.680   4.006   0.923 -0.0675  0.2169  0.4915
 3666TIP3    H132489   5.656   4.016   0.831 -1.2197  2.6378  0.9647
 3666TIP3    H232490   5.611   3.951   0.960  0.4817 -0.8912 -0.0952
 3667TIP3   OH232491   3.624   3.151  16.650  0.0370  0.0294 -0.0346
 3667TIP3    H132492   3.615   3.239  16.686  6.5843  3.3051 -4.3802
 3667TIP3    H232493   3.697   3.112  16.699 -0.6978 -1.7737 -0.2757
 3668TIP3   OH232494   4.663   6.342   2.995 -0.4181  0.2254 -0.2009
 3668TIP3    H132495   4.631   6.270   2.940  0.5268  0.5886 -1.2550
 3668TIP3    H232496   4.654   6.420   2.941  0.3857  0.6160  0.2123
 3669TIP3   OH232497   4.091   5.860   2.031  0.9009  0.9182  0.3266
 3669TIP3    H132498   4.116   5.896   2.116  0.9850 -0.3049  0.8385
 3669TIP3    H232499   4.001   5.829   2.044  0.9367  0.6688 -0.0163
 3670TIP3   OH232500   5.361   4.696   1.664  0.1414  0.5869 -0.3051
 3670TIP3    H132501   5.310   4.626   1.623 -0.5906  0.0521  1.4284
 3670TIP3    H232502   5.390   4.658   1.747  0.1792  2.1498  0.4228
 3671TIP3   OH232503   4.053   1.342  16.547 -0.5566 -0.4596 -0.1679
 3671TIP3    H132504   3.983   1.289  16.585  0.1803 -1.2865  0.0818
 3671TIP3    H232505   4.130   1.285  16.549  0.3996  0.7949  0.6189
 3672TIP3   OH232506   4.288   5.081  14.679 -0.8284 -0.1092  0.3124
 3672TIP3    H132507   4.298   5.048  14.768 -1.5366  1.0270  0.8377
 3672TIP3    H232508   4.220   5.026  14.640 -0.3514 -0.7629  0.3760
 3673TIP3   OH232509   1.268   6.761   1.928 -0.6999 -0.4309 -0.4547
 3673TIP3    H132510   1.284   6.758   1.833  1.5209 -1.5819 -0.1024
 3673TIP3    H232511   1.348   6.796   1.965 -0.7966 -1.7524  1.1228
 3674TIP3   OH232512   5.144   2.198   4.742 -0.3541 -0.3820  0.2365
 3674TIP3    H132513   5.087   2.145   4.685 -0.7162  0.3450 -0.0927
 3674TIP3    H232514   5.084   2.257   4.787  0.0223 -0.4228  0.7951
 3675TIP3   OH232515   2.307   4.681  13.305 -0.0559 -0.5026 -0.4102
 3675TIP3    H132516   2.240   4.671  13.237  0.3631  1.0156 -1.0736
 3675TIP3    H232517   2.385   4.640  13.268  0.7320  1.9927 -1.7475
 3676TIP3   OH232518   1.471   3.721  14.598  0.6032 -0.0024  0.0513
 3676TIP3    H132519   1.420   3.769  14.533  2.0775  1.8819  0.1897
 3676TIP3    H232520   1.556   3.766  14.600  2.0038 -2.4365  0.4393
 3677TIP3   OH232521   1.135   5.605  14.366 -0.5137  0.3364  0.5666
 3677TIP3    H132522   1.150   5.517  14.331  0.2590  0.5122  0.4440
 3677TIP3    H232523   1.218   5.629  14.407 -0.7022  1.0369  0.5477
 3678TIP3   OH232524   1.460   5.496   0.215  1.2532 -0.1875  0.0893
 3678TIP3    H132525   1.480   5.516   0.123  2.8237  0.7974  0.5980
 3678TIP3    H232526   1.543   5.510   0.261  0.2038  0.5553  1.8490
 3679TIP3   OH232527   6.590   3.434  12.213  0.0935  0.1667  0.8138
 3679TIP3    H132528   6.676   3.429  12.256  0.7694 -0.8847 -0.5603
 3679TIP3    H232529   6.557   3.521  12.235  2.1671  1.1761  0.2328
 3680TIP3   OH232530   2.074   5.354  12.483  0.4278 -0.5815 -0.2797
 3680TIP3    H132531   2.091   5.260  12.481 -1.3975 -0.9492  0.1480
 3680TIP3    H232532   2.085   5.382  12.392 -0.5890 -1.5292 -0.7140
 3681TIP3   OH232533   3.917   2.890  14.865  0.2458  0.1561 -0.2569
 3681TIP3    H132534   3.861   2.831  14.916 -2.3025  1.3854 -1.4925
 3681TIP3    H232535   3.996   2.838  14.847 -1.4205 -2.4981 -0.4006
 3682TIP3   OH232536   2.143   5.414  16.474  0.1930 -0.3354 -0.7835
 3682TIP3    H132537   2.183   5.351  16.534  1.3812  1.2943  0.2195
 3682TIP3    H232538   2.148   5.372  16.388  0.1852 -1.9284 -0.0417
 3683TIP3   OH232539   2.096   0.907  13.168  0.4268  0.2744 -0.1003
 3683TIP3    H132540   2.159   0.882  13.236  2.2881  1.4630 -1.3250
 3683TIP3    H232541   2.126   0.862  13.089 -0.5061  0.5447 -0.6249
 3684TIP3   OH232542   4.708   5.115  12.876  0.7049 -0.2771 -0.1659
 3684TIP3    H132543   4.636   5.167  12.840 -0.6631 -0.8694  1.5382
 3684TIP3    H232544   4.676   5.025  12.874  0.7310 -0.3947  1.9639
 3685TIP3   OH232545   4.495   4.199   3.474 -0.1305 -0.1526  0.4279
 3685TIP3    H132546   4.403   4.179   3.489  0.2873 -2.9010 -0.1750
 3685TIP3    H232547   4.532   4.204   3.562 -1.0549  2.4548  0.7414
 3686TIP3   OH232548   5.666   1.552  15.120 -0.2213 -0.1229 -0.1302
 3686TIP3    H132549   5.598   1.610  15.087 -0.0579  2.1541  3.1347
 3686TIP3    H232550   5.648   1.468  15.077 -3.3289  1.0889 -1.5115
 3687TIP3   OH232551   0.535   6.632   5.846 -0.1571  0.0016  0.6176
 3687TIP3    H132552   0.596   6.685   5.795  0.3166 -1.7978 -0.8104
 3687TIP3    H232553   0.588   6.593   5.915 -0.1277  0.0213  0.6061
 3688TIP3   OH232554   5.699   5.891   5.437  0.3529 -0.2079 -0.4707
 3688TIP3    H132555   5.741   5.976   5.428 -1.9650  1.1064  0.0842
 3688TIP3    H232556   5.628   5.892   5.373 -0.8735 -0.9291  0.8090
 3689TIP3   OH232557   3.193   2.204  12.198  0.2453  0.5009 -0.3540
 3689TIP3    H132558   3.215   2.281  12.251  0.0274  0.3388 -0.0244
 3689TIP3    H232559   3.102   2.219  12.171 -0.2895 -0.2771  0.8726
 3690TIP3   OH232560   2.534   3.504   5.250 -0.1778 -0.2904  0.6033
 3690TIP3    H132561   2.606   3.441   5.238  0.2088 -0.5413  3.5763
 3690TIP3    H232562   2.523   3.543   5.163 -0.1175 -4.0659 -1.3197
 3691TIP3   OH232563   5.987   2.051  16.936  0.3651  0.3813 -0.1182
 3691TIP3    H132564   6.046   2.114  16.979  0.4126 -0.1127  0.5477
 3691TIP3    H232565   5.931   2.020  17.006  2.3473 -2.6783  0.2864
 3692TIP3   OH232566   6.766   0.433  11.088  0.3548 -0.2326  0.3179
 3692TIP3    H132567   6.845   0.382  11.067  1.7003  1.0868  1.8198
 3692TIP3    H232568   6.798   0.501  11.148 -1.6977  1.2246 -0.1573
 3693TIP3   OH232569   6.278   0.900   2.417 -0.0346 -0.0936 -0.9962
 3693TIP3    H132570   6.365   0.890   2.456  0.0465  3.0272 -0.1186
 3693TIP3    H232571   6.221   0.923   2.491 -1.3658 -0.8357 -1.7523
 3694TIP3   OH232572   1.519   1.395   4.328 -0.4778  0.4124  0.1043
 3694TIP3    H132573   1.573   1.335   4.379 -0.3216  0.5474  0.0993
 3694TIP3    H232574   1.480   1.454   4.392 -3.1069 -1.5755  0.4761
 3695TIP3   OH232575   4.908   5.317   6.261 -0.1099  1.0292  0.2095
 3695TIP3    H132576   4.947   5.284   6.342 -1.0600 -0.3587  0.1288
 3695TIP3    H232577   4.956   5.271   6.191 -2.1939 -1.1807  0.1183
 3696TIP3   OH232578   3.019   0.325   1.503  0.7997  0.1388 -0.2224
 3696TIP3    H132579   2.942   0.340   1.559  0.5741 -1.1037 -0.1590
 3696TIP3    H232580   3.091   0.313   1.564  1.0918  1.4200 -0.2847
 3697TIP3   OH232581   6.736   0.288  14.270 -0.1729 -0.0968  0.1387
 3697TIP3    H132582   6.756   0.296  14.177 -0.8293 -2.5237 -0.2641
 3697TIP3    H232583   6.815   0.318  14.314  1.8035 -2.8634 -1.2864
 3698TIP3   OH232584   2.508   3.792  15.726 -0.2129  0.4030  0.2917
 3698TIP3    H132585   2.446   3.733  15.683 -0.4486  0.5297  0.4547
 3698TIP3    H232586   2.588   3.787  15.673 -0.8728  1.4587 -0.8517
 3699TIP3   OH232587   5.234   0.646  14.523  1.1934 -0.7632 -0.9059
 3699TIP3    H132588   5.153   0.696  14.530  1.0434 -1.0982 -0.1943
 3699TIP3    H232589   5.209   0.566  14.478  0.7289 -1.6798  0.8759
 3700TIP3   OH232590   4.839   0.213   2.072 -0.3923  0.2575 -0.2143
 3700TIP3    H132591   4.813   0.252   1.989  1.6084  2.0694 -0.0564
 3700TIP3    H232592   4.927   0.246   2.088 -0.4374 -0.6308  2.2830
 3701TIP3   OH232593   6.707   4.522  10.765  0.6141  0.3778  0.0354
 3701TIP3    H132594   6.727   4.430  10.748 -0.6279  0.0617  0.1328
 3701TIP3    H232595   6.613   4.522  10.783  0.6525  1.6360  0.2930
 3702TIP3   OH232596   4.804   5.068  13.962 -0.3414  0.4175  0.2397
 3702TIP3    H132597   4.896   5.083  13.985 -0.4291 -1.6007  2.1864
 3702TIP3    H232598   4.803   4.980  13.925 -1.4598  0.5310 -0.0267
 3703TIP3   OH232599   6.629   6.769  16.560  0.0659  0.4837  0.3836
 3703TIP3    H132600   6.584   6.685  16.555  0.1564  0.4553  0.0578
 3703TIP3    H232601   6.717   6.749  16.591 -0.3495  0.6123  1.7289
 3704TIP3   OH232602   1.808   5.315   0.818  0.4516  0.4131 -0.2086
 3704TIP3    H132603   1.807   5.386   0.883 -1.4818  0.9215 -0.7128
 3704TIP3    H232604   1.741   5.254   0.849  1.9990 -1.1872  0.1426
 3705TIP3   OH232605   5.167   1.779  14.085  0.5045  0.6663 -0.1721
 3705TIP3    H132606   5.235   1.714  14.101  1.9408  1.4475 -2.5661
 3705TIP3    H232607   5.084   1.732  14.097  1.4518 -0.7921  0.9698
 3706TIP3   OH232608   4.120   5.930  12.607  0.6817  0.2526  0.4884
 3706TIP3    H132609   4.108   5.836  12.618  2.5428  0.0690  1.3932
 3706TIP3    H232610   4.060   5.970  12.669 -0.6970 -0.2748 -0.4488
 3707TIP3   OH232611   5.948   2.986  11.276 -0.2100  0.0243  0.7874
 3707TIP3    H132612   5.942   2.894  11.303  0.1466 -0.2838 -0.1102
 3707TIP3    H232613   6.033   3.015  11.308  0.1816 -0.3183  0.0921
 3708TIP3   OH232614   3.151   2.144  14.834  0.2633  0.1795 -0.6895
 3708TIP3    H132615   3.122   2.231  14.808 -0.6952  0.3211  0.7364
 3708TIP3    H232616   3.087   2.085  14.795 -1.8263  0.4580  2.0102
 3709TIP3   OH232617   2.859   5.858   1.448  0.1420  0.5376  0.7115
 3709TIP3    H132618   2.797   5.804   1.399  1.6469 -0.6703  0.0270
 3709TIP3    H232619   2.805   5.909   1.508 -1.4670 -0.8440  0.5226
 3710TIP3   OH232620   2.163   0.329  15.795  0.0673  0.1886  0.0481
 3710TIP3    H132621   2.090   0.275  15.765  0.0465  0.5540 -0.5689
 3710TIP3    H232622   2.166   0.402  15.733  0.0588  0.9284  0.9081
 3711TIP3   OH232623   4.342   6.606   2.602  0.4207  0.2191  0.0253
 3711TIP3    H132624   4.415   6.667   2.617  0.9438 -0.1202 -1.0299
 3711TIP3    H232625   4.264   6.660   2.607  0.6863  0.5097  1.6689
 3712TIP3   OH232626   3.938   0.076   2.029  0.2468  0.8460  0.5125
 3712TIP3    H132627   3.884   0.039   1.959  1.9319 -0.3639 -0.2022
 3712TIP3    H232628   3.950   0.168   2.003 -0.0447  0.6867 -0.2183
 3713TIP3   OH232629   5.457   1.116  17.103  0.0481  0.4153  0.5176
 3713TIP3    H132630   5.459   1.081  17.192 -1.1950  1.0758  0.8155
 3713TIP3    H232631   5.385   1.179  17.103 -0.4242 -0.0864 -1.1489
 3714TIP3   OH232632   3.587   5.233   0.770 -0.2402 -0.2434 -0.2813
 3714TIP3    H132633   3.494   5.212   0.775  0.1531 -2.5552 -1.2990
 3714TIP3    H232634   3.622   5.205   0.854 -0.6001  1.7382  0.5793
 3715TIP3   OH232635   3.327   1.665  15.736  0.0027  0.0920  0.2504
 3715TIP3    H132636   3.399   1.726  15.750 -2.0111  2.8099 -0.3060
 3715TIP3    H232637   3.301   1.639  15.824  1.3479 -0.5955  0.4704
 3716TIP3   OH232638   2.684   2.050   4.609  0.6072 -0.7318  0.1315
 3716TIP3    H132639   2.659   2.108   4.537  0.2774  0.5553  1.2384
 3716TIP3    H232640   2.757   1.998   4.574  1.9456  1.4134 -0.4585
 3717TIP3   OH232641   5.320   2.876   4.768  0.0749 -0.3452 -0.0531
 3717TIP3    H132642   5.323   2.970   4.781 -1.3324 -0.1146 -1.1541
 3717TIP3    H232643   5.228   2.853   4.775  0.4418 -1.7281  0.6377
 3718TIP3   OH232644   4.652   3.881   6.110 -0.7179  0.3354 -0.1465
 3718TIP3    H132645   4.691   3.803   6.072  1.0681  0.7110  0.8049
 3718TIP3    H232646   4.669   3.951   6.047  1.4601  0.7729  0.8057
 3719TIP3   OH232647   0.689   0.721   0.944  0.3505  0.1778 -0.3286
 3719TIP3    H132648   0.700   0.759   0.857 -2.1123 -1.7064 -1.6025
 3719TIP3    H232649   0.712   0.629   0.933 -0.9840 -0.3115  0.7395
 3720TIP3   OH232650   3.974   3.001  11.186  0.2454 -0.4170 -0.3221
 3720TIP3    H132651   3.990   3.084  11.141  0.9210 -0.4013 -0.0650
 3720TIP3    H232652   3.879   2.987  11.179  0.1887  0.1660 -0.7267
 3721TIP3   OH232653   1.498   1.114  16.799  0.0426 -0.7130  0.0780
 3721TIP3    H132654   1.505   1.037  16.855 -0.6431 -0.7862  0.0689
 3721TIP3    H232655   1.587   1.129  16.767  0.7526  0.1180  2.2337
 3722TIP3   OH232656   2.853   3.475   4.870 -0.2634 -0.1631 -0.0324
 3722TIP3    H132657   2.906   3.541   4.914  0.3963 -0.0198 -1.0145
 3722TIP3    H232658   2.794   3.442   4.938 -1.6505  2.4512  0.1646
 3723TIP3   OH232659   4.151   4.050  16.974 -0.2347 -0.0230  0.2090
 3723TIP3    H132660   4.189   4.113  17.034 -1.4864  1.1151 -0.1516
 3723TIP3    H232661   4.058   4.048  16.996 -0.8411  0.8637 -2.0236
 3724TIP3   OH232662   3.103   6.502   5.524 -0.0505 -0.5868  1.0541
 3724TIP3    H132663   3.130   6.593   5.532 -0.0086 -0.5242  0.2770
 3724TIP3    H232664   3.060   6.483   5.608 -1.9032  0.7795  0.4939
 3725TIP3   OH232665   2.558   2.335  16.930 -0.8470 -0.0731  0.1002
 3725TIP3    H132666   2.568   2.244  16.901  1.0515  0.3486 -0.7622
 3725TIP3    H232667   2.619   2.384  16.875 -1.8325  1.7365  0.5554
 3726TIP3   OH232668   3.845   0.434   3.374 -0.4671  0.2916 -0.2305
 3726TIP3    H132669   3.811   0.350   3.405 -1.4440  0.5494 -0.5613
 3726TIP3    H232670   3.881   0.416   3.288  1.0674 -0.1608  0.4723
 3727TIP3   OH232671   5.006   0.880  13.891  0.4112 -0.4422 -0.5701
 3727TIP3    H132672   4.926   0.847  13.850  0.0653  0.5160 -0.6839
 3727TIP3    H232673   5.055   0.922  13.820 -1.0760  2.9488  0.2239
 3728TIP3   OH232674   1.074   6.562   6.391  0.3015 -0.0216 -0.0459
 3728TIP3    H132675   1.062   6.474   6.427  0.6313  0.6916  1.9157
 3728TIP3    H232676   1.058   6.621   6.464  0.6017  1.5548 -1.1842
 3729TIP3   OH232677   6.381   1.587   6.191  0.0605 -0.5919 -0.3102
 3729TIP3    H132678   6.399   1.522   6.259 -0.2101 -0.6642 -0.3046
 3729TIP3    H232679   6.465   1.630   6.175 -0.1081  0.2188  0.8793
 3730TIP3   OH232680   3.264   2.373  14.584 -0.0393  0.8475  0.1801
 3730TIP3    H132681   3.295   2.283  14.570 -0.7660  0.7447 -0.8826
 3730TIP3    H232682   3.326   2.410  14.647  2.4742  0.7441 -2.0154
 3731TIP3   OH232683   1.423   0.666   1.111  0.2067  0.0004  0.4723
 3731TIP3    H132684   1.475   0.607   1.057  0.8996 -0.1298  1.2593
 3731TIP3    H232685   1.333   0.636   1.099  0.4147 -0.3962 -0.1431
 3732TIP3   OH232686   2.474   0.758   0.328  0.0219 -0.8642  0.4837
 3732TIP3    H132687   2.385   0.752   0.362 -1.5516  3.0773 -2.1479
 3732TIP3    H232688   2.490   0.672   0.287 -3.3162 -1.1962 -0.4222
 3733TIP3   OH232689   6.197   2.116  11.531 -0.1525 -0.1104  0.4521
 3733TIP3    H132690   6.176   2.041  11.587  3.4480  0.1449  2.4334
 3733TIP3    H232691   6.178   2.193  11.585 -2.7200  0.5041 -1.1532
 3734TIP3   OH232692   4.769   2.084   2.284  0.5565 -0.7751  0.3529
 3734TIP3    H132693   4.713   2.099   2.207 -0.5829 -0.4896  1.2063
 3734TIP3    H232694   4.736   2.002   2.322  0.6708 -0.5643  0.9119
 3735TIP3   OH232695   1.138   4.191  12.024 -0.5028  0.5964  0.2767
 3735TIP3    H132696   1.055   4.159  11.990 -1.2111  0.4812  2.0090
 3735TIP3    H232697   1.203   4.129  11.992 -0.9424  1.1188 -1.7389
 3736TIP3   OH232698   4.839   2.756  13.376  0.0746  0.3621 -0.1134
 3736TIP3    H132699   4.762   2.700  13.364  1.5174 -1.4827 -1.2967
 3736TIP3    H232700   4.803   2.842  13.397 -2.2828 -0.5817  0.0301
 3737TIP3   OH232701   2.705   1.211  13.883 -0.0400 -0.1147  0.4872
 3737TIP3    H132702   2.787   1.257  13.898 -0.1458 -0.0407  0.8584
 3737TIP3    H232703   2.722   1.121  13.913 -0.3292  0.0966  1.3162
 3738TIP3   OH232704   2.534   1.338   4.421 -0.3524 -0.2409 -0.1957
 3738TIP3    H132705   2.597   1.321   4.351 -0.5460  1.3828 -0.8180
 3738TIP3    H232706   2.586   1.381   4.489 -0.6789  0.7622 -0.5550
 3739TIP3   OH232707   6.207   2.890   4.260  0.2828 -0.4650  0.1778
 3739TIP3    H132708   6.266   2.898   4.335  0.8443 -0.0840 -0.2954
 3739TIP3    H232709   6.143   2.960   4.273  1.4799  0.8341 -0.6555
 3740TIP3   OH232710   3.045   4.378  16.018 -0.3396 -0.1089 -0.1423
 3740TIP3    H132711   3.079   4.346  15.934  1.7155 -0.2317  0.6587
 3740TIP3    H232712   2.963   4.331  16.031  0.1793 -1.3969 -1.2950
 3741TIP3   OH232713   3.310   1.642  13.616  0.4223 -0.5898 -0.1954
 3741TIP3    H132714   3.301   1.737  13.608  0.7560 -0.6667 -2.0269
 3741TIP3    H232715   3.385   1.630  13.674  0.9499  0.2881 -0.6676
 3742TIP3   OH232716   3.783   1.991   5.453 -0.1039  0.3157 -0.2295
 3742TIP3    H132717   3.798   2.045   5.531  0.1374  0.8085 -0.6141
 3742TIP3    H232718   3.780   2.053   5.381 -0.3475 -0.1392 -0.6168
 3743TIP3   OH232719   5.866   6.085   0.454 -0.1587  0.0704 -0.5267
 3743TIP3    H132720   5.847   5.994   0.431  1.8026 -1.2740  2.3958
 3743TIP3    H232721   5.847   6.090   0.548 -0.3601  2.7635 -0.6350
 3744TIP3   OH232722   6.210   6.505  16.783  0.0731 -0.6351 -0.6193
 3744TIP3    H132723   6.279   6.499  16.849  0.5217  1.5015 -0.8283
 3744TIP3    H232724   6.129   6.489  16.831  0.4462  0.2752  0.3620
 3745TIP3   OH232725   5.010   5.836   5.134 -0.7211  0.1561  0.6694
 3745TIP3    H132726   5.036   5.779   5.062  2.4600  1.0930  0.9540
 3745TIP3    H232727   4.915   5.847   5.122 -0.7780 -1.9598 -1.6681
 3746TIP3   OH232728   6.715   1.798   2.819 -0.0628  0.2666 -0.5980
 3746TIP3    H132729   6.683   1.715   2.783 -2.3246  1.3983 -1.3829
 3746TIP3    H232730   6.704   1.789   2.914  0.5389 -0.6155 -0.5953
 3747TIP3   OH232731   6.797   2.613   2.706  0.1005  0.2821 -0.0775
 3747TIP3    H132732   6.837   2.564   2.634 -0.7695 -0.9487  0.2493
 3747TIP3    H232733   6.736   2.674   2.663  1.9627  1.9105 -0.5526
 3748TIP3   OH232734   2.535   2.950   6.085 -0.1628  0.6802  0.4420
 3748TIP3    H132735   2.572   2.880   6.031  0.7266  2.2933 -1.1413
 3748TIP3    H232736   2.552   2.923   6.175 -2.0350 -2.3042  0.0320
 3749TIP3   OH232737   1.688   1.291  16.086 -0.1032  0.7700 -0.0774
 3749TIP3    H132738   1.683   1.347  16.008  2.7355 -2.9766 -3.3576
 3749TIP3    H232739   1.773   1.312  16.125 -0.1848  0.5366  0.2214
 3750TIP3   OH232740   3.797   2.543  13.420  0.3385  0.2117 -0.4754
 3750TIP3    H132741   3.838   2.619  13.461 -0.2338 -1.0017  2.5591
 3750TIP3    H232742   3.709   2.539  13.458 -0.4088 -0.7979 -2.1794
 3751TIP3   OH232743   1.384   0.489  12.571  0.2034  0.1200  0.6165
 3751TIP3    H132744   1.317   0.441  12.522 -0.5223  3.3243 -1.8599
 3751TIP3    H232745   1.335   0.557  12.617  1.2942 -0.6957  3.1280
 3752TIP3   OH232746   6.376   5.496   0.710 -0.3422 -0.1123  0.2576
 3752TIP3    H132747   6.418   5.495   0.624  0.1290  1.8625  0.4025
 3752TIP3    H232748   6.446   5.520   0.770 -1.3109  1.7606  0.7144
 3753TIP3   OH232749   3.893   5.608   0.688  0.0311  0.1694 -0.2554
 3753TIP3    H132750   3.931   5.617   0.601 -0.6028  0.6628 -0.4874
 3753TIP3    H232751   3.806   5.572   0.673 -0.7679  1.8845  0.0202
 3754TIP3   OH232752   4.575   3.073  16.890 -0.4452 -0.6840  0.3675
 3754TIP3    H132753   4.612   3.150  16.935 -0.4065  0.1107 -0.9562
 3754TIP3    H232754   4.586   3.002  16.952 -0.4675  0.3771  1.6411
 3755TIP3   OH232755   3.473   5.763  10.803 -0.5185  0.0432  0.8148
 3755TIP3    H132756   3.471   5.824  10.729 -0.7116  1.1022  1.6803
 3755TIP3    H232757   3.404   5.699  10.783  0.0517 -0.2296 -0.3654
 3756TIP3   OH232758   2.069   1.052   2.532 -0.3003  0.0997  0.3761
 3756TIP3    H132759   2.030   1.131   2.569  1.0437  0.8744  0.2288
 3756TIP3    H232760   2.158   1.079   2.509 -0.4734 -0.8832 -1.6196
 3757TIP3   OH232761   0.379   3.881  16.991 -0.5240  0.2547 -0.1580
 3757TIP3    H132762   0.369   3.975  17.007  0.4028  0.3010  0.2453
 3757TIP3    H232763   0.456   3.856  17.043  0.6410 -0.2527 -2.0087
 3758TIP3   OH232764   2.494   4.210   5.347  0.8127  0.0469 -0.4551
 3758TIP3    H132765   2.570   4.152   5.356  1.3910  0.9951  1.2423
 3758TIP3    H232766   2.513   4.283   5.406 -0.2717  1.5701 -1.9045
 3759TIP3   OH232767   3.571   3.414  16.770 -0.2029  0.3489 -0.2979
 3759TIP3    H132768   3.531   3.488  16.723 -0.6683  1.5273  1.8063
 3759TIP3    H232769   3.561   3.436  16.862 -1.8284 -3.1419  0.5191
 3760TIP3   OH232770   0.033   6.375   5.423 -0.5123 -0.1366 -0.2112
 3760TIP3    H132771   0.111   6.342   5.380 -1.2180 -2.6763  0.2762
 3760TIP3    H232772   0.014   6.458   5.380  2.7441  0.8731  0.0949
 3761TIP3   OH232773   3.115   0.586   3.801 -0.4346 -0.3783  0.0935
 3761TIP3    H132774   3.101   0.502   3.759  0.0079 -0.8647  0.8936
 3761TIP3    H232775   3.159   0.640   3.735 -1.3340 -0.5416 -0.6511
 3762TIP3   OH232776   3.453   0.454  11.441  1.1587  0.4620  0.5341
 3762TIP3    H132777   3.454   0.550  11.440 -0.3328  0.5024  0.1771
 3762TIP3    H232778   3.419   0.431  11.527  0.2280  0.3072  0.1413
 3763TIP3   OH232779   0.924   1.046   0.729 -0.1721 -0.4460  0.3030
 3763TIP3    H132780   0.889   1.049   0.818  1.9412  0.3174  1.1826
 3763TIP3    H232781   0.847   1.051   0.673 -1.5005  0.5778  2.0949
 3764TIP3   OH232782   4.688   2.489  11.156  0.1132 -0.2619 -0.1829
 3764TIP3    H132783   4.729   2.521  11.076 -0.4182 -1.1991 -0.8425
 3764TIP3    H232784   4.594   2.495  11.141  0.0048 -0.5399  0.3260
 3765TIP3   OH232785   0.436   0.607  13.018  0.2260  0.0302 -0.7869
 3765TIP3    H132786   0.353   0.602  13.066 -0.2424  0.6132 -1.5110
 3765TIP3    H232787   0.459   0.515  13.002  0.9638 -0.2274  1.4580
 3766TIP3   OH232788   1.064   1.496   3.183 -0.2065  0.4140  0.5772
 3766TIP3    H132789   0.982   1.464   3.221  0.1998 -2.3853 -0.7029
 3766TIP3    H232790   1.054   1.482   3.089  3.0183 -3.6117  0.5812
 3767TIP3   OH232791   6.741   4.250   6.129 -0.0977 -0.0153 -0.6454
 3767TIP3    H132792   6.660   4.255   6.078 -0.0674  1.0479 -0.6025
 3767TIP3    H232793   6.786   4.333   6.111 -0.8110  1.1275  2.3622
 3768TIP3   OH232794   2.549   0.743  15.889 -0.5927 -0.2214  0.3517
 3768TIP3    H132795   2.530   0.758  15.982 -0.1324 -0.2174  0.4440
 3768TIP3    H232796   2.594   0.659  15.886  1.4106  0.8058  0.3864
 3769TIP3   OH232797   3.201   0.933   2.492 -0.0087  0.0872 -0.0079
 3769TIP3    H132798   3.220   1.010   2.545 -0.0092  1.7059 -2.1972
 3769TIP3    H232799   3.284   0.885   2.489  0.8006  1.4613 -0.7815
 3770TIP3   OH232800   1.189   2.600  11.981  0.0358  0.5094 -0.5597
 3770TIP3    H132801   1.154   2.675  11.934 -1.8084  1.1381  1.6249
 3770TIP3    H232802   1.122   2.533  11.972  1.8851 -1.2107 -2.9326
 3771TIP3   OH232803   5.330   5.109   4.262  0.1504 -0.2108 -0.3620
 3771TIP3    H132804   5.256   5.088   4.204  0.4747  0.9378 -1.2309
 3771TIP3    H232805   5.340   5.204   4.253  2.0193 -0.4023 -0.6088
 3772TIP3   OH232806   1.096   3.450  15.650  0.3837  0.4431  0.5072
 3772TIP3    H132807   1.007   3.465  15.683 -0.3469  1.9215 -1.9312
 3772TIP3    H232808   1.111   3.356  15.666 -2.6510 -0.4906 -1.2470
 3773TIP3   OH232809   0.741   4.151   3.188 -0.0263 -0.1619 -0.0184
 3773TIP3    H132810   0.773   4.158   3.278  1.0054  0.2222 -0.3935
 3773TIP3    H232811   0.667   4.211   3.184  0.4280  0.4386  0.3635
 3774TIP3   OH232812   0.960   6.789  16.868 -0.1303 -0.3275 -0.2535
 3774TIP3    H132813   0.938   6.822  16.781  0.3082  1.0096  0.1190
 3774TIP3    H232814   0.916   6.849  16.928  1.9651  0.5714  0.4707
 3775TIP3   OH232815   3.385   1.950   6.389  0.2462 -0.1468 -0.0974
 3775TIP3    H132816   3.388   1.862   6.429  0.0915 -0.0504  0.1290
 3775TIP3    H232817   3.399   2.010   6.463 -1.5164  0.0964  0.0665
 3776TIP3   OH232818   3.078   2.699  16.809  0.2045 -0.1192 -0.4923
 3776TIP3    H132819   3.155   2.649  16.782  1.4347  2.2716 -1.8244
 3776TIP3    H232820   3.110   2.756  16.879 -0.8878 -0.4327  0.2941
 3777TIP3   OH232821   6.292   5.529   3.257  0.1246 -0.4618  0.7344
 3777TIP3    H132822   6.285   5.594   3.187 -0.3030  0.5775  1.7128
 3777TIP3    H232823   6.314   5.580   3.335 -1.2456 -1.3575  1.7483
 3778TIP3   OH232824   0.014   3.429  12.319  0.2658  0.5206 -0.5495
 3778TIP3    H132825   0.082   3.401  12.381  2.0552  0.1902 -2.5677
 3778TIP3    H232826   0.042   3.516  12.291 -0.0388  0.3028 -1.5573
 3779TIP3   OH232827   5.817   1.489  11.573  0.1594 -0.2329 -0.4046
 3779TIP3    H132828   5.755   1.544  11.621 -0.8267 -2.0576  0.5463
 3779TIP3    H232829   5.784   1.487  11.484 -0.4506 -0.1835 -0.1855
 3780TIP3   OH232830   1.047   5.447   4.856  0.1904 -0.0456  0.3410
 3780TIP3    H132831   1.135   5.464   4.822 -0.2799 -0.8953 -1.4609
 3780TIP3    H232832   0.990   5.504   4.804 -0.5097 -1.0240  0.0049
 3781TIP3   OH232833   5.466   0.387  16.589  0.1138  0.2644  0.2491
 3781TIP3    H132834   5.550   0.429  16.609 -0.5050  2.2429 -0.9825
 3781TIP3    H232835   5.402   0.458  16.595 -1.2396 -0.8685 -0.3387
 3782TIP3   OH232836   4.684   2.253  13.545 -0.1338 -0.1192  0.1887
 3782TIP3    H132837   4.591   2.246  13.569 -0.5725  0.6816 -1.1385
 3782TIP3    H232838   4.730   2.256  13.628 -1.1457 -2.2022  0.8862
 3783TIP3   OH232839   6.826   5.765   1.836 -0.0538  0.5314 -0.0552
 3783TIP3    H132840   6.888   5.838   1.827 -1.1386  1.3739 -0.9181
 3783TIP3    H232841   6.856   5.701   1.771 -0.5830  1.3180 -1.1093
 3784TIP3   OH232842   3.200   5.660   2.646  0.2883 -0.2816 -0.5408
 3784TIP3    H132843   3.111   5.646   2.678 -0.1230  0.6199 -1.2583
 3784TIP3    H232844   3.254   5.600   2.698 -0.7775 -1.0900 -0.3385
 3785TIP3   OH232845   6.398   2.401   1.517  0.5084  0.0779 -0.1048
 3785TIP3    H132846   6.423   2.494   1.520  0.7251 -0.0093  1.8477
 3785TIP3    H232847   6.470   2.356   1.562  1.0020 -1.2201 -2.0577
 3786TIP3   OH232848   2.048   1.306  10.576 -0.4157 -0.4104 -0.1932
 3786TIP3    H132849   1.983   1.331  10.510  0.3180  1.4252 -0.2778
 3786TIP3    H232850   2.019   1.350  10.656  0.6045  0.2727 -0.1879
 3787TIP3   OH232851   6.369   6.189  10.727  0.5170 -0.3494 -0.1682
 3787TIP3    H132852   6.295   6.217  10.673 -1.0832 -2.8084  0.5787
 3787TIP3    H232853   6.334   6.184  10.816  1.5068 -1.6726  0.1859
 3788TIP3   OH232854   2.550   5.273  16.418  0.7284  0.6333 -0.0946
 3788TIP3    H132855   2.616   5.205  16.426  0.7248  0.5705 -0.5840
 3788TIP3    H232856   2.483   5.236  16.361  1.0958  1.3183 -1.0019
 3789TIP3   OH232857   0.261   2.817  14.216  0.3865  0.7844 -0.0161
 3789TIP3    H132858   0.175   2.782  14.193 -0.3755  1.8490  1.1439
 3789TIP3    H232859   0.266   2.901  14.170  1.2653  0.2751 -0.9167
 3790TIP3   OH232860   5.487   4.618  15.665  0.0454 -0.4631 -0.3076
 3790TIP3    H132861   5.492   4.702  15.710  0.2695  0.6231 -2.2273
 3790TIP3    H232862   5.413   4.573  15.705  0.4599  0.2577  1.3555
 3791TIP3   OH232863   5.785   1.480   4.336 -0.2697 -0.1927  0.0755
 3791TIP3    H132864   5.806   1.498   4.244  1.6051 -1.9041  0.0903
 3791TIP3    H232865   5.846   1.534   4.385  0.7816 -1.4677  0.2213
 3792TIP3   OH232866   0.557   5.942   0.259 -0.6546  0.2179  0.1294
 3792TIP3    H132867   0.520   6.021   0.220 -0.2272  0.1136 -0.4898
 3792TIP3    H232868   0.635   5.923   0.207 -0.5221 -0.3769  0.5347
 3793TIP3   OH232869   5.004   0.509   2.642  0.3103  0.1042 -0.1502
 3793TIP3    H132870   4.986   0.415   2.640 -0.8303  0.3087 -1.5876
 3793TIP3    H232871   4.949   0.542   2.713  0.0099 -0.1961 -0.2393
 3794TIP3   OH232872   6.357   4.404   1.278 -0.0317  0.1857  0.0877
 3794TIP3    H132873   6.365   4.334   1.212 -0.9299 -1.3337  1.5096
 3794TIP3    H232874   6.413   4.375   1.351 -0.7234  0.7598  0.8656
 3795TIP3   OH232875   1.183   6.798   4.937 -0.3581 -0.2235 -0.2571
 3795TIP3    H132876   1.165   6.716   4.891  0.3762 -1.1138  0.9777
 3795TIP3    H232877   1.113   6.857   4.908 -0.6930 -1.1609 -1.4479
 3796TIP3   OH232878   4.781   0.328   1.853 -0.0720  0.7412  0.1459
 3796TIP3    H132879   4.772   0.261   1.785 -0.5645  0.2466  0.6880
 3796TIP3    H232880   4.809   0.406   1.806 -0.4098  0.4079 -0.6280
 3797TIP3   OH232881   0.942   6.520  15.063 -0.2698 -0.6910 -0.2112
 3797TIP3    H132882   1.002   6.461  15.108  1.4015  0.3106 -1.0290
 3797TIP3    H232883   0.920   6.475  14.981  1.4861  0.0223 -1.1172
 3798TIP3   OH232884   3.205   3.087  15.920  0.4363 -0.2384  0.7554
 3798TIP3    H132885   3.268   3.026  15.958  0.4029 -0.6910  0.0910
 3798TIP3    H232886   3.156   3.035  15.856  0.3211  0.4517  0.2706
 3799TIP3   OH232887   3.864   1.120   0.985  0.4038 -0.1635 -0.2567
 3799TIP3    H132888   3.827   1.125   1.073  0.0331  0.2130 -0.4337
 3799TIP3    H232889   3.790   1.130   0.926  0.8372  1.2285 -0.6135
 3800TIP3   OH232890   0.939   3.134  11.863 -0.1207 -0.0430 -0.3429
 3800TIP3    H132891   0.965   3.147  11.772 -2.6295 -2.1506 -1.5116
 3800TIP3    H232892   0.945   3.039  11.876  1.1055  0.2902  2.0567
 3801TIP3   OH232893   5.416   1.354   0.071 -0.1073  0.0036  0.0697
 3801TIP3    H132894   5.424   1.364  -0.024  1.2985 -2.6214 -0.1767
 3801TIP3    H232895   5.323   1.337   0.086  0.0051 -1.9167 -1.1665
 3802TIP3   OH232896   6.398   5.371  16.317 -0.6823  0.3874  0.5518
 3802TIP3    H132897   6.430   5.281  16.320  0.2078  0.7344  2.5543
 3802TIP3    H232898   6.457   5.415  16.256 -1.3006 -0.4041 -0.6764
 3803TIP3   OH232899   2.114   1.534   5.390  0.1811 -0.4789  0.0090
 3803TIP3    H132900   2.057   1.608   5.374 -1.8284 -2.0108 -0.3402
 3803TIP3    H232901   2.141   1.543   5.482  0.1638  0.7569 -0.0942
 3804TIP3   OH232902   6.398   3.193  10.203 -0.1526  0.2629 -0.2455
 3804TIP3    H132903   6.428   3.262  10.263  0.6164 -0.8342  0.6650
 3804TIP3    H232904   6.391   3.237  10.118  0.2762  1.4688  0.3171
 3805TIP3   OH232905   1.094   5.857   5.450 -0.3111 -0.0137  0.1624
 3805TIP3    H132906   1.002   5.883   5.449  0.2598  2.3724 -2.3907
 3805TIP3    H232907   1.132   5.903   5.524 -0.9673 -0.2975  0.6860
 3806TIP3   OH232908   1.572   2.955  14.887  0.0086 -0.3472 -0.4002
 3806TIP3    H132909   1.642   3.018  14.906 -0.8615  0.9737 -1.3837
 3806TIP3    H232910   1.576   2.942  14.793  0.1570 -1.7888 -0.2162
 3807TIP3   OH232911   4.564   1.224  12.089  0.0525 -0.4569 -0.6483
 3807TIP3    H132912   4.633   1.269  12.040  1.6529 -1.6556  0.3873
 3807TIP3    H232913   4.508   1.295  12.121  0.6666  0.5501 -1.7268
 3808TIP3   OH232914   6.062   1.125  11.924 -0.4319  0.4677  0.3030
 3808TIP3    H132915   6.015   1.065  11.866 -2.5492  2.2646  0.0228
 3808TIP3    H232916   6.112   1.068  11.982  0.6044 -1.4329 -2.2675
 3809TIP3   OH232917   1.068   4.104   3.057  0.1709  0.3794  0.7889
 3809TIP3    H132918   0.990   4.056   3.030  0.8885  0.1251 -1.0401
 3809TIP3    H232919   1.036   4.190   3.083 -0.8278 -0.0994  1.1824
 3810TIP3   OH232920   3.690   6.364   1.810  0.8037  0.5123  0.3331
 3810TIP3    H132921   3.717   6.289   1.862 -0.0079  0.7300  1.0729
 3810TIP3    H232922   3.596   6.373   1.825  1.0620  2.3768  1.2008
 3811TIP3   OH232923   0.088   6.447  16.648  0.5041  0.1062  0.1436
 3811TIP3    H132924   0.079   6.395  16.728  1.0762  1.0353  0.8245
 3811TIP3    H232925   0.153   6.400  16.596  1.6098  0.5534  1.0988
 3812TIP3   OH232926   6.044   6.496  12.676 -0.0582  0.3103 -0.4243
 3812TIP3    H132927   6.130   6.512  12.636 -0.3052 -0.3029 -1.2234
 3812TIP3    H232928   5.996   6.578  12.661  0.1731  0.4241 -0.5540
 3813TIP3   OH232929   3.883   1.781  13.176  0.1033 -0.9210  0.2613
 3813TIP3    H132930   3.856   1.829  13.255  0.2664 -0.8488  0.2721
 3813TIP3    H232931   3.892   1.849  13.109 -0.2699 -1.0094  0.1152
 3814TIP3   OH232932   5.867   0.204   4.590  0.4903 -0.3257 -0.5339
 3814TIP3    H132933   5.941   0.230   4.535  1.9854 -1.6544  0.7635
 3814TIP3    H232934   5.893   0.120   4.628 -0.4447  0.5025  2.1923
 3815TIP3   OH232935   4.965   2.838  16.764  0.2984  0.3504 -0.2701
 3815TIP3    H132936   4.913   2.913  16.734  1.1540  1.4288  0.8528
 3815TIP3    H232937   4.988   2.792  16.684  1.2781  2.3085 -1.1998
 3816TIP3   OH232938   5.789   6.066  16.104  0.3017  0.3079 -0.4881
 3816TIP3    H132939   5.704   6.023  16.100  0.9417 -0.9464 -1.2855
 3816TIP3    H232940   5.797   6.097  16.194 -0.9537  0.3513 -0.3867
 3817TIP3   OH232941   4.135   1.843  13.803 -0.7401  0.1467  0.2828
 3817TIP3    H132942   4.154   1.766  13.750 -0.9127 -0.0478  0.4993
 3817TIP3    H232943   4.117   1.912  13.739  2.4907  0.8860 -0.0343
 3818TIP3   OH232944   2.664   1.288  16.350  0.6323 -0.0990  0.8826
 3818TIP3    H132945   2.651   1.365  16.294  0.6284  0.6824  1.9371
 3818TIP3    H232946   2.610   1.220  16.309 -1.4163  1.1622  1.3259
 3819TIP3   OH232947   2.874   3.849  16.089  0.0806  0.1433 -0.4625
 3819TIP3    H132948   2.955   3.896  16.071  1.0806 -0.8807  1.1622
 3819TIP3    H232949   2.853   3.872  16.180  0.8609 -2.8411  0.5568
 3820TIP3   OH232950   5.643   0.510  15.123  0.5840  0.0874  0.0147
 3820TIP3    H132951   5.649   0.416  15.140 -0.1614 -0.4498 -2.3588
 3820TIP3    H232952   5.717   0.529  15.066  1.4307  1.2382  1.4231
 3821TIP3   OH232953   1.009   2.230  12.513  0.1838  0.0448  0.4072
 3821TIP3    H132954   1.088   2.245  12.460 -0.0765  2.8077  0.6326
 3821TIP3    H232955   0.997   2.313  12.560 -0.5515 -1.6950  3.5280
 3822TIP3   OH232956   4.116   4.346  11.273  0.4388  0.9951  0.9164
 3822TIP3    H132957   4.166   4.417  11.233 -0.0406  0.9365  0.1920
 3822TIP3    H232958   4.028   4.354  11.236 -0.1974  1.2943  2.4032
 3823TIP3   OH232959   6.010   3.104   0.119  0.0781 -0.4838 -0.1522
 3823TIP3    H132960   6.028   3.016   0.086 -0.1787 -0.8263  0.6017
 3823TIP3    H232961   5.925   3.127   0.081 -0.3682 -1.0057  0.5135
 3824TIP3   OH232962   4.920   2.723   0.013  0.3175 -0.4335 -0.4041
 3824TIP3    H132963   4.882   2.686  -0.068 -0.5286 -2.1817  0.7191
 3824TIP3    H232964   4.878   2.809   0.021 -1.0683 -1.0226 -0.8579
 3825TIP3   OH232965   5.112   2.174  14.521  0.0638  0.4478  0.5930
 3825TIP3    H132966   5.119   2.147  14.430 -0.7365  0.5586  0.4866
 3825TIP3    H232967   5.042   2.120  14.557  0.2702  0.5111  1.1016
 3826TIP3   OH232968   2.433   0.930   1.827 -0.2099  0.3005  0.3016
 3826TIP3    H132969   2.521   0.934   1.788 -0.7847 -0.6119 -1.1905
 3826TIP3    H232970   2.441   0.868   1.899  0.2053 -0.3905 -0.3287
 3827TIP3   OH232971   3.227   1.309   5.356  0.8222  0.0661  0.3449
 3827TIP3    H132972   3.307   1.273   5.319  0.0001 -2.7491  1.1052
 3827TIP3    H232973   3.157   1.267   5.307 -0.2618  1.8089  0.2967
 3828TIP3   OH232974   2.073   3.410   0.895 -0.4307  0.4607  0.3936
 3828TIP3    H132975   2.083   3.401   0.989 -1.5234  1.1041  0.5962
 3828TIP3    H232976   2.055   3.503   0.882 -0.5390  0.3348 -0.4182
 3829TIP3   OH232977   5.066   6.246   4.964 -0.6133  0.0006 -0.1975
 3829TIP3    H132978   5.052   6.341   4.970  0.4598  0.1559  0.1347
 3829TIP3    H232979   5.067   6.227   4.871  0.0787  0.4791 -0.2966
 3830TIP3   OH232980   4.894   3.204   2.221 -0.3448 -0.3851 -0.1044
 3830TIP3    H132981   4.978   3.226   2.262 -0.4368 -0.6695  0.2352
 3830TIP3    H232982   4.878   3.112   2.245  0.4201 -1.1211 -2.1366
 3831TIP3   OH232983   3.192   1.180   5.578 -0.5853  0.4352 -0.6048
 3831TIP3    H132984   3.140   1.224   5.510  0.7690  1.3165 -1.1203
 3831TIP3    H232985   3.192   1.242   5.651 -0.3431  0.3964 -0.5719
 3832TIP3   OH232986   5.919   3.756  15.157  0.4721 -0.2941  0.2772
 3832TIP3    H132987   5.901   3.666  15.129  2.1453 -0.1833 -1.2981
 3832TIP3    H232988   6.012   3.768  15.142  0.2913  1.7086  0.4904
 3833TIP3   OH232989   4.389   1.342  14.162  0.1703 -0.2334 -0.4281
 3833TIP3    H132990   4.384   1.430  14.124 -1.9396  0.4087  1.1873
 3833TIP3    H232991   4.480   1.316  14.149  0.9813  2.3810 -0.5472
 3834TIP3   OH232992   6.578   0.996  12.259 -0.3703 -0.0207  0.5021
 3834TIP3    H132993   6.632   0.984  12.181  0.5454 -0.1532  1.1345
 3834TIP3    H232994   6.635   0.969  12.332 -0.7498  1.2973  1.3287
 3835TIP3   OH232995   2.297   5.153  10.996  1.2248 -0.0410  0.4885
 3835TIP3    H132996   2.204   5.176  10.987  1.2499 -0.2932 -0.5422
 3835TIP3    H232997   2.303   5.108  11.080  0.7282  1.4837  1.3854
 3836TIP3   OH232998   3.728   5.358  16.744 -0.4915  0.6661  0.8288
 3836TIP3    H132999   3.670   5.282  16.738 -0.4347  0.5199  1.9780
 3836TIP3    H233000   3.754   5.362  16.836  3.0441 -0.5447  0.0337
 3837TIP3   OH233001   2.521   6.172  13.768 -0.1846 -0.3506  0.4414
 3837TIP3    H133002   2.504   6.259  13.731 -1.9758 -1.1847 -0.8701
 3837TIP3    H233003   2.439   6.150  13.813  0.2978 -1.2901  0.8650
 3838TIP3   OH233004   1.997   5.149  11.898  0.0627 -0.3136  0.0439
 3838TIP3    H133005   1.942   5.071  11.898 -1.1249  0.4735  1.8846
 3838TIP3    H233006   2.086   5.115  11.910 -0.1944 -1.4822 -1.1421
 3839TIP3   OH233007   2.646   3.139   1.275 -0.4304  0.3472  0.2105
 3839TIP3    H133008   2.717   3.093   1.231 -1.2784  1.3248 -2.3352
 3839TIP3    H233009   2.650   3.228   1.241 -0.6498  1.4470  2.8144
 3840TIP3   OH233010   2.467   0.405   4.939  0.3981  0.2127  0.3654
 3840TIP3    H133011   2.401   0.345   4.905  0.0645 -1.2331  3.3149
 3840TIP3    H233012   2.483   0.466   4.866 -1.1678 -1.8192 -1.8390
 3841TIP3   OH233013   1.308   6.034  12.594  0.0671 -0.0387 -0.1507
 3841TIP3    H133014   1.398   6.004  12.599  0.4305  1.1502  0.6714
 3841TIP3    H233015   1.260   5.959  12.557  1.1380 -1.1667  0.6746
 3842TIP3   OH233016   4.008   2.181   3.614  0.0137  0.3222 -0.9484
 3842TIP3    H133017   3.930   2.185   3.670 -0.8767 -2.9390 -1.6895
 3842TIP3    H233018   3.974   2.193   3.525  0.5446  0.2384 -1.1645
 3843TIP3   OH233019   2.920   1.566  12.799  0.0959 -0.0519  0.0600
 3843TIP3    H133020   3.010   1.534  12.798 -0.3648 -1.4105 -0.9158
 3843TIP3    H233021   2.873   1.501  12.851 -0.5373 -0.0320 -0.4772
 3844TIP3   OH233022   5.243   4.271   6.217 -0.0876 -0.0886 -0.0267
 3844TIP3    H133023   5.263   4.289   6.126 -0.0604 -2.1308 -0.4749
 3844TIP3    H233024   5.149   4.250   6.217 -0.3490  0.9932  0.6239
 3845TIP3   OH233025   3.474   5.076   4.303  0.0806  0.0859 -1.1011
 3845TIP3    H133026   3.470   5.132   4.380 -0.3597 -1.9579  0.4525
 3845TIP3    H233027   3.558   5.097   4.262  0.3941  1.1019  0.0078
 3846TIP3   OH233028   5.056   4.763  16.393 -0.1283  0.7108 -0.3774
 3846TIP3    H133029   5.088   4.849  16.417  4.8243 -0.8961 -0.1205
 3846TIP3    H233030   5.055   4.713  16.475 -0.8890 -0.0642 -0.8296
 3847TIP3   OH233031   4.798   1.241   3.536  0.8074  0.3253  0.0840
 3847TIP3    H133032   4.786   1.303   3.608  0.9144 -0.4702  0.8009
 3847TIP3    H233033   4.712   1.236   3.494  0.4321 -0.0734  0.8764
 3848TIP3   OH233034   1.241   4.607  16.509 -0.5357  0.4816  0.1551
 3848TIP3    H133035   1.161   4.568  16.545 -0.1226 -0.4635  0.0797
 3848TIP3    H233036   1.232   4.701  16.527 -0.5939  0.1225  2.2504
 3849TIP3   OH233037   1.641   2.166  16.999 -0.1095 -0.6360  0.0650
 3849TIP3    H133038   1.697   2.094  16.973  0.2960 -0.8002  1.3215
 3849TIP3    H233039   1.616   2.146  17.090 -2.0822 -0.5008 -0.3873
 3850TIP3   OH233040   3.652   4.730   1.649  0.2075 -0.3660  0.5299
 3850TIP3    H133041   3.677   4.821   1.629 -1.1992 -0.0357  0.1511
 3850TIP3    H233042   3.658   4.685   1.565  0.5216 -0.5409  0.6434
 3851TIP3   OH233043   2.515   0.192   3.106 -0.0866 -0.1606 -0.3132
 3851TIP3    H133044   2.516   0.174   3.200 -1.7656 -2.2896 -0.6435
 3851TIP3    H233045   2.510   0.106   3.064 -0.2886  0.7738 -2.3476
 3852TIP3   OH233046   2.386   3.375   3.177  0.2740  0.3303 -0.5034
 3852TIP3    H133047   2.478   3.371   3.150  0.6871 -0.2435  0.8863
 3852TIP3    H233048   2.371   3.467   3.197  0.5560  0.4175 -0.6847
 3853TIP3   OH233049   5.878   3.856  12.071  0.1194  0.4565 -0.1000
 3853TIP3    H133050   5.929   3.778  12.045 -1.2942 -0.4594 -0.2379
 3853TIP3    H233051   5.916   3.927  12.019  0.2047 -0.5089 -1.4301
 3854TIP3   OH233052   0.904   3.226  13.379  0.0354 -0.1975 -0.2951
 3854TIP3    H133053   0.998   3.208  13.385 -0.0887 -0.4597  1.0246
 3854TIP3    H233054   0.862   3.142  13.395 -0.4411  0.1399  0.2684
 3855TIP3   OH233055   5.454   3.599   5.572  0.4127  0.1734  0.1583
 3855TIP3    H133056   5.363   3.568   5.575 -0.3016  2.2190  1.6038
 3855TIP3    H233057   5.457   3.660   5.499  1.0380 -0.9549 -0.7914
 3856TIP3   OH233058   2.189   0.233   2.866 -0.2987 -0.1466  0.0563
 3856TIP3    H133059   2.268   0.234   2.812  0.4442 -0.9814  1.0817
 3856TIP3    H233060   2.148   0.319   2.852  0.9379  0.3996 -0.2772
 3857TIP3   OH233061   1.930   3.350  12.691  0.4159 -0.2735 -0.2534
 3857TIP3    H133062   1.952   3.439  12.663  0.7261 -0.3537 -0.2735
 3857TIP3    H233063   1.844   3.333  12.652 -0.0218  0.3204  0.4200
 3858TIP3   OH233064   6.509   3.598   3.683 -0.1099  0.9087  0.8968
 3858TIP3    H133065   6.600   3.573   3.702  0.1643  0.2130 -1.1608
 3858TIP3    H233066   6.459   3.518   3.698 -0.3892  1.2341  1.8083
 3859TIP3   OH233067   2.483   4.354   5.831  0.3703 -0.7513  0.2221
 3859TIP3    H133068   2.476   4.266   5.868  0.7428  0.3361  3.1492
 3859TIP3    H233069   2.531   4.404   5.897 -2.9708  2.5597  0.4782
 3860TIP3   OH233070   6.818   5.681  12.694 -0.1169  0.5767  0.8361
 3860TIP3    H133071   6.817   5.626  12.773  0.8902 -0.5155  0.1164
 3860TIP3    H233072   6.790   5.623  12.624 -1.1508  1.5840  0.3940
 3861TIP3   OH233073   3.117   4.272   3.334  0.0274 -0.0198 -0.5097
 3861TIP3    H133074   3.146   4.250   3.423  0.3373 -1.2323 -0.8849
 3861TIP3    H233075   3.049   4.207   3.315 -3.0653  2.7023  0.3445
 3862TIP3   OH233076   3.948   5.129  10.782 -0.4798 -0.0369 -0.0312
 3862TIP3    H133077   3.989   5.047  10.754 -1.1577 -1.4527  2.7688
 3862TIP3    H233078   4.021   5.181  10.816 -0.3595 -0.6888  0.7620
 3863TIP3   OH233079   4.730   2.639  16.023 -0.3520 -0.6027  0.5655
 3863TIP3    H133080   4.780   2.712  16.060 -0.3027 -0.4937  0.2822
 3863TIP3    H233081   4.792   2.595  15.965 -0.7736 -0.0921 -0.2772
 3864TIP3   OH233082   5.866   6.047   5.944  0.5075  0.1622 -0.1072
 3864TIP3    H133083   5.877   6.082   6.033 -1.5298  0.3244  0.1245
 3864TIP3    H233084   5.855   6.125   5.889 -1.0039  0.0005 -0.0565
 3865TIP3   OH233085   4.812   4.054   4.398  0.0536  0.4098  0.0503
 3865TIP3    H133086   4.719   4.041   4.415  0.1948 -1.5078 -0.3867
 3865TIP3    H233087   4.851   3.968   4.409  1.6320  0.9804 -0.6887
 3866TIP3   OH233088   2.572   2.215   2.010 -0.0234 -0.1478 -0.2028
 3866TIP3    H133089   2.592   2.156   1.937 -1.8329 -1.7859  0.5519
 3866TIP3    H233090   2.629   2.184   2.081  1.3508  1.1129 -0.6957
 3867TIP3   OH233091   4.495   4.873   0.760  0.1290 -0.1751 -0.4711
 3867TIP3    H133092   4.555   4.799   0.756  0.4787  0.0802 -0.0299
 3867TIP3    H233093   4.484   4.890   0.854 -0.7286 -0.2945 -0.5387
 3868TIP3   OH233094   0.265   5.443   2.963 -0.4608 -0.2491 -0.1151
 3868TIP3    H133095   0.251   5.354   2.995 -0.1690 -0.1118  0.4105
 3868TIP3    H233096   0.183   5.467   2.920 -1.6259  0.2602  2.2025
 3869TIP3   OH233097   4.226   0.988   4.569  0.1616  0.7021  0.4744
 3869TIP3    H133098   4.316   0.968   4.541  0.3170 -0.8738  1.9350
 3869TIP3    H233099   4.235   1.010   4.661 -1.0551 -0.5774  0.9336
 3870TIP3   OH233100   2.721   1.926   0.672 -0.0413  0.6096  0.2043
 3870TIP3    H133101   2.716   1.831   0.672 -0.7016  0.6314 -0.9946
 3870TIP3    H233102   2.806   1.946   0.632  0.4819  0.5340  1.2352
 3871TIP3   OH233103   0.315   2.104   2.981  0.3076 -0.6199  0.5054
 3871TIP3    H133104   0.395   2.134   2.937 -0.5978  0.6064 -0.3437
 3871TIP3    H233105   0.319   2.008   2.974 -0.0002 -0.5267 -2.7196
 3872TIP3   OH233106   5.289   1.382  16.046 -0.3438 -0.2415 -0.0883
 3872TIP3    H133107   5.354   1.447  16.020  1.1921 -1.0186  1.6200
 3872TIP3    H233108   5.336   1.299  16.041 -1.4588 -0.9138  0.4282
 3873TIP3   OH233109   4.407   6.800   4.886 -0.4778  0.6599  0.2776
 3873TIP3    H133110   4.380   6.720   4.839  0.5848 -0.0302  0.7964
 3873TIP3    H233111   4.331   6.822   4.940 -0.1365 -1.1411  1.5902
 3874TIP3   OH233112   3.341   4.122   5.503 -0.1792 -0.0415  0.0199
 3874TIP3    H133113   3.433   4.148   5.498 -0.4993  0.9832 -1.0042
 3874TIP3    H233114   3.340   4.032   5.470  0.5050 -0.1903  0.3869
 3875TIP3   OH233115   6.131   5.787   3.386  0.3389  0.8334  0.5493
 3875TIP3    H133116   6.149   5.713   3.444 -0.6231 -0.0237 -0.2231
 3875TIP3    H233117   6.074   5.752   3.318 -0.0493  2.2566  0.0950
 3876TIP3   OH233118   3.886   6.393   0.608  0.3732  0.2287  0.4815
 3876TIP3    H133119   3.809   6.353   0.649  0.8952 -1.5785 -0.2064
 3876TIP3    H233120   3.896   6.477   0.653 -0.8154 -0.3728  1.9652
 3877TIP3   OH233121   1.994   5.146  16.132  0.5952  0.3093  0.2182
 3877TIP3    H133122   2.000   5.234  16.094 -0.4770  0.5394  0.5469
 3877TIP3    H233123   1.909   5.145  16.177 -0.2798 -1.4936 -1.3182
 3878TIP3   OH233124   5.181   5.697  13.099 -0.2405  0.4328  0.0771
 3878TIP3    H133125   5.194   5.732  13.188 -1.2292 -1.9003  1.2162
 3878TIP3    H233126   5.206   5.605  13.106  0.0101  0.2773 -2.2076
 3879TIP3   OH233127   0.970   6.021   2.270 -0.9698  0.3782 -0.0498
 3879TIP3    H133128   0.901   6.074   2.232  1.0163  3.4116  0.2372
 3879TIP3    H233129   1.049   6.044   2.221  0.0192 -2.6194 -0.0967
 3880TIP3   OH233130   6.194   6.822   5.207  0.2465 -0.2047  0.1664
 3880TIP3    H133131   6.263   6.777   5.158 -0.0858  0.3424 -0.8369
 3880TIP3    H233132   6.151   6.877   5.142 -0.2106  0.5543  1.0925
 3881TIP3   OH233133   3.023   4.063   5.285  0.4212  0.1991  0.1049
 3881TIP3    H133134   3.044   4.057   5.378 -1.5718  0.5638  0.6392
 3881TIP3    H233135   3.107   4.063   5.241  1.3930 -0.6978  1.8591
 3882TIP3   OH233136   5.362   2.004  11.179  0.2354  0.0965 -0.1428
 3882TIP3    H133137   5.333   1.914  11.190 -0.6533  0.2410 -1.1598
 3882TIP3    H233138   5.413   2.004  11.098 -1.0325  0.7773 -0.9706
 3883TIP3   OH233139   0.045   4.693   1.281  0.4635  0.1307  0.3638
 3883TIP3    H133140   0.128   4.706   1.236  2.1168  0.5057  3.2788
 3883TIP3    H233141   0.010   4.611   1.244 -0.2916  2.1866 -4.1453
 3884TIP3   OH233142   1.918   2.956  12.729 -0.1538  0.5709 -0.1496
 3884TIP3    H133143   1.973   3.000  12.794 -0.8331  0.4761  0.5002
 3884TIP3    H233144   1.935   3.003  12.647  2.3408 -0.6275 -0.4172
 3885TIP3   OH233145   5.913   5.495   6.445  0.2005  0.3299 -0.2678
 3885TIP3    H133146   5.951   5.581   6.464  3.2692 -1.1640  1.1498
 3885TIP3    H233147   5.984   5.433   6.462 -2.3700 -2.6808  0.5163
 3886TIP3   OH233148   5.888   5.305   3.865 -0.3324 -0.0348 -0.4426
 3886TIP3    H133149   5.906   5.285   3.956 -1.3239  1.4904  0.1349
 3886TIP3    H233150   5.919   5.229   3.816  0.1944 -0.8779  1.1575
 3887TIP3   OH233151   4.831   0.202   2.348  0.3160  0.2466 -0.6806
 3887TIP3    H133152   4.758   0.166   2.398 -0.6829  1.8193 -0.9311
 3887TIP3    H233153   4.818   0.170   2.259 -0.5126  1.1169 -0.8831
 3888TIP3   OH233154   2.371   2.018   4.935  0.5001  0.5614 -0.0527
 3888TIP3    H133155   2.337   2.043   5.021  0.6013  0.8719 -0.1017
 3888TIP3    H233156   2.295   1.981   4.890 -0.0161  2.0446 -0.4737
 3889TIP3   OH233157   3.781   2.689  12.085  0.5235 -0.0498 -0.3101
 3889TIP3    H133158   3.711   2.750  12.109  1.2051  0.3792  0.6841
 3889TIP3    H233159   3.840   2.741  12.030  1.9365  0.7519  1.8136
 3890TIP3   OH233160   5.090   5.267  10.912  0.0271  0.3258 -0.4115
 3890TIP3    H133161   5.068   5.178  10.886 -1.4282  0.2211  0.9802
 3890TIP3    H233162   5.171   5.287  10.866  0.6836 -1.9202 -0.3203
 3891TIP3   OH233163   5.634   3.799  14.019  0.0320  0.0148  0.9487
 3891TIP3    H133164   5.566   3.733  14.003 -1.7165  2.0315 -0.7115
 3891TIP3    H233165   5.667   3.780  14.107 -0.5924 -2.8172  0.6515
 3892TIP3   OH233166   0.707   6.652   1.743 -0.3855  0.3416 -0.5119
 3892TIP3    H133167   0.716   6.658   1.838 -3.6454  0.3532 -0.1027
 3892TIP3    H233168   0.695   6.742   1.714 -1.8491  0.1327 -0.5940
 3893TIP3   OH233169   3.826   1.132   3.979  0.4821  0.0928 -0.0602
 3893TIP3    H133170   3.837   1.075   3.903 -0.8717 -0.7650  0.3463
 3893TIP3    H233171   3.911   1.130   4.023  0.7688 -0.7719 -0.6204
 3894TIP3   OH233172   1.192   3.570   3.142  0.0838  0.3651  0.1350
 3894TIP3    H133173   1.283   3.599   3.142  0.3063 -0.1486 -1.9224
 3894TIP3    H233174   1.146   3.637   3.091 -0.7476  0.7286  1.3312
 3895TIP3   OH233175   5.784   3.694  16.319  0.1891 -0.0992  0.1246
 3895TIP3    H133176   5.721   3.757  16.355 -0.4348 -0.7630  0.2212
 3895TIP3    H233177   5.811   3.642  16.395 -2.1168 -2.3650 -0.4887
 3896TIP3   OH233178   2.477   6.705   2.632 -0.0768 -0.4217 -0.0386
 3896TIP3    H133179   2.421   6.757   2.690  0.2284 -0.9370  0.7385
 3896TIP3    H233180   2.566   6.734   2.654  0.1248 -1.5882  0.7300
 3897TIP3   OH233181   1.080   1.031   0.183  0.0352  0.4676 -0.5150
 3897TIP3    H133182   1.017   0.960   0.183 -0.1712  0.5803 -2.9587
 3897TIP3    H233183   1.147   1.004   0.246 -1.3198 -0.6565  0.4947
 3898TIP3   OH233184   3.999   0.368   5.792  0.2567 -0.0646  0.3377
 3898TIP3    H133185   3.957   0.371   5.879  1.0762  1.4833  0.7206
 3898TIP3    H233186   4.085   0.330   5.809  0.4474  0.3147  0.2291
 3899TIP3   OH233187   2.821   1.134   4.410  0.3713  0.0253 -0.1748
 3899TIP3    H133188   2.880   1.195   4.456 -1.5340  1.2005  0.8586
 3899TIP3    H233189   2.793   1.182   4.332 -0.9937  0.4478  0.5461
 3900TIP3   OH233190   2.619   0.291   5.131 -0.3148  0.6182  0.2643
 3900TIP3    H133191   2.631   0.276   5.037 -1.1364 -1.0269  0.3741
 3900TIP3    H233192   2.564   0.368   5.137 -0.7496  0.3903 -0.6396
 3901TIP3   OH233193   5.027   6.826   2.882 -0.0512 -0.3073  0.3315
 3901TIP3    H133194   4.954   6.854   2.937  0.1755 -0.2362  0.5942
 3901TIP3    H233195   5.101   6.816   2.942 -0.1371 -1.5368  0.2663
 3902TIP3   OH233196   1.215   6.646  16.550 -0.5474  0.0585 -0.0277
 3902TIP3    H133197   1.173   6.712  16.496  2.2144  1.9024 -0.1575
 3902TIP3    H233198   1.271   6.597  16.490  0.3671  0.2266  0.6531
 3903TIP3   OH233199   6.568   5.276   4.411 -0.1607  0.3776  0.0992
 3903TIP3    H133200   6.642   5.316   4.456 -1.1200 -0.3945  2.4928
 3903TIP3    H233201   6.608   5.209   4.356  0.9888  0.5836  0.6367
 3904TIP3   OH233202   5.832   4.734   1.318 -0.6754  0.1132  0.2541
 3904TIP3    H133203   5.829   4.646   1.282 -0.7387 -0.3223  1.2722
 3904TIP3    H233204   5.790   4.726   1.404 -0.1057  0.9932  0.6300
 3905TIP3   OH233205   3.991   3.114  12.401 -0.3999 -0.1719  0.3259
 3905TIP3    H133206   3.905   3.149  12.378 -0.0250  2.1480  2.0759
 3905TIP3    H233207   4.049   3.147  12.332 -0.6686 -0.6007 -0.1133
 3906TIP3   OH233208   3.574   6.573  15.570  0.1717  0.5574  0.2466
 3906TIP3    H133209   3.570   6.570  15.475  0.1816  2.1065  0.1756
 3906TIP3    H233210   3.497   6.525  15.600  0.6348 -0.6906 -0.5171
 3907TIP3   OH233211   1.258   3.726   4.014  0.1147 -0.2951 -0.2691
 3907TIP3    H133212   1.253   3.751   3.922  1.9399  0.9045 -0.0912
 3907TIP3    H233213   1.347   3.695   4.026 -0.1727 -0.6934  1.0515
 3908TIP3   OH233214   0.125   1.612   1.645  0.2995 -0.1474 -0.1968
 3908TIP3    H133215   0.214   1.637   1.666 -0.0065  1.0774 -0.3235
 3908TIP3    H233216   0.092   1.682   1.589 -0.7548 -0.5576 -0.1118
 3909TIP3   OH233217   2.190   3.132  11.418 -0.2070 -0.3344  0.3496
 3909TIP3    H133218   2.103   3.158  11.391  0.2695  1.4210  0.4142
 3909TIP3    H233219   2.200   3.167  11.507  0.4354 -0.8353  0.4910
 3910TIP3   OH233220   1.352   6.712  16.792 -0.0138 -0.4872 -0.2868
 3910TIP3    H133221   1.294   6.677  16.725  0.1676 -0.5390 -0.4163
 3910TIP3    H233222   1.391   6.790  16.751  0.5497 -0.8557 -0.4559
 3911TIP3   OH233223   5.345   6.156  16.858 -0.2960  0.0522  0.1846
 3911TIP3    H133224   5.286   6.164  16.933 -0.3971 -0.1045  0.1232
 3911TIP3    H233225   5.289   6.168  16.782 -0.0879  0.8096  0.1483
 3912TIP3   OH233226   2.835   5.809  11.357 -0.6381 -0.5256  0.6444
 3912TIP3    H133227   2.928   5.820  11.375 -0.9077  0.8627  1.2728
 3912TIP3    H233228   2.830   5.728  11.306  1.2686  0.8650 -2.0300
 3913TIP3   OH233229   5.905   0.142  13.802  0.7025 -0.3414  0.0982
 3913TIP3    H133230   5.903   0.221  13.856 -1.2543  0.6135 -1.2126
 3913TIP3    H233231   5.874   0.172  13.716  0.9336 -2.3499 -0.7339
 3914TIP3   OH233232   1.392   6.011   2.603 -0.0655 -0.2388 -0.0666
 3914TIP3    H133233   1.301   6.011   2.573 -0.7851 -4.0093  1.5795
 3914TIP3    H233234   1.390   6.063   2.684 -0.1855  1.5651 -1.1697
 3915TIP3   OH233235   3.269   4.965   0.388  0.2187 -0.5345 -0.1932
 3915TIP3    H133236   3.259   4.957   0.483 -0.0216 -0.4305 -0.2086
 3915TIP3    H233237   3.279   4.875   0.357  0.3551 -0.5638 -0.0626
 3916TIP3   OH233238   5.105   2.506   5.720 -0.1407 -0.5601 -0.9015
 3916TIP3    H133239   5.157   2.577   5.685 -0.3484  0.5326  0.8769
 3916TIP3    H233240   5.018   2.544   5.736 -0.0733 -0.9754  0.6944
 3917TIP3   OH233241   0.051   3.732  17.191  0.0086 -0.3890  0.2762
 3917TIP3    H133242   0.008   3.646  17.199 -0.0566 -0.6297 -2.0404
 3917TIP3    H233243   0.001   3.789  17.249 -2.0245 -1.1975 -0.5895
 3918TIP3   OH233244   4.296   0.873  14.587 -0.4231 -0.9009  0.1289
 3918TIP3    H133245   4.354   0.897  14.515 -1.5933  1.8643 -0.0196
 3918TIP3    H233246   4.274   0.781  14.571 -0.1499 -0.5616 -2.6991
 3919TIP3   OH233247   6.327   1.668   3.668 -0.0749  0.4619 -0.1660
 3919TIP3    H133248   6.303   1.758   3.647 -1.1307 -0.2980 -2.6309
 3919TIP3    H233249   6.418   1.673   3.697  0.1065  2.2375 -0.9240
 3920TIP3   OH233250   0.399   3.538   4.625 -0.2782 -0.0793  0.5691
 3920TIP3    H133251   0.469   3.488   4.668 -0.8865 -1.0357  0.4739
 3920TIP3    H233252   0.322   3.522   4.680 -0.8802 -0.6743 -0.4219
 3921TIP3   OH233253   5.979   3.068   4.356  0.3351  0.1810 -0.3805
 3921TIP3    H133254   5.908   3.071   4.291 -1.3222  0.3533  1.3617
 3921TIP3    H233255   5.961   2.989   4.407  2.3223 -0.6257 -0.8158
 3922TIP3   OH233256   1.147   4.301  16.113  0.1991  0.1203 -0.1535
 3922TIP3    H133257   1.229   4.352  16.110  0.3076 -0.1133 -1.9714
 3922TIP3    H233258   1.148   4.261  16.200  1.2856  1.3063  0.4214
 3923TIP3   OH233259   0.018   4.923  11.501  0.8768  0.1356 -0.1025
 3923TIP3    H133260  -0.018   5.004  11.466  0.5807  0.8094  1.6246
 3923TIP3    H233261   0.106   4.947  11.531  0.5864 -0.0188  0.9204
 3924TIP3   OH233262   1.007   4.105   1.709  0.2130 -0.9762  0.4709
 3924TIP3    H133263   1.037   4.184   1.663  0.9912 -1.2909  0.4248
 3924TIP3    H233264   0.946   4.064   1.648  0.6598 -0.9934  0.0330
 3925TIP3   OH233265   6.494   4.153   0.692  0.3453 -0.3368 -0.3253
 3925TIP3    H133266   6.410   4.146   0.646 -0.6037  1.7447  0.9463
 3925TIP3    H233267   6.553   4.192   0.627 -0.4836  0.8611 -0.4021
 3926TIP3   OH233268   3.008   2.964  14.985 -0.3135  0.7223 -0.4372
 3926TIP3    H133269   3.032   2.934  15.073  0.5900  2.4553 -0.0514
 3926TIP3    H233270   3.084   2.941  14.931 -0.1785  1.1034 -0.4131
 3927TIP3   OH233271   4.792   1.079  11.368 -0.3446 -0.0440  0.6431
 3927TIP3    H133272   4.830   1.106  11.284 -0.7530  0.2588  0.5514
 3927TIP3    H233273   4.801   0.984  11.368 -1.0493 -0.1245 -0.1025
 3928TIP3   OH233274   3.060   4.339  11.465 -0.2825 -0.4704  0.2757
 3928TIP3    H133275   3.015   4.366  11.385 -0.3970  0.5721  0.6823
 3928TIP3    H233276   3.153   4.346  11.444 -0.2798  1.4353  0.7241
 3929TIP3   OH233277   5.718   3.835   5.764  0.3453  0.2679  0.2344
 3929TIP3    H133278   5.655   3.889   5.716  0.3224  0.8561  0.9052
 3929TIP3    H233279   5.675   3.817   5.848  0.9325  0.4077  0.5712
 3930TIP3   OH233280   3.815   1.465   2.032 -0.3699 -0.0970  0.0606
 3930TIP3    H133281   3.828   1.371   2.022  0.1461  0.0243 -0.4535
 3930TIP3    H233282   3.806   1.498   1.943 -1.9520  0.1612  0.2855
 3931TIP3   OH233283   0.778   6.246  13.299  0.4216 -0.5351 -0.1760
 3931TIP3    H133284   0.822   6.268  13.217  1.0172  1.2744  0.5676
 3931TIP3    H233285   0.695   6.295  13.295  1.0521  0.6871  0.8313
 3932TIP3   OH233286   0.687   1.095  11.764 -0.0976  0.2816 -0.3610
 3932TIP3    H133287   0.693   1.176  11.816 -0.0193  0.2978 -0.3953
 3932TIP3    H233288   0.688   1.125  11.673 -0.2790  0.2564 -0.3729
 3933TIP3   OH233289   2.038   4.425  16.772  0.0397  0.1749 -0.2679
 3933TIP3    H133290   1.964   4.451  16.827  1.1603  0.3883  1.2060
 3933TIP3    H233291   2.101   4.496  16.782  1.9910 -1.6639  1.5610
 3934TIP3   OH233292   2.344   0.079  15.833 -0.1648 -0.6530 -0.1959
 3934TIP3    H133293   2.314   0.165  15.804  1.5972 -0.6846 -2.4067
 3934TIP3    H233294   2.356   0.029  15.753  2.1459 -1.7873  0.7458
 3935TIP3   OH233295   1.165   0.158  14.176 -0.0035 -0.2101  0.1845
 3935TIP3    H133296   1.252   0.127  14.152  0.1954 -0.1277  0.7845
 3935TIP3    H233297   1.147   0.117  14.261 -0.3974  0.0453  0.2267
 3936TIP3   OH233298   2.162   4.895  11.143  0.0114  0.0196 -0.1539
 3936TIP3    H133299   2.215   4.855  11.074  1.2903  1.5225 -0.1015
 3936TIP3    H233300   2.136   4.822  11.199 -2.1084 -1.4614 -2.8037
 3937TIP3   OH233301   1.216   0.218   2.078  0.4643  0.3908 -1.1331
 3937TIP3    H133302   1.203   0.126   2.103 -0.5101  0.8248  0.0995
 3937TIP3    H233303   1.276   0.253   2.144 -0.4055  1.0162 -0.6487
 3938TIP3   OH233304   0.070   0.344  11.433 -0.0256  0.5566 -0.0389
 3938TIP3    H133305   0.125   0.290  11.376 -0.2235 -0.6210  0.8712
 3938TIP3    H233306   0.002   0.379  11.374  0.0152 -0.3095 -0.6164
 3939TIP3   OH233307   2.271   3.389  14.900 -0.3482  0.5824 -0.3926
 3939TIP3    H133308   2.194   3.437  14.869 -1.8355 -1.2230  0.3138
 3939TIP3    H233309   2.292   3.430  14.984  0.1003  1.7033 -1.0228
 3940TIP3   OH233310   5.914   2.158  16.103 -0.0833 -0.2033 -0.1320
 3940TIP3    H133311   5.926   2.248  16.133  0.0020 -0.1176 -0.4183
 3940TIP3    H233312   5.844   2.163  16.038  0.1892 -0.2820 -0.4346
 3941TIP3   OH233313   3.063   4.423  15.250 -0.2228 -0.0009 -0.5776
 3941TIP3    H133314   3.152   4.395  15.228 -0.5420  0.0511 -2.0796
 3941TIP3    H233315   3.036   4.477  15.175 -1.2541  0.5842  0.1884
 3942TIP3   OH233316   1.276   5.235  13.261 -0.2380 -0.5113  0.0092
 3942TIP3    H133317   1.362   5.276  13.264  0.0246 -0.9614 -1.0001
 3942TIP3    H233318   1.230   5.270  13.338  1.3410 -1.4078  1.4300
 3943TIP3   OH233319   2.588   5.613  12.993  0.5442  0.2424 -1.0816
 3943TIP3    H133320   2.566   5.579  12.906 -0.6507  3.2420 -2.0524
 3943TIP3    H233321   2.503   5.627  13.035  1.1077 -1.0533  0.6132
 3944TIP3   OH233322   4.699   0.372  16.415  0.0612 -0.0558 -0.3801
 3944TIP3    H133323   4.718   0.278  16.420 -0.5961 -0.2051 -0.5593
 3944TIP3    H233324   4.775   0.410  16.371  0.1551 -0.5665 -0.6659
 3945TIP3   OH233325   3.538   5.397   4.005  0.0703  0.6447  0.0233
 3945TIP3    H133326   3.612   5.440   4.048 -0.3093  1.3790 -0.0535
 3945TIP3    H233327   3.464   5.455   4.021 -0.5474 -0.1920  0.2939
 3946TIP3   OH233328   3.652   3.104   5.613 -0.0639  0.5425 -0.6028
 3946TIP3    H133329   3.677   3.151   5.534 -1.5685  1.2021 -0.7189
 3946TIP3    H233330   3.686   3.157   5.685  0.6056  0.3646 -0.7820
 3947TIP3   OH233331   5.572   3.510  14.988 -0.8980  0.3254  0.3383
 3947TIP3    H133332   5.574   3.605  14.974  0.2685  0.4110  0.9741
 3947TIP3    H233333   5.606   3.473  14.907 -0.1903  0.5197  0.5376
 3948TIP3   OH233334   4.130   6.746  15.074  1.0461 -0.2046 -0.2221
 3948TIP3    H133335   4.167   6.677  15.019  0.2740 -0.9464  0.1869
 3948TIP3    H233336   4.170   6.732  15.160  1.1251  0.0501 -0.2165
 3949TIP3   OH233337   0.367   1.934  13.295 -0.0213 -0.2622  0.6647
 3949TIP3    H133338   0.367   1.854  13.243 -1.6315 -0.4133  0.8555
 3949TIP3    H233339   0.356   2.004  13.231 -2.9179 -0.5006  0.7583
 3950TIP3   OH233340   6.008   2.558   2.096 -0.0040  0.0410 -0.1771
 3950TIP3    H133341   6.030   2.484   2.154  1.5712  0.7944  0.2507
 3950TIP3    H233342   5.986   2.517   2.013 -0.4261 -0.9766  0.4103
 3951TIP3   OH233343   5.627   2.146   2.725 -0.0560 -0.2634 -0.1939
 3951TIP3    H133344   5.581   2.200   2.660  1.3673 -0.4282 -1.3974
 3951TIP3    H233345   5.690   2.205   2.765  0.9009 -0.7915 -0.8870
 3952TIP3   OH233346   5.270   1.426   2.336 -0.0962 -1.0101 -0.4201
 3952TIP3    H133347   5.261   1.515   2.301 -0.6197 -0.1053  1.8258
 3952TIP3    H233348   5.315   1.438   2.420 -0.5251 -2.8194  0.1121
 3953TIP3   OH233349   2.208   6.673  16.722  0.2347  0.0512 -0.3295
 3953TIP3    H133350   2.199   6.601  16.785  0.8594 -1.5575 -1.9876
 3953TIP3    H233351   2.142   6.654  16.655  0.0822  1.3149 -0.5553
 3954TIP3   OH233352   2.388   1.149   0.193  0.4405  0.3862 -0.2072
 3954TIP3    H133353   2.414   1.241   0.184  2.8153 -0.1005  0.9444
 3954TIP3    H233354   2.330   1.148   0.270 -1.6114  1.2161 -1.6685
 3955TIP3   OH233355   5.684   3.611   2.548 -0.1554 -0.0157 -0.3214
 3955TIP3    H133356   5.613   3.673   2.535 -0.3740  0.0351  1.0559
 3955TIP3    H233357   5.757   3.648   2.497 -0.7682  0.4949 -0.8538
 3956TIP3   OH233358   0.170   5.164   2.950  0.0527  0.3190  0.2173
 3956TIP3    H133359   0.110   5.112   3.003 -0.7299  0.1175 -0.8360
 3956TIP3    H233360   0.232   5.101   2.913 -0.5517  0.1944 -0.6056
 3957TIP3   OH233361   1.105   2.315   1.764 -0.0967 -0.4376 -0.5245
 3957TIP3    H133362   1.058   2.324   1.847  0.4784  1.6174 -0.3615
 3957TIP3    H233363   1.056   2.249   1.715 -0.7393 -1.3307  1.2398
 3958TIP3   OH233364   3.793   1.419   3.966 -0.1793  0.0058 -0.2903
 3958TIP3    H133365   3.837   1.336   3.949 -2.3538 -1.7035  1.7716
 3958TIP3    H233366   3.717   1.418   3.908 -0.3739  0.4463 -0.0468
 3959TIP3   OH233367   1.237   4.139   0.411 -0.3706  0.4962 -0.0568
 3959TIP3    H133368   1.208   4.160   0.500  2.5905 -2.5279  1.8682
 3959TIP3    H233369   1.283   4.217   0.382  0.4171  0.8682  1.9947
 3960TIP3   OH233370   5.355   5.227  11.231  0.2849  0.0816 -0.1306
 3960TIP3    H133371   5.446   5.250  11.215  0.9730 -1.5302  1.2161
 3960TIP3    H233372   5.342   5.144  11.185 -0.0154 -0.5364  1.0515
 3961TIP3   OH233373   1.663   3.365  16.234  0.2593 -0.1575  0.3649
 3961TIP3    H133374   1.751   3.356  16.197 -0.5557 -0.9554 -1.5263
 3961TIP3    H233375   1.644   3.458  16.228 -0.0633 -0.3144 -1.9237
 3962TIP3   OH233376   3.052   2.711  14.775 -0.1063  0.2109 -0.3039
 3962TIP3    H133377   3.112   2.785  14.765 -2.5686  2.3207 -0.4718
 3962TIP3    H233378   2.980   2.730  14.715 -2.0460 -1.0357  1.5080
 3963TIP3   OH233379   3.488   6.330   3.809  0.2045 -0.0697  0.3220
 3963TIP3    H133380   3.463   6.335   3.901  1.5022  0.6678  0.6613
 3963TIP3    H233381   3.571   6.282   3.809  0.3666  0.1910 -0.4276
 3964TIP3   OH233382   5.930   4.362   4.703 -0.0722  0.1764  0.0659
 3964TIP3    H133383   5.895   4.280   4.668 -3.1478  2.5568 -3.1566
 3964TIP3    H233384   5.856   4.404   4.746  0.4755  2.6190 -1.1857
 3965TIP3   OH233385   4.329   0.495   1.557 -0.2653 -0.0646 -0.1897
 3965TIP3    H133386   4.333   0.405   1.591 -1.6357 -0.5968 -1.3461
 3965TIP3    H233387   4.388   0.544   1.614 -2.0188 -0.9901  2.6532
 3966TIP3   OH233388   6.804   5.932  13.833 -0.2013  0.3577 -0.2162
 3966TIP3    H133389   6.803   6.016  13.787  1.2656 -0.0155 -1.0044
 3966TIP3    H233390   6.750   5.875  13.779  0.4897  0.2579 -0.8167
 3967TIP3   OH233391   0.644   2.680   2.336 -0.2161 -0.0532 -0.1382
 3967TIP3    H133392   0.612   2.720   2.417  0.6350  1.0098 -0.3160
 3967TIP3    H233393   0.710   2.617   2.365  0.6651  0.8892 -0.0253
 3968TIP3   OH233394   0.355   0.891  10.837 -0.5551 -0.1391  0.5720
 3968TIP3    H133395   0.270   0.933  10.850 -0.1560  1.3734 -1.3075
 3968TIP3    H233396   0.379   0.912  10.746  1.9472 -0.3139  1.1179
 3969TIP3   OH233397   2.270   4.402   0.958  0.2158  0.0260  0.4265
 3969TIP3    H133398   2.295   4.474   0.901 -0.7575 -1.5307 -2.1497
 3969TIP3    H233399   2.343   4.393   1.019  1.1924  1.9582 -0.3714
 3970TIP3   OH233400   6.235   6.412   4.415  0.1427  0.4126 -0.1863
 3970TIP3    H133401   6.288   6.442   4.488 -0.5999  2.0068 -0.2535
 3970TIP3    H233402   6.150   6.456   4.427 -0.9211 -1.4492 -0.4947
 3971TIP3   OH233403   0.711   1.618  16.014  0.6465  0.0429  0.1189
 3971TIP3    H133404   0.769   1.675  15.964  1.6485 -0.6650  0.4389
 3971TIP3    H233405   0.733   1.636  16.106 -2.0465  2.2597  0.4462
 3972TIP3   OH233406   2.528   4.677   5.384  0.2340 -0.0897 -0.2580
 3972TIP3    H133407   2.612   4.631   5.385  0.7433  0.8325  0.2079
 3972TIP3    H233408   2.481   4.643   5.460  0.1470 -0.6580 -0.5588
 3973TIP3   OH233409   4.040   1.853  11.069  0.0218 -0.2504 -0.2582
 3973TIP3    H133410   3.993   1.789  11.015 -1.5424 -0.6258  1.4545
 3973TIP3    H233411   4.081   1.912  11.006 -0.5339 -1.4995 -1.8569
 3974TIP3   OH233412   6.022   4.793   0.820  0.2989  0.7136 -0.1908
 3974TIP3    H133413   6.108   4.795   0.778  0.7738 -1.4579  0.5558
 3974TIP3    H233414   6.029   4.724   0.885 -2.4770 -0.5998 -1.1404
 3975TIP3   OH233415   1.155   3.509  13.553 -0.1465 -0.4419 -0.2961
 3975TIP3    H133416   1.086   3.551  13.604  0.1960  0.5763 -0.6477
 3975TIP3    H233417   1.228   3.500  13.614  0.1679  0.5202 -0.5257
 3976TIP3   OH233418   6.491   6.595   3.268  0.0206 -0.1686 -0.1083
 3976TIP3    H133419   6.413   6.632   3.309 -1.5281 -1.4958 -1.6931
 3976TIP3    H233420   6.470   6.503   3.256  1.4302 -0.3498 -1.5214
 3977TIP3   OH233421   1.945   4.887   5.813 -0.1890  0.1433 -0.2420
 3977TIP3    H133422   1.976   4.957   5.872 -0.9652  1.1069 -0.9541
 3977TIP3    H233423   2.019   4.870   5.755  0.2174 -0.0697  0.3321
 3978TIP3   OH233424   6.430   3.954  15.061 -0.0126 -0.1391  0.5872
 3978TIP3    H133425   6.394   4.016  15.124  0.4881 -0.1053  0.8406
 3978TIP3    H233426   6.512   3.924  15.100  2.4561  2.8693 -1.7413
 3979TIP3   OH233427   2.327   0.577  13.146  0.2442  0.2136 -0.3016
 3979TIP3    H133428   2.255   0.576  13.209  0.7879  1.9045  0.4079
 3979TIP3    H233429   2.379   0.500  13.168 -0.3012  0.0442  0.4371
 3980TIP3   OH233430   6.607   0.840  12.683  0.3158 -0.0106  0.4328
 3980TIP3    H133431   6.540   0.899  12.650 -1.5557 -0.2100  3.4831
 3980TIP3    H233432   6.677   0.897  12.714 -0.1616  0.4546  0.6685
 3981TIP3   OH233433   3.937   5.943   1.296  0.5286 -0.3939  0.8204
 3981TIP3    H133434   3.959   5.850   1.300  1.5958 -0.1487  1.0421
 3981TIP3    H233435   3.936   5.971   1.388  0.6852 -0.0847  0.7290
 3982TIP3   OH233436   4.747   1.747   0.109  0.0133  0.3880 -0.4334
 3982TIP3    H133437   4.812   1.704   0.165  0.2000  0.7416 -0.3721
 3982TIP3    H233438   4.784   1.739   0.021 -0.2506 -0.1144 -0.5011
 3983TIP3   OH233439   6.117   2.100   0.423  0.4129  0.1199 -0.5858
 3983TIP3    H133440   6.058   2.049   0.479  0.1784 -2.0058 -2.5916
 3983TIP3    H233441   6.059   2.155   0.371  0.0430 -1.9619 -2.5497
 3984TIP3   OH233442   4.628   4.525  12.767 -0.1623  0.9668 -0.4326
 3984TIP3    H133443   4.534   4.514  12.754 -0.3364  1.9732 -0.1871
 3984TIP3    H233444   4.654   4.588  12.700  0.3912  0.4946 -0.6662
 3985TIP3   OH233445   5.551   0.352  10.513 -0.2391 -1.2777 -0.0527
 3985TIP3    H133446   5.469   0.341  10.560  0.4609 -0.6463  1.3768
 3985TIP3    H233447   5.619   0.329  10.577  0.7263 -0.9706 -0.9291
 3986TIP3   OH233448   5.368   6.773   3.859  0.3884 -0.6269 -0.4152
 3986TIP3    H133449   5.309   6.815   3.796  1.3475 -0.6519 -1.3595
 3986TIP3    H233450   5.358   6.679   3.842 -2.6067 -1.0100  2.4474
 3987TIP3   OH233451   3.482   0.523   3.967  0.6023 -0.2404 -0.4850
 3987TIP3    H133452   3.475   0.430   3.947  1.1230 -0.4313  0.1736
 3987TIP3    H233453   3.557   0.529   4.027  0.3461  0.5529 -0.2320
 3988TIP3   OH233454   3.231   0.994  14.660  0.4405 -0.3451 -0.5391
 3988TIP3    H133455   3.162   0.933  14.685  0.2401  0.1853  0.2493
 3988TIP3    H233456   3.193   1.081  14.677  1.7101 -0.0508  1.0993
 3989TIP3   OH233457   1.667   3.180   4.977  0.2173  0.0298  0.4020
 3989TIP3    H133458   1.647   3.264   4.936  1.4295  0.7810  1.3006
 3989TIP3    H233459   1.761   3.170   4.967  0.5165  0.0821  2.6806
 3990TIP3   OH233460   1.097   5.126   1.408 -0.4400  0.4334 -0.6675
 3990TIP3    H133461   1.129   5.080   1.486  0.0472  2.4500  0.3876
 3990TIP3    H233462   1.007   5.097   1.398 -0.7734  0.7310  1.1567
 3991TIP3   OH233463   6.534   6.046  14.835  0.4921 -0.0019  0.5109
 3991TIP3    H133464   6.543   5.974  14.773  0.5666 -0.1357  0.6751
 3991TIP3    H233465   6.534   6.004  14.921  0.8329  0.2188  0.6234
 3992TIP3   OH233466   1.028   5.362  11.118 -0.0279 -0.0398  0.1390
 3992TIP3    H133467   1.038   5.379  11.024 -1.5522  1.5528  0.2002
 3992TIP3    H233468   0.933   5.358  11.131  0.0708  1.6723  1.8624
 3993TIP3   OH233469   1.710   2.537   1.351 -0.2175  0.2379 -0.1132
 3993TIP3    H133470   1.702   2.443   1.335  0.8647 -0.1791  1.5181
 3993TIP3    H233471   1.804   2.553   1.355 -0.3850  1.3899 -0.3345
 3994TIP3   OH233472   1.422   3.501   2.753  0.2064  0.4183 -0.0558
 3994TIP3    H133473   1.477   3.461   2.819  0.9614  0.4879 -0.6391
 3994TIP3    H233474   1.340   3.521   2.800 -0.3483 -2.0579  0.1770
 3995TIP3   OH233475   2.738   0.930  13.950 -0.0888 -0.3042  0.5313
 3995TIP3    H133476   2.659   0.903  13.904  0.0834  1.1700 -0.7178
 3995TIP3    H233477   2.803   0.863  13.929  0.0583  0.4633 -1.6764
 3996TIP3   OH233478   6.178   3.781  15.124 -0.7454  0.4598  0.6118
 3996TIP3    H133479   6.229   3.705  15.154 -1.4377 -1.5982 -2.9265
 3996TIP3    H233480   6.243   3.838  15.083 -0.7688 -0.5525 -0.9033
 3997TIP3   OH233481   4.575   0.645  16.217 -0.3817  0.3174  1.0418
 3997TIP3    H133482   4.527   0.727  16.209  0.1660  0.5175 -0.4235
 3997TIP3    H233483   4.659   0.671  16.256 -0.0783  0.5193  0.2703
 3998TIP3   OH233484   3.696   4.773  14.016 -0.1167 -0.0450  0.8439
 3998TIP3    H133485   3.620   4.828  14.034 -2.1381 -1.6942 -1.7806
 3998TIP3    H233486   3.767   4.834  13.999 -1.6584  1.6804  0.2959
 3999TIP3   OH233487   4.047   3.355  11.347  0.1126 -0.1406  0.1898
 3999TIP3    H133488   4.062   3.303  11.268 -0.9640 -1.5819  0.8729
 3999TIP3    H233489   3.951   3.363  11.351  0.2573  2.4011 -0.1649
 4000TIP3   OH233490   2.277   1.857  12.831  0.3581 -0.0881  0.1276
 4000TIP3    H133491   2.271   1.801  12.908  1.3147 -1.9387 -1.0645
 4000TIP3    H233492   2.306   1.941  12.864 -0.3334 -0.5110  1.9026
 4001TIP3   OH233493   5.670   1.526  15.407  0.1629 -0.2451 -0.1396
 4001TIP3    H133494   5.764   1.519  15.424  0.3644  1.4163 -0.4032
 4001TIP3    H233495   5.664   1.558  15.317 -0.6553 -0.4055 -0.1467
 4002TIP3   OH233496   5.561   3.252   3.354 -0.5467 -0.0077 -0.3704
 4002TIP3    H133497   5.546   3.331   3.405  3.1195  0.3926  0.4238
 4002TIP3    H233498   5.605   3.283   3.275 -1.0880 -1.1019 -1.1278
 4003TIP3   OH233499   1.947   3.275   5.666  0.4746  0.0250  0.0057
 4003TIP3    H133500   1.932   3.323   5.747  0.1627  0.3256 -0.2239
 4003TIP3    H233501   1.998   3.198   5.692  0.8242  0.3852  0.4088
 4004TIP3   OH233502   2.161   6.130   2.182 -0.8832 -0.4710  0.5322
 4004TIP3    H133503   2.068   6.143   2.196 -0.9304  0.4059 -0.4208
 4004TIP3    H233504   2.199   6.125   2.270 -1.5738  1.1905  0.9602
 4005TIP3   OH233505   4.812   6.238   1.948 -0.3892 -0.1105 -0.1622
 4005TIP3    H133506   4.721   6.233   1.977 -0.1642  0.9346  0.8026
 4005TIP3    H233507   4.863   6.200   2.020  0.0182  0.4631 -0.1342
 4006TIP3   OH233508   2.329   2.029   4.235  0.0038  0.0269  0.2112
 4006TIP3    H133509   2.409   1.986   4.265  1.9181  2.4214 -1.0161
 4006TIP3    H233510   2.301   1.979   4.158  1.4600  0.2031 -0.4682
 4007TIP3   OH233511   3.038   1.339   2.058  0.1908  0.1819 -0.1136
 4007TIP3    H133512   3.058   1.270   2.122 -1.8291  1.0393  1.5507
 4007TIP3    H233513   3.010   1.291   1.980  0.7464 -0.8927  0.3209
 4008TIP3   OH233514   5.314   4.019   3.749  0.5455 -0.0996  0.4008
 4008TIP3    H133515   5.371   4.006   3.825  2.0809 -1.6771 -0.9155
 4008TIP3    H233516   5.244   3.954   3.760  0.0933  0.4849  1.0342
 4009TIP3   OH233517   0.052   4.499   6.360 -0.1013  0.2808  0.6502
 4009TIP3    H133518  -0.023   4.456   6.401 -1.2731  0.6169 -1.0527
 4009TIP3    H233519   0.119   4.431   6.356 -1.7161 -1.3230 -1.4783
 4010TIP3   OH233520   2.297   3.125   1.676 -0.5155 -0.0607 -0.6454
 4010TIP3    H133521   2.305   3.193   1.743 -1.7032  1.7005 -2.1865
 4010TIP3    H233522   2.348   3.158   1.602 -1.6384 -0.5125 -1.6505
 4011TIP3   OH233523   2.505   2.256   6.500 -0.5377 -0.5654  0.2958
 4011TIP3    H133524   2.506   2.177   6.553  1.6026 -0.4071  0.5679
 4011TIP3    H233525   2.417   2.292   6.512 -1.1634 -2.2749  1.0860
 4012TIP3   OH233526   5.876   2.771  13.894 -0.4290  0.4382  0.0145
 4012TIP3    H133527   5.888   2.709  13.966 -1.0773 -0.2950 -0.4894
 4012TIP3    H233528   5.782   2.785  13.890 -0.3690  0.7030 -0.5003
 4013TIP3   OH233529   0.847   2.538  11.742 -0.1522 -0.9041  0.8358
 4013TIP3    H133530   0.889   2.620  11.768 -2.2067  0.8553 -0.9471
 4013TIP3    H233531   0.915   2.491  11.693  1.0698 -0.2922  1.8806
 4014TIP3   OH233532   6.674   2.570   3.034  0.0918  0.5130  0.7538
 4014TIP3    H133533   6.593   2.612   3.005  1.0540  0.8850 -1.6962
 4014TIP3    H233534   6.702   2.519   2.958  2.6668  1.2467  1.1115
 4015TIP3   OH233535   4.993   4.070   1.410  0.2556 -0.1061 -0.1551
 4015TIP3    H133536   4.948   4.010   1.469  0.4230 -0.4101 -0.3308
 4015TIP3    H233537   4.969   4.157   1.441  1.1766 -0.2360  1.0243
 4016TIP3   OH233538   1.966   1.233  11.181  0.4307 -0.5141  0.7824
 4016TIP3    H133539   1.991   1.152  11.137 -1.9040  0.3047 -2.4008
 4016TIP3    H233540   1.916   1.204  11.257  1.8883 -2.0143  1.2293
 4017TIP3   OH233541   2.920   4.558  15.531 -0.0873  0.0621  0.1024
 4017TIP3    H133542   2.870   4.575  15.452 -0.7238  1.3379  0.7532
 4017TIP3    H233543   2.859   4.572  15.603 -0.0031 -2.7211  0.8447
 4018TIP3   OH233544   5.365   2.471  17.162  0.4622  0.5668 -0.0044
 4018TIP3    H133545   5.324   2.384  17.161 -2.0278  1.6837 -0.6428
 4018TIP3    H233546   5.443   2.459  17.216  0.1947 -2.0586 -0.0569
 4019TIP3   OH233547   4.532   5.271   2.765 -0.4883 -0.3529  0.1721
 4019TIP3    H133548   4.607   5.238   2.814 -0.3413 -0.1123  0.1096
 4019TIP3    H233549   4.555   5.361   2.743 -0.7067 -0.3448 -0.0297
 4020TIP3   OH233550   1.730   2.617  12.332 -0.7487  0.1842  0.3246
 4020TIP3    H133551   1.711   2.653  12.418  1.4517 -0.7499  1.2612
 4020TIP3    H233552   1.656   2.559  12.314 -0.7308 -0.4357  2.0736
 4021TIP3   OH233553   4.061   6.060  16.593  0.7784  0.1302  0.1079
 4021TIP3    H133554   3.968   6.042  16.584  0.9815 -1.7618  1.2451
 4021TIP3    H233555   4.068   6.155  16.591 -1.3216  0.3589  1.2501
 4022TIP3   OH233556   0.913   0.171  14.084 -0.3642 -0.1834 -0.3665
 4022TIP3    H133557   1.001   0.175  14.121 -0.0351 -0.0574 -1.1449
 4022TIP3    H233558   0.860   0.227  14.142 -0.5367 -2.2472  1.6271
 4023TIP3   OH233559   1.471   5.785   0.785  0.2354 -0.2497  0.0930
 4023TIP3    H133560   1.448   5.771   0.693  0.9809  1.1395 -0.3356
 4023TIP3    H233561   1.387   5.796   0.830 -0.1820 -1.9260 -0.2200
 4024TIP3   OH233562   5.897   3.579  16.589  0.5171  0.0374  0.6656
 4024TIP3    H133563   5.877   3.661  16.634  1.7524 -0.0360  1.3885
 4024TIP3    H233564   5.977   3.547  16.630 -0.3118 -1.9188  0.9262
 4025TIP3   OH233565   5.040   1.210   4.150 -0.3098 -0.3820 -0.0980
 4025TIP3    H133566   5.098   1.163   4.090 -2.1396 -0.5309 -1.8576
 4025TIP3    H233567   4.958   1.160   4.149 -0.8053  0.3256  1.5750
 4026TIP3   OH233568   2.876   1.497  16.551 -0.0345 -0.4886  0.2673
 4026TIP3    H133569   2.908   1.410  16.574 -0.8285 -0.8100  0.1901
 4026TIP3    H233570   2.781   1.488  16.548 -0.0755  0.0943 -0.9119
 4027TIP3   OH233571   0.077   3.470  16.205  0.3392  0.0511 -0.6562
 4027TIP3    H133572   0.114   3.440  16.288 -1.0108  1.0745  0.3888
 4027TIP3    H233573   0.106   3.406  16.140 -1.9048 -3.2517  1.2859
 4028TIP3   OH233574   3.779   4.276  16.768 -0.3104 -0.2852  0.2382
 4028TIP3    H133575   3.838   4.206  16.794  0.5398 -0.4765 -1.9857
 4028TIP3    H233576   3.746   4.249  16.683 -0.7063  1.5620 -0.2422
 4029TIP3   OH233577   2.882   4.521   1.398 -0.3172 -0.2680 -0.5452
 4029TIP3    H133578   2.962   4.538   1.447 -0.4479 -2.7018  0.6434
 4029TIP3    H233579   2.817   4.500   1.465 -1.3721 -0.5134 -1.6144
 4030TIP3   OH233580   5.679   0.420  17.082  0.0523  0.5350 -0.2129
 4030TIP3    H133581   5.616   0.348  17.075 -0.0025  0.5768 -0.1596
 4030TIP3    H233582   5.648   0.485  17.018 -0.5633  1.0037  0.5324
 4031TIP3   OH233583   3.593   1.492   1.575  0.4545  0.0370  0.1044
 4031TIP3    H133584   3.533   1.423   1.602 -0.0151  0.9151  1.3760
 4031TIP3    H233585   3.580   1.562   1.639  1.5320  0.9684 -0.6563
 4032TIP3   OH233586   3.764   0.550   2.411  0.1561  0.3559 -0.6278
 4032TIP3    H133587   3.764   0.540   2.506 -1.7033 -1.0625 -0.7129
 4032TIP3    H233588   3.724   0.636   2.396  1.1571  0.9208 -0.1317
 4033TIP3   OH233589   1.263   4.255  15.332 -0.1990  0.3066  0.1506
 4033TIP3    H133590   1.241   4.304  15.410 -0.6226  0.2742  0.0529
 4033TIP3    H233591   1.187   4.198  15.317  0.3685 -0.5413  0.3910
 4034TIP3   OH233592   0.968   1.551   1.673  0.4013 -0.4855 -1.0621
 4034TIP3    H133593   1.060   1.563   1.698  0.4350  0.4148 -1.5869
 4034TIP3    H233594   0.970   1.479   1.609  0.8800  0.2128 -1.8542
 4035TIP3   OH233595   1.793   6.740  10.948  0.4851 -0.0349 -0.4351
 4035TIP3    H133596   1.851   6.815  10.950 -0.4117  0.6830 -0.4955
 4035TIP3    H233597   1.731   6.760  10.877 -0.3696 -0.3535  0.2023
 4036TIP3   OH233598   6.456   5.850   0.452 -0.0890 -0.3539 -0.4510
 4036TIP3    H133599   6.545   5.884   0.465  0.2186 -1.3123  0.0054
 4036TIP3    H233600   6.401   5.909   0.505  0.3561 -0.1769 -0.1745
 4037TIP3   OH233601   2.628   2.994   6.352  0.1434  0.6114  0.6288
 4037TIP3    H133602   2.616   3.079   6.309  3.7330  1.4825  1.0206
 4037TIP3    H233603   2.621   3.013   6.446 -0.4024  0.1872  0.6778
 4038TIP3   OH233604   5.513   6.385   0.925 -0.0040 -0.2479  0.1528
 4038TIP3    H133605   5.565   6.465   0.928  0.0829 -0.2106 -1.4014
 4038TIP3    H233606   5.450   6.395   0.996  2.2299 -0.4242  2.2683
 4039TIP3   OH233607   3.711   5.579  12.662 -0.6486  0.8371  0.5386
 4039TIP3    H133608   3.676   5.493  12.686  1.3134 -0.1059  0.1497
 4039TIP3    H233609   3.751   5.566  12.577  0.2202  1.9791  0.7543
 4040TIP3   OH233610   6.755   1.041   1.721  0.2328 -0.3062 -0.6471
 4040TIP3    H133611   6.685   1.005   1.776 -0.7505  0.0395 -1.6480
 4040TIP3    H233612   6.774   1.127   1.760 -0.7070  0.0912 -1.0430
 4041TIP3   OH233613   3.255   3.661   0.661 -0.4353 -0.1203  0.1769
 4041TIP3    H133614   3.315   3.701   0.724 -0.0052 -2.0455  1.0318
 4041TIP3    H233615   3.307   3.651   0.582 -0.3737  0.4377  0.1395
 4042TIP3   OH233616   0.867   6.060   3.558  0.4315  0.6953  0.1372
 4042TIP3    H133617   0.789   6.022   3.601  0.1597  2.8807  1.7116
 4042TIP3    H233618   0.833   6.100   3.479 -0.1148  1.7956  0.9090
 4043TIP3   OH233619   0.994   1.499  15.762  0.4665  0.4916 -0.1583
 4043TIP3    H133620   0.966   1.572  15.707  0.6684  0.1898 -0.6735
 4043TIP3    H233621   1.030   1.435  15.700  0.2174 -0.0760  0.2720
 4044TIP3   OH233622   5.854   5.552   5.536  0.1559 -0.1182  0.6162
 4044TIP3    H133623   5.808   5.543   5.619 -1.3010  2.1788  0.1621
 4044TIP3    H233624   5.911   5.628   5.548  0.9664 -0.6093 -0.0485
 4045TIP3   OH233625   6.075   6.328   5.243  0.3925  0.4372 -0.0557
 4045TIP3    H133626   6.132   6.343   5.168  1.3059  1.9943  0.8976
 4045TIP3    H233627   6.091   6.402   5.301 -1.6017  0.2094  0.8873
 4046TIP3   OH233628   6.531   4.934   2.267 -0.4601  0.0919  0.0364
 4046TIP3    H133629   6.440   4.912   2.286  0.0119 -0.2041  2.2624
 4046TIP3    H233630   6.577   4.851   2.273 -0.0181  0.2256 -1.1603
 4047TIP3   OH233631   0.308   4.788  15.379  0.3912 -0.1768 -0.2326
 4047TIP3    H133632   0.226   4.833  15.355 -0.0554  0.3280  2.0232
 4047TIP3    H233633   0.373   4.822  15.317 -0.6464  1.0824 -0.6873
 4048TIP3   OH233634   5.553   5.721   2.291 -0.3260 -0.2644 -0.1079
 4048TIP3    H133635   5.544   5.687   2.380  0.6870 -0.6817 -0.1594
 4048TIP3    H233636   5.607   5.799   2.300 -0.4119 -0.1760 -0.3332
 4049TIP3   OH233637   0.304   6.153   5.168  0.2427  0.2773  0.2245
 4049TIP3    H133638   0.330   6.066   5.137  1.0261  0.5303  0.1525
 4049TIP3    H233639   0.209   6.151   5.166  0.2588 -0.3177 -0.5173
 4050TIP3   OH233640   2.284   5.173  15.440  0.7066 -0.5009 -0.0181
 4050TIP3    H133641   2.224   5.218  15.382 -0.0400 -4.2155 -2.4954
 4050TIP3    H233642   2.347   5.240  15.468 -1.0047  2.2276 -2.2384
 4051TIP3   OH233643   5.400   3.177   1.956 -0.0099  0.0395  0.0161
 4051TIP3    H133644   5.313   3.137   1.956  0.1681 -0.3895 -1.2575
 4051TIP3    H233645   5.386   3.263   1.995 -1.3045  0.5571 -1.4500
 4052TIP3   OH233646   1.144   5.514   2.051  0.4411  0.2611 -0.5106
 4052TIP3    H133647   1.163   5.542   1.961  1.5457  0.6362 -0.1798
 4052TIP3    H233648   1.185   5.581   2.105  2.0253 -1.2937  0.3075
 4053TIP3   OH233649   4.294   0.474  12.719  0.0047 -0.4163 -0.3223
 4053TIP3    H133650   4.225   0.507  12.777 -1.5052 -0.2542 -2.1079
 4053TIP3    H233651   4.330   0.399  12.765 -1.7978 -0.8841  0.4289
 4054TIP3   OH233652   6.134   0.556   1.056 -0.2017  0.0269  0.4841
 4054TIP3    H133653   6.195   0.544   0.983 -1.8597  1.5111 -1.2417
 4054TIP3    H233654   6.067   0.489   1.042 -1.2061  1.1244 -0.1717
 4055TIP3   OH233655   2.721   6.414  13.318 -0.5297  0.3855 -0.0124
 4055TIP3    H133656   2.650   6.470  13.287 -0.9312  0.8669  1.6794
 4055TIP3    H233657   2.716   6.419  13.413 -0.3326 -2.2286  0.2195
 4056TIP3   OH233658   1.796   6.330   5.566  0.4292 -0.3621 -0.3916
 4056TIP3    H133659   1.832   6.243   5.584 -0.0520 -0.2812  1.0732
 4056TIP3    H233660   1.863   6.391   5.597 -0.9238 -0.2083  2.5345
 4057TIP3   OH233661   1.436   2.608   2.878  0.0512  0.2272  0.0122
 4057TIP3    H133662   1.470   2.575   2.794 -0.0587 -0.3098  0.1741
 4057TIP3    H233663   1.505   2.666   2.910  0.4815 -0.2509 -0.0344
 4058TIP3   OH233664   2.828   2.615   6.019  0.1938 -0.1726  0.0888
 4058TIP3    H133665   2.749   2.638   5.970  0.0661 -1.4929 -0.3616
 4058TIP3    H233666   2.853   2.696   6.063 -1.4769  0.2544  0.3463
 4059TIP3   OH233667   3.311   1.518   0.730  0.6793  0.1041 -0.3435
 4059TIP3    H133668   3.346   1.441   0.687  1.3120  0.6821 -0.9016
 4059TIP3    H233669   3.386   1.553   0.780  1.5525  2.3665 -2.9476
 4060TIP3   OH233670   6.793   3.753   3.877 -0.0802  0.2390 -0.1094
 4060TIP3    H133671   6.789   3.682   3.813 -0.7631  0.7901 -0.6890
 4060TIP3    H233672   6.859   3.724   3.940 -1.1282 -1.4120  0.2857
 4061TIP3   OH233673   6.058   4.141  13.577  0.6795  0.0040  0.6053
 4061TIP3    H133674   6.079   4.215  13.521 -0.5385 -0.2303 -0.1855
 4061TIP3    H233675   6.039   4.069  13.517 -1.2297 -0.0925  1.2590
 4062TIP3   OH233676   0.559   1.766  12.243 -0.3458 -0.2189  0.1291
 4062TIP3    H133677   0.508   1.691  12.213 -0.3788  0.4195 -1.5439
 4062TIP3    H233678   0.494   1.824  12.284 -0.5872 -0.3827 -0.0180
 4063TIP3   OH233679   4.921   3.286  14.737 -0.2860  0.3022 -0.4187
 4063TIP3    H133680   4.900   3.340  14.661 -1.3158  2.2455  1.1243
 4063TIP3    H233681   5.013   3.303  14.755  0.1954 -0.8201 -1.6588
 4064TIP3   OH233682   3.878   3.738  12.535  0.3679 -1.0427 -0.3415
 4064TIP3    H133683   3.799   3.770  12.578  0.2319 -2.1273  0.2431
 4064TIP3    H233684   3.847   3.704  12.451  0.8009  2.2321 -1.9806
 4065TIP3   OH233685   5.909   1.826  12.770  0.4118 -0.1167  0.0363
 4065TIP3    H133686   5.841   1.760  12.783  1.8874 -1.8064 -0.3543
 4065TIP3    H233687   5.986   1.775  12.744  1.3269  1.8788 -1.3882
 4066TIP3   OH233688   4.998   3.633   0.153 -0.0265  0.0620 -0.4028
 4066TIP3    H133689   4.926   3.614   0.214  0.7372  1.7448  1.1009
 4066TIP3    H233690   5.077   3.608   0.200  0.5255  0.3900 -1.1304
 4067TIP3   OH233691   5.346   2.746   4.331 -0.5738 -0.1078  0.5463
 4067TIP3    H133692   5.317   2.701   4.411  0.4308 -0.9697  0.4483
 4067TIP3    H233693   5.311   2.835   4.340 -1.7361 -0.6027  1.2327
 4068TIP3   OH233694   6.696   0.736   0.307 -0.4594 -0.2014 -0.2768
 4068TIP3    H133695   6.791   0.725   0.319 -0.4501  0.2222  0.0477
 4068TIP3    H233696   6.657   0.687   0.379 -0.4928 -0.4287 -0.4466
 4069TIP3   OH233697   5.335   2.553   0.467 -0.1460  1.0690 -0.1275
 4069TIP3    H133698   5.301   2.464   0.465 -0.6686  1.2287 -2.9084
 4069TIP3    H233699   5.419   2.548   0.421 -0.2515  2.0319 -0.4563
 4070TIP3   OH233700   0.799   1.768  11.092  0.2120  0.8710 -0.1411
 4070TIP3    H133701   0.838   1.713  11.160 -1.8620  0.3850  0.7179
 4070TIP3    H233702   0.705   1.751  11.098 -0.1760  2.0220 -2.0915
 4071TIP3   OH233703   5.834   2.155   1.938  0.6768 -0.1566  0.4654
 4071TIP3    H133704   5.857   2.229   1.882  0.6219 -0.4527  0.0447
 4071TIP3    H233705   5.815   2.084   1.877 -0.9987 -0.0399  0.8008
 4072TIP3   OH233706   4.685   5.934  13.181 -0.0012  0.3836 -0.0524
 4072TIP3    H133707   4.753   5.880  13.141 -0.0270  0.0821  0.2971
 4072TIP3    H233708   4.685   6.015  13.131  0.1611  0.1243 -0.4737
 4073TIP3   OH233709   0.109   3.519   5.211 -0.0099  0.1543 -0.1016
 4073TIP3    H133710   0.113   3.441   5.156  0.4586 -0.0104  0.1545
 4073TIP3    H233711   0.199   3.531   5.241 -0.3332 -0.0352  0.9931
 4074TIP3   OH233712   3.347   1.382  14.912  0.1728  0.0245 -0.4244
 4074TIP3    H133713   3.384   1.456  14.864  0.6884  0.6081  0.8340
 4074TIP3    H233714   3.420   1.323  14.926  0.1695  0.1610  0.1897
 4075TIP3   OH233715   3.946   3.820  12.080 -0.6062  0.1440 -0.0025
 4075TIP3    H133716   3.923   3.862  12.163  0.0019  0.9899 -0.2453
 4075TIP3    H233717   3.892   3.864  12.014  1.0196  1.5591 -0.4551
 4076TIP3   OH233718   4.584   0.624  11.596  0.5102 -0.0488 -0.1829
 4076TIP3    H133719   4.566   0.700  11.541  1.2854  0.2953  0.0334
 4076TIP3    H233720   4.504   0.571  11.591  0.7653 -0.3095 -2.0994
 4077TIP3   OH233721   0.491   6.359   6.676 -0.1438 -0.2283 -0.8326
 4077TIP3    H133722   0.574   6.332   6.717 -0.6277 -1.1127 -0.4086
 4077TIP3    H233723   0.469   6.440   6.720 -0.6260 -1.1316  0.6769
 4078TIP3   OH233724   4.390   5.329  13.456  0.2744 -0.4418  0.1729
 4078TIP3    H133725   4.374   5.390  13.384 -0.3153 -0.7244  0.0592
 4078TIP3    H233726   4.333   5.255  13.437 -0.9620  0.0752  1.6926
 4079TIP3   OH233727   2.352   2.193  14.061  0.0685 -0.1582 -0.1264
 4079TIP3    H133728   2.388   2.108  14.033  0.9395  0.7661 -2.0159
 4079TIP3    H233729   2.428   2.252  14.060 -0.5971  0.7262  0.7819
 4080TIP3   OH233730   4.038   5.811   3.175 -0.2421  0.2008  0.2540
 4080TIP3    H133731   3.981   5.861   3.234  1.0594 -0.5746  2.2816
 4080TIP3    H233732   3.985   5.735   3.149 -1.5562  1.5859 -1.3261
 4081TIP3   OH233733   6.021   1.785   5.758  0.1258 -0.2932 -0.0488
 4081TIP3    H133734   6.025   1.849   5.828 -0.9111 -1.0186  0.7141
 4081TIP3    H233735   6.072   1.710   5.790  0.0209 -0.4542 -0.2525
 4082TIP3   OH233736   4.884   3.588   4.930 -0.4493 -0.1570  0.4667
 4082TIP3    H133737   4.819   3.531   4.970  0.3515 -1.5716 -0.1696
 4082TIP3    H233738   4.887   3.665   4.987 -3.0701  0.2315  0.2023
 4083TIP3   OH233739   6.810   0.041   0.199 -0.0155 -0.2038  0.6587
 4083TIP3    H133740   6.887   0.097   0.187  0.3153 -1.1267 -2.4179
 4083TIP3    H233741   6.846  -0.048   0.202 -0.9501 -0.9179 -3.7082
 4084TIP3   OH233742   1.483   2.628   1.086 -0.7910  0.0144 -0.1574
 4084TIP3    H133743   1.529   2.661   1.164 -1.8896 -1.2252  1.0710
 4084TIP3    H233744   1.417   2.694   1.068 -1.7414 -0.5306  1.1332
 4085TIP3   OH233745   1.562   1.302  15.323 -0.6454  0.5638 -0.0619
 4085TIP3    H133746   1.540   1.291  15.231  2.1956 -3.5082 -0.5512
 4085TIP3    H233747   1.631   1.368  15.324 -1.4041  1.3843 -0.6711
 4086TIP3   OH233748   4.544   3.429   3.726 -0.8662  0.4668 -0.2587
 4086TIP3    H133749   4.533   3.342   3.763  2.2391 -0.0459 -0.2566
 4086TIP3    H233750   4.501   3.488   3.788 -1.5117 -0.8957  0.6322
 4087TIP3   OH233751   3.551   4.772   6.093  0.1308  0.3724  0.4249
 4087TIP3    H133752   3.501   4.851   6.073 -1.5982  0.0020  2.8064
 4087TIP3    H233753   3.488   4.714   6.136  2.0306 -1.1436  1.3402
 4088TIP3   OH233754   5.454   6.471  12.355  0.2650  0.1334 -0.3258
 4088TIP3    H133755   5.490   6.446  12.440 -1.5383  2.0462  1.1104
 4088TIP3    H233756   5.367   6.432  12.354 -0.0242  0.7902 -0.9529
 4089TIP3   OH233757   1.475   3.960  14.843  0.0754  0.2780  0.3985
 4089TIP3    H133758   1.398   4.017  14.836 -0.5467 -0.7035 -1.0300
 4089TIP3    H233759   1.468   3.921  14.930  1.4101  3.5368  2.1804
 4090TIP3   OH233760   6.013   6.692   1.302 -0.5172  0.4666 -0.4536
 4090TIP3    H133761   6.004   6.656   1.390  0.4255 -0.0055 -0.5379
 4090TIP3    H233762   6.105   6.681   1.280 -0.8375  0.0480 -1.7176
 4091TIP3   OH233763   1.414   6.126   2.839 -0.1774  0.4334  0.3869
 4091TIP3    H133764   1.326   6.153   2.865 -0.0642  0.3634  0.8501
 4091TIP3    H233765   1.456   6.099   2.921  0.0764 -0.1040  0.0847
 4092TIP3   OH233766   2.852   2.467  12.008 -0.0102  0.2499  0.1004
 4092TIP3    H133767   2.761   2.484  11.986 -0.2350  0.6856  1.2754
 4092TIP3    H233768   2.877   2.541  12.063 -0.3761 -2.0471  3.6572
 4093TIP3   OH233769   3.661   5.102   3.368 -0.4116  0.7877 -0.5893
 4093TIP3    H133770   3.738   5.049   3.388 -1.1341  0.0787  0.4005
 4093TIP3    H233771   3.665   5.115   3.273 -0.0226 -0.7154 -0.8084
 4094TIP3   OH233772   6.382   6.315  11.194  0.1814 -0.1855 -0.2136
 4094TIP3    H133773   6.415   6.335  11.281  1.3515 -1.9968 -0.1952
 4094TIP3    H233774   6.289   6.337  11.198 -0.4286 -2.6364  2.3614
 4095TIP3   OH233775   1.590   4.603   3.165  0.4200  0.2632 -0.1405
 4095TIP3    H133776   1.636   4.527   3.130  0.1842 -0.6328  1.3909
 4095TIP3    H233777   1.577   4.583   3.258 -1.4503  1.2705 -0.1199
 4096TIP3   OH233778   0.717   1.272  12.909  0.4553  0.2867 -0.0420
 4096TIP3    H133779   0.764   1.218  12.973  0.0645  0.4269  0.3709
 4096TIP3    H233780   0.786   1.319  12.862  1.1312 -2.9111 -2.6770
 4097TIP3   OH233781   1.599   0.039  16.143  0.4225 -0.2525  0.2295
 4097TIP3    H133782   1.507   0.035  16.171  0.2857 -0.3263 -0.2164
 4097TIP3    H233783   1.644   0.088  16.212  0.2031 -0.9257  0.8613
 4098TIP3   OH233784   0.618   2.262   4.319 -0.1284 -0.3586  0.1764
 4098TIP3    H133785   0.706   2.271   4.283 -0.2579 -1.8847 -0.6285
 4098TIP3    H233786   0.563   2.240   4.244 -1.1787  0.4441  0.6901
 4099TIP3   OH233787   1.527   1.928   0.807  0.0739  0.2040 -0.3301
 4099TIP3    H133788   1.576   1.858   0.849 -0.8162 -0.4605 -0.3653
 4099TIP3    H233789   1.592   1.997   0.790  0.6620  0.0223  1.0854
 4100TIP3   OH233790   6.658   0.785  11.684 -0.3480 -0.0686  0.0161
 4100TIP3    H133791   6.615   0.741  11.610 -0.2791 -0.1103  0.0006
 4100TIP3    H233792   6.591   0.843  11.720 -0.0995  0.6478 -0.6578
 4101TIP3   OH233793   5.284   2.703  12.316  0.1540  0.0482 -0.2720
 4101TIP3    H133794   5.195   2.713  12.283 -0.7424  1.2670  2.2244
 4101TIP3    H233795   5.277   2.636  12.384  1.2084 -0.0615 -0.2512
 4102TIP3   OH233796   1.714   3.381   4.817  0.8733 -0.1702  0.4308
 4102TIP3    H133797   1.658   3.459   4.809  0.9613 -0.2716 -1.9959
 4102TIP3    H233798   1.759   3.376   4.733  0.7287 -2.9482  0.4292
 4103TIP3   OH233799   0.093   3.338  15.209  0.7802 -0.2530  0.5671
 4103TIP3    H133800   0.150   3.383  15.146 -0.4506 -0.3262 -0.6272
 4103TIP3    H233801   0.097   3.246  15.183  0.2592 -0.2810  0.5891
 4104TIP3   OH233802   0.771   4.572   4.829 -0.3528 -0.3106 -0.1124
 4104TIP3    H133803   0.721   4.495   4.800 -0.2143 -1.5935  2.7364
 4104TIP3    H233804   0.724   4.646   4.791 -0.2750 -1.7279 -3.3009
 4105TIP3   OH233805   0.780   2.088  15.301 -0.0587  0.2993 -0.0076
 4105TIP3    H133806   0.753   2.072  15.211  0.8898  0.5429 -0.3456
 4105TIP3    H233807   0.742   2.016  15.351 -0.7585  0.2769 -0.5648
 4106TIP3   OH233808   5.638   3.041   0.796  0.1650  0.0815 -0.4986
 4106TIP3    H133809   5.685   2.985   0.734 -0.0454 -2.6327  1.5839
 4106TIP3    H233810   5.550   3.049   0.759  0.1482 -1.1823 -0.7778
 4107TIP3   OH233811   2.165   3.687   1.034 -0.3590  0.3098 -0.3790
 4107TIP3    H133812   2.247   3.710   0.989  0.2038 -1.6332 -0.4285
 4107TIP3    H233813   2.192   3.627   1.104 -1.7743 -0.6066 -0.5853
 4108TIP3   OH233814   3.018   2.783  14.298 -0.7016 -0.2557 -0.3242
 4108TIP3    H133815   3.065   2.784  14.215 -0.4236 -1.5279 -0.1987
 4108TIP3    H233816   2.991   2.874  14.311  0.8950  0.3313 -0.8700
 4109TIP3   OH233817   4.679   2.549  14.625  0.5131 -0.1070  0.4168
 4109TIP3    H133818   4.684   2.628  14.679  2.3285 -0.8134  1.3711
 4109TIP3    H233819   4.637   2.577  14.544  1.2994  1.8892  0.6600
 4110TIP3   OH233820   2.405   3.733   0.010  0.0189 -0.4437  0.3850
 4110TIP3    H133821   2.360   3.816  -0.007 -0.4762 -0.9740 -1.0161
 4110TIP3    H233822   2.437   3.741   0.100 -2.2316  0.2695  1.1946
 4111TIP3   OH233823   3.764   0.263   1.808 -0.2696  0.0888  0.2741
 4111TIP3    H133824   3.721   0.334   1.761  1.7138  1.2058  0.0238
 4111TIP3    H233825   3.851   0.256   1.768  1.6853  1.3178  3.8060
 4112TIP3   OH233826   4.458   0.907   0.141  0.3980  0.0275  0.1644
 4112TIP3    H133827   4.503   0.981   0.101  0.3202 -0.8130 -1.5606
 4112TIP3    H233828   4.365   0.928   0.133  0.3465 -0.5182 -0.9608
 4113TIP3   OH233829   0.239   4.282  15.357 -0.2066  0.0419 -0.3678
 4113TIP3    H133830   0.201   4.342  15.292 -1.6637 -0.3838  0.0633
 4113TIP3    H233831   0.212   4.195  15.329 -0.6611 -0.1668  0.6745
 4114TIP3   OH233832   2.437   5.162   5.759  0.1046 -0.0642  0.2531
 4114TIP3    H133833   2.418   5.072   5.734 -2.2273  0.8489 -1.6256
 4114TIP3    H233834   2.351   5.201   5.775  0.8717  2.3693 -1.0516
 4115TIP3   OH233835   1.339   5.633  14.909 -0.4170 -0.9850 -0.4511
 4115TIP3    H133836   1.312   5.722  14.933 -0.6063 -1.0384 -0.4636
 4115TIP3    H233837   1.434   5.639  14.897 -0.2859 -0.9987  0.4973
 4116TIP3   OH233838   4.058   5.796  14.119  0.0651  0.6066  0.6073
 4116TIP3    H133839   3.985   5.740  14.143  0.4469 -0.4361 -0.5582
 4116TIP3    H233840   4.034   5.883  14.152 -0.2939 -0.3203  2.9219
 4117TIP3   OH233841   4.806   3.358   1.546  0.3519  0.0384 -0.0838
 4117TIP3    H133842   4.792   3.352   1.452 -0.9256  1.9833 -0.0786
 4117TIP3    H233843   4.886   3.409   1.556  1.2105 -1.2548 -0.0749
 4118TIP3   OH233844   1.368   1.938   4.676 -0.5513  0.4709 -0.1070
 4118TIP3    H133845   1.396   1.884   4.603  0.1164 -1.2765  1.3496
 4118TIP3    H233846   1.274   1.923   4.683 -0.3835 -0.4892  0.2359
 4119TIP3   OH233847   2.576   3.058  13.154 -0.4359 -0.1835  0.4093
 4119TIP3    H133848   2.596   2.982  13.209  1.1095  0.4607  0.7612
 4119TIP3    H233849   2.499   3.030  13.104  0.4863 -2.2644  0.0136
 4120TIP3   OH233850   1.133   0.722   2.439 -0.2788  0.0761  0.4340
 4120TIP3    H133851   1.067   0.781   2.404 -1.3741 -0.0945  2.1244
 4120TIP3    H233852   1.183   0.776   2.500 -0.4791 -0.4210  1.0421
 4121TIP3   OH233853   1.299   2.448   6.024 -0.2234  0.7677  0.7215
 4121TIP3    H133854   1.227   2.404   6.070  0.3710 -1.8919 -0.6725
 4121TIP3    H233855   1.374   2.438   6.082 -0.3830  1.0837  0.9802
 4122TIP3   OH233856   3.335   4.514  13.515  0.2746 -0.3453  0.3238
 4122TIP3    H133857   3.334   4.495  13.421  0.3136 -2.4113  0.6962
 4122TIP3    H233858   3.263   4.463  13.551  0.2378  0.4560  1.4395
 4123TIP3   OH233859   0.798   0.814   5.145 -0.4729  0.2762 -0.0843
 4123TIP3    H133860   0.839   0.804   5.059  0.2877  0.2851  0.2714
 4123TIP3    H233861   0.871   0.817   5.206 -0.9388  1.6374  0.4386
 4124TIP3   OH233862   0.680   3.566  16.288  0.3219 -0.2685  0.1032
 4124TIP3    H133863   0.761   3.585  16.241 -1.7065  1.3375 -3.0670
 4124TIP3    H233864   0.654   3.650  16.325  1.1074 -1.2137  3.1340
 4125TIP3   OH233865   2.284   0.788  16.020 -0.5156  0.3008 -0.2203
 4125TIP3    H133866   2.215   0.738  16.064  0.0472  0.5527  1.0003
 4125TIP3    H233867   2.329   0.724  15.965 -0.8330 -0.1840  0.0753
 4126TIP3   OH233868   5.940   5.645  15.987  0.3182 -0.0875  0.0398
 4126TIP3    H133869   5.887   5.622  15.912 -0.0166  0.6326  0.0477
 4126TIP3    H233870   6.023   5.599  15.974 -0.2824 -1.1680  0.0026
 4127TIP3   OH233871   4.806   4.755  12.921 -0.2120  0.2011  0.6916
 4127TIP3    H133872   4.825   4.718  12.835 -0.2229 -0.9720  1.1763
 4127TIP3    H233873   4.724   4.803  12.910  0.2019  0.7248 -0.1341
 4128TIP3   OH233874   4.540   6.530   1.916 -0.3486  0.1875  0.2690
 4128TIP3    H133875   4.582   6.502   1.835 -0.5410 -0.7859  0.5031
 4128TIP3    H233876   4.461   6.477   1.923 -1.7852  2.1402 -0.2744
 4129TIP3   OH233877   3.328   4.684   1.697 -0.2995  1.0630  0.0656
 4129TIP3    H133878   3.417   4.648   1.691 -0.0008  1.8215 -0.0899
 4129TIP3    H233879   3.333   4.768   1.651 -1.4014  0.5388 -1.0793
 4130TIP3   OH233880   3.319   2.329   1.978  0.1249  0.4943 -0.3844
 4130TIP3    H133881   3.341   2.299   2.066 -1.0004 -1.3977 -0.6991
 4130TIP3    H233882   3.397   2.376   1.948  0.5983  1.0058  1.5128
 4131TIP3   OH233883   1.663   6.492  15.230  0.5000 -0.4280  0.5468
 4131TIP3    H133884   1.597   6.521  15.167 -0.0186  2.9797  2.4037
 4131TIP3    H233885   1.613   6.452  15.301  0.4809  0.8985  1.3184
 4132TIP3   OH233886   2.521   4.486   3.270 -0.2388 -0.5510 -0.3506
 4132TIP3    H133887   2.568   4.516   3.348 -0.1852 -1.1652 -0.1428
 4132TIP3    H233888   2.587   4.436   3.220 -0.1055  0.3380 -1.0916
 4133TIP3   OH233889   5.748   5.986   2.570  0.1687  0.6312 -0.1336
 4133TIP3    H133890   5.820   5.935   2.533 -0.0527  0.1581  0.0748
 4133TIP3    H233891   5.729   5.943   2.654 -0.6052  0.5140 -0.3548
 4134TIP3   OH233892   2.071   3.794   6.241  0.0112  0.2927  0.3578
 4134TIP3    H133893   2.141   3.730   6.233  0.4898  0.7965  0.4231
 4134TIP3    H233894   2.117   3.878   6.252 -0.5927  0.5075  1.3454
 4135TIP3   OH233895   2.525   3.772  13.256  0.5505  0.2564 -0.6129
 4135TIP3    H133896   2.439   3.794  13.219  0.1245 -0.2028  0.0757
 4135TIP3    H233897   2.506   3.747  13.347  1.2574 -1.0583 -0.8128
 4136TIP3   OH233898   1.326   3.145   2.926 -0.5650  0.2408  0.0995
 4136TIP3    H133899   1.384   3.092   2.872 -0.0107  1.3688 -0.4372
 4136TIP3    H233900   1.244   3.150   2.876 -0.0093  1.3950 -0.7237
 4137TIP3   OH233901   3.967   2.768  13.246 -0.0642 -0.0477 -0.5017
 4137TIP3    H133902   4.026   2.777  13.171 -0.9296  1.5632 -1.0278
 4137TIP3    H233903   3.893   2.718  13.212  0.1008 -0.3920 -0.3643
 4138TIP3   OH233904   2.205   0.779   2.936  0.0070  0.2159 -0.6104
 4138TIP3    H133905   2.119   0.819   2.950 -0.1860 -0.1839 -0.6355
 4138TIP3    H233906   2.244   0.775   3.023 -0.1023  0.1630 -0.5641
 4139TIP3   OH233907   4.889   4.339  12.856  0.0743 -0.6367 -0.0512
 4139TIP3    H133908   4.961   4.371  12.910 -0.6514 -1.0677  1.2267
 4139TIP3    H233909   4.828   4.413  12.852  0.1580 -0.5835 -0.3360
 4140TIP3   OH233910   3.095   2.477   5.493  0.2399  0.3095 -0.1510
 4140TIP3    H133911   3.157   2.550   5.499 -0.9823  1.6698 -2.4708
 4140TIP3    H233912   3.028   2.496   5.558  0.8184  0.3151  0.4480
 4141TIP3   OH233913   2.041   0.477  11.331 -0.2194  0.4571 -0.2552
 4141TIP3    H133914   2.000   0.402  11.374 -0.2505 -0.3216 -1.5780
 4141TIP3    H233915   1.971   0.542  11.322 -0.0647  0.9065  1.3863
 4142TIP3   OH233916   2.198   4.799  10.629  0.6429  0.6877 -0.0716
 4142TIP3    H133917   2.194   4.705  10.609  2.7040  0.0361  2.0480
 4142TIP3    H233918   2.115   4.818  10.672 -0.2974  0.1776 -1.5519
 4143TIP3   OH233919   5.537   2.588  11.149 -0.0444 -0.6699 -0.0230
 4143TIP3    H133920   5.498   2.528  11.085  1.6369  0.9806 -2.7610
 4143TIP3    H233921   5.622   2.549  11.168 -0.0561 -0.5329  0.3076
 4144TIP3   OH233922   1.819   1.350  13.821 -0.6865 -0.0210 -0.2106
 4144TIP3    H133923   1.886   1.288  13.792 -1.4966 -0.8248 -0.3942
 4144TIP3    H233924   1.848   1.434  13.787 -0.3897 -0.5567 -1.3315
 4145TIP3   OH233925   5.408   2.164  11.442  0.3036  0.5852 -0.2667
 4145TIP3    H133926   5.442   2.249  11.469  0.9403  0.3458 -0.3002
 4145TIP3    H233927   5.357   2.183  11.363  0.0013  1.0072  0.0247
 4146TIP3   OH233928   1.597   4.950   2.865 -0.1998 -0.4780  0.0414
 4146TIP3    H133929   1.594   4.922   2.956 -2.4423  2.0535  0.8858
 4146TIP3    H233930   1.538   5.025   2.861  0.7266  0.2491 -3.2662
 4147TIP3   OH233931   5.044   5.351  16.785 -0.0387  0.1110  0.0705
 4147TIP3    H133932   5.085   5.344  16.699  0.4696  0.3778  0.2872
 4147TIP3    H233933   5.115   5.380  16.843 -0.2324 -0.6264  0.6913
 4148TIP3   OH233934   4.730   2.076   3.834 -0.0285 -0.1779 -0.8240
 4148TIP3    H133935   4.818   2.095   3.801  0.0867 -0.1833 -0.5220
 4148TIP3    H233936   4.735   1.987   3.868 -0.2060 -0.2526 -0.9933
 4149TIP3   OH233937   6.710   0.029  14.052 -0.0849 -0.5849  0.4273
 4149TIP3    H133938   6.672  -0.045  14.005 -0.8356  0.2075 -0.2359
 4149TIP3    H233939   6.789  -0.007  14.093  0.2324 -1.4449 -0.9001
 4150TIP3   OH233940   3.132   3.843  10.609  0.6001 -0.0157 -0.5638
 4150TIP3    H133941   3.108   3.934  10.591  1.5120 -0.1810 -2.9561
 4150TIP3    H233942   3.069   3.791  10.559  0.8901 -0.6627 -0.2744
 4151TIP3   OH233943   5.190   1.531   0.791  0.2222 -0.1942 -0.7371
 4151TIP3    H133944   5.149   1.473   0.856 -0.7783 -0.4887 -1.6025
 4151TIP3    H233945   5.125   1.538   0.722  0.6045  1.4532 -0.9547
 4152TIP3   OH233946   2.946   0.781  13.652 -0.3765 -0.8772 -0.1307
 4152TIP3    H133947   2.993   0.718  13.597 -2.5717 -2.6739 -0.0632
 4152TIP3    H233948   2.997   0.783  13.733  0.9059 -0.8957 -0.8909
 4153TIP3   OH233949   5.525   6.745   1.812 -0.1286 -0.5030 -0.2545
 4153TIP3    H133950   5.498   6.673   1.754 -2.4745  0.2415 -0.2064
 4153TIP3    H233951   5.443   6.778   1.848  1.0590  0.8926  1.3214
 4154TIP3   OH233952   2.063   3.428   4.194 -0.1581  0.1036  0.0967
 4154TIP3    H133953   2.051   3.514   4.234  0.2972  0.1569  0.1223
 4154TIP3    H233954   2.158   3.416   4.190 -0.1310  0.6214 -2.0841
 4155TIP3   OH233955   6.623   5.181  12.763  0.1238  0.0711 -0.0111
 4155TIP3    H133956   6.611   5.193  12.668  1.3624  1.2843 -0.0409
 4155TIP3    H233957   6.560   5.241  12.802  0.5929  0.6314 -0.0963
 4156TIP3   OH233958   6.440   1.222   1.802  0.0436  0.2601 -0.3860
 4156TIP3    H133959   6.347   1.228   1.821 -0.2202 -2.5498 -0.2544
 4156TIP3    H233960   6.456   1.289   1.736 -2.7564 -0.9522 -2.5194
 4157TIP3   OH233961   6.409   2.065  17.031  0.2115 -0.2324  0.8434
 4157TIP3    H133962   6.374   2.051  17.119  0.1547 -1.1342  0.6901
 4157TIP3    H233963   6.365   1.999  16.977 -0.8355  1.2183 -0.1629
 4158TIP3   OH233964   1.316   5.109   0.682  0.0815 -0.4015 -0.0009
 4158TIP3    H133965   1.278   5.152   0.605  2.0472 -0.2951 -0.9715
 4158TIP3    H233966   1.332   5.180   0.743 -3.2591 -0.6760  1.4509
 4159TIP3   OH233967   2.326   2.756   4.800  0.2025 -0.6384 -0.5542
 4159TIP3    H133968   2.307   2.822   4.867 -1.0275 -1.0269 -0.4966
 4159TIP3    H233969   2.409   2.785   4.761  0.8462 -0.3129  0.9959
 4160TIP3   OH233970   4.254   6.757  11.786  0.0487 -0.5391 -0.1098
 4160TIP3    H133971   4.327   6.811  11.818 -0.5791  0.1007  0.2741
 4160TIP3    H233972   4.202   6.739  11.864  0.8472 -2.6981 -0.0141
 4161TIP3   OH233973   2.848   3.967   2.857 -0.3157  0.3286 -0.6803
 4161TIP3    H133974   2.836   4.036   2.923  0.6546 -0.8343  0.7840
 4161TIP3    H233975   2.775   3.979   2.797 -0.3365  2.4446 -0.3139
 4162TIP3   OH233976   5.467   2.285   2.544  0.2690  0.1305 -0.3650
 4162TIP3    H133977   5.470   2.381   2.550  0.0766  0.0903  0.5163
 4162TIP3    H233978   5.471   2.267   2.450  2.0102  0.9517 -0.5009
 4163TIP3   OH233979   3.691   1.073   3.659  0.6589  0.4323  0.2885
 4163TIP3    H133980   3.699   1.019   3.580  0.3735 -0.8671  1.1170
 4163TIP3    H233981   3.682   1.010   3.730 -1.6368  1.5687  1.0982
 4164TIP3   OH233982   4.643   3.330   0.706 -0.4440  0.0036  1.2078
 4164TIP3    H133983   4.672   3.266   0.771 -0.1511 -0.7058  0.4144
 4164TIP3    H233984   4.724   3.357   0.662 -0.2160  2.7810  3.0949
 4165TIP3   OH233985   2.167   3.303   6.033 -0.0186 -0.3790  0.0915
 4165TIP3    H133986   2.202   3.270   6.116  0.4912  1.3184  0.5857
 4165TIP3    H233987   2.225   3.265   5.967  0.8331 -0.1399  0.6767
 4166TIP3   OH233988   1.831   0.199  12.349 -0.2773 -0.9775  0.0090
 4166TIP3    H133989   1.910   0.250  12.329 -1.6280  0.5541 -1.6986
 4166TIP3    H233990   1.786   0.249  12.417  0.6350 -2.3576  1.7045
 4167TIP3   OH233991   6.432   6.090  11.465 -0.5274  0.4003  0.4002
 4167TIP3    H133992   6.431   6.031  11.541 -2.6092 -1.5810 -1.0347
 4167TIP3    H233993   6.377   6.163  11.493  0.9073  1.0454  1.6969
 4168TIP3   OH233994   2.535   1.983  17.106 -0.6540 -0.6138  0.3501
 4168TIP3    H133995   2.526   1.998  17.012 -0.0698 -0.0129  0.3834
 4168TIP3    H233996   2.459   1.930  17.129 -1.5657  0.4088 -0.2008
 4169TIP3   OH233997   1.223   3.458   2.033  0.2153 -0.0567  0.1391
 4169TIP3    H133998   1.140   3.461   1.986 -0.7322  0.7545  1.7721
 4169TIP3    H233999   1.281   3.514   1.982 -0.1224 -0.8684 -1.1894
 4170TIP3   OH234000   1.547   5.591  16.247 -0.0945 -0.2561  0.3742
 4170TIP3    H134001   1.497   5.580  16.327 -1.4459 -1.0476 -0.5458
 4170TIP3    H234002   1.482   5.612  16.180  1.0383  0.7248 -0.4731
 4171TIP3   OH234003   5.283   0.817   3.784  0.3562  0.4573  0.6084
 4171TIP3    H134004   5.361   0.868   3.763  1.0752 -0.6939  0.3791
 4171TIP3    H234005   5.244   0.797   3.699  0.1266  0.5542  0.6907
 4172TIP3   OH234006   3.151   5.966  12.722 -0.9431 -0.0798 -0.2783
 4172TIP3    H134007   3.172   6.059  12.719 -0.8175 -0.0176  1.4356
 4172TIP3    H234008   3.109   5.948  12.638  0.1397  1.2323 -1.1481
 4173TIP3   OH234009   2.467   5.582   0.399 -0.3254  1.3425  0.2253
 4173TIP3    H134010   2.512   5.500   0.379 -1.5606  0.3704  1.3135
 4173TIP3    H234011   2.538   5.646   0.410  0.7429  0.0911  0.8531
 4174TIP3   OH234012   2.532   0.113  14.019  0.4037 -0.3088  0.6305
 4174TIP3    H134013   2.558   0.110  14.111 -0.6264 -0.1141  0.9366
 4174TIP3    H234014   2.530   0.206  13.997 -2.3368 -0.1055  1.3278
 4175TIP3   OH234015   1.440   0.039  11.539  0.0827 -0.0584 -0.1327
 4175TIP3    H134016   1.345   0.056  11.540 -0.0209 -0.6211 -0.0551
 4175TIP3    H234017   1.455  -0.016  11.616  0.5817  0.5774  0.2284
 4176TIP3   OH234018   5.951   6.813  11.323 -0.6532 -0.9778 -0.1416
 4176TIP3    H134019   5.913   6.750  11.384 -0.6959 -0.2565  0.5928
 4176TIP3    H234020   6.044   6.817  11.346 -0.8765  0.1274  0.6451
 4177TIP3   OH234021   0.151   6.439  13.353 -0.3437  0.1272  0.4751
 4177TIP3    H134022   0.247   6.446  13.346 -0.2615  0.2137  1.5051
 4177TIP3    H234023   0.128   6.364  13.298  0.2203  0.5991 -0.4336
 4178TIP3   OH234024   3.819   4.682  13.774  0.2144  0.5044 -0.1831
 4178TIP3    H134025   3.791   4.722  13.856  1.1559  0.5550  0.1272
 4178TIP3    H234026   3.742   4.636  13.741 -0.4051  1.1883  0.3022
 4179TIP3   OH234027   0.624   1.856   1.620 -0.7368 -0.7005  0.2253
 4179TIP3    H134028   0.719   1.846   1.619 -0.7536 -1.0870  1.3241
 4179TIP3    H234029   0.610   1.937   1.669 -1.0101 -1.4756  1.4793
 4180TIP3   OH234030   2.225   2.373  11.388 -0.7003  0.7202  0.3386
 4180TIP3    H134031   2.177   2.350  11.467 -0.7964  0.3676  0.1804
 4180TIP3    H234032   2.245   2.466  11.398 -1.3133  0.8416  0.4651
 4181TIP3   OH234033   6.097   2.286  15.091 -0.3581  0.2043 -0.1767
 4181TIP3    H134034   6.064   2.197  15.077 -0.6145  0.2234  0.2735
 4181TIP3    H234035   6.153   2.279  15.168 -0.7764  0.5249  0.1603
 4182TIP3   OH234036   4.269   6.112   2.068  0.5535 -0.3401  0.0389
 4182TIP3    H134037   4.316   6.078   2.144 -0.3326 -0.5623  0.4983
 4182TIP3    H234038   4.275   6.043   2.003 -0.5627 -1.0776  0.6908
 4183TIP3   OH234039   3.436   2.499  12.799 -0.7672  0.2897  0.2122
 4183TIP3    H134040   3.396   2.547  12.872 -0.4065  0.5520  0.2396
 4183TIP3    H234041   3.372   2.504  12.729 -1.0152  0.2410  0.4344
 4184TIP3   OH234042   2.268   6.603   1.816  1.0080  0.0286 -0.0459
 4184TIP3    H134043   2.186   6.556   1.797  0.4223  1.5971 -1.7507
 4184TIP3    H234044   2.267   6.678   1.756  0.9651  3.3791  3.6940
 4185TIP3   OH234045   4.591   4.126   4.575 -0.5278  0.0089 -0.2898
 4185TIP3    H134046   4.547   4.209   4.592  0.8588  0.9002 -0.9598
 4185TIP3    H234047   4.595   4.083   4.661 -1.1084  0.6847  0.0836
 4186TIP3   OH234048   5.938   0.866  13.190 -0.5410 -0.5217 -0.3896
 4186TIP3    H134049   5.922   0.773  13.208  0.5355 -0.5431  0.6132
 4186TIP3    H234050   5.936   0.908  13.277  0.1436  0.1834 -0.6995
 4187TIP3   OH234051   1.149   5.243  15.763  0.3715  0.0675 -0.3126
 4187TIP3    H134052   1.107   5.213  15.844 -0.1501  0.0981 -0.5613
 4187TIP3    H234053   1.182   5.163  15.722 -0.3959 -0.0949 -0.6328
 4188TIP3   OH234054   5.845   1.493  15.931 -0.6326  0.2866 -0.4656
 4188TIP3    H134055   5.758   1.524  15.907  0.3216  2.2781 -1.5813
 4188TIP3    H234056   5.836   1.398  15.936 -2.4913  0.3136 -2.1740
 4189TIP3   OH234057   2.478   0.103  12.098  0.4997  0.2575  0.7006
 4189TIP3    H134058   2.433   0.117  12.015  1.4770 -0.2245  0.0694
 4189TIP3    H234059   2.556   0.053  12.075 -0.7912 -2.7730  2.3088
 4190TIP3   OH234060   2.838   4.661   5.747  0.0711 -0.0240 -0.0501
 4190TIP3    H134061   2.771   4.644   5.680 -0.2591 -0.0281  0.2835
 4190TIP3    H234062   2.906   4.596   5.728 -0.0956 -0.1345 -0.2809
 4191TIP3   OH234063   1.397   5.176   5.784 -0.0144  0.2741 -0.4094
 4191TIP3    H134064   1.402   5.269   5.759  0.2873  0.4416  0.2353
 4191TIP3    H234065   1.304   5.162   5.805  0.2357  0.9722  1.3835
 4192TIP3   OH234066   0.418   4.654   5.352  0.7655 -0.6486  0.1835
 4192TIP3    H134067   0.336   4.665   5.401 -0.1560 -1.1419 -1.1983
 4192TIP3    H234068   0.398   4.685   5.264  1.9266 -1.2181 -0.3013
 4193TIP3   OH234069   1.323   4.943   1.607  0.0094 -0.5204  0.0920
 4193TIP3    H134070   1.378   4.865   1.602 -1.3145 -1.5419  0.9018
 4193TIP3    H234071   1.304   4.953   1.700 -1.0077 -0.0752 -0.1508
 4194TIP3   OH234072   2.430   2.075  12.898 -0.3649 -0.6979 -0.6998
 4194TIP3    H134073   2.475   2.037  12.973 -0.1756  0.3194 -0.2762
 4194TIP3    H234074   2.500   2.116  12.847 -0.9112  3.7625  1.6095
 4195TIP3   OH234075   0.769   1.977   4.320 -0.5878 -0.0299  0.3173
 4195TIP3    H134076   0.853   1.935   4.337  0.1119  0.9727 -0.5369
 4195TIP3    H234077   0.777   2.013   4.232 -2.0983 -0.3344  0.0202
 4196TIP3   OH234078   2.609   6.097  12.912  0.1974  0.4466  0.2708
 4196TIP3    H134079   2.545   6.026  12.904 -0.0326  0.7181 -0.4054
 4196TIP3    H234080   2.605   6.123  13.003  0.6293 -0.7301  0.6470
 4197TIP3   OH234081   4.212   3.057  16.486  0.1306  0.4726  0.1929
 4197TIP3    H134082   4.259   3.041  16.568 -0.0645 -1.6926 -0.0599
 4197TIP3    H234083   4.151   3.127  16.506 -1.1059 -1.1253  2.4315
 4198TIP3   OH234084   6.402   1.890  15.652 -0.5993  0.1626 -0.1191
 4198TIP3    H134085   6.359   1.973  15.630  1.3570  1.0092 -0.9718
 4198TIP3    H234086   6.471   1.881  15.586  0.9423 -0.8040  1.5521
 4199TIP3   OH234087   3.547   1.675  14.139 -0.0736 -0.1533 -0.3704
 4199TIP3    H134088   3.559   1.643  14.229  1.2696  0.1108 -0.4380
 4199TIP3    H234089   3.514   1.600  14.091  0.4113 -0.6663  0.0764
 4200TIP3   OH234090   2.254   1.910  13.886 -0.2333 -0.3845 -0.0949
 4200TIP3    H134091   2.226   1.915  13.978  2.0564  0.1199  0.6541
 4200TIP3    H234092   2.349   1.901  13.891 -0.1006 -0.8800 -2.4386
 4201TIP3   OH234093   0.902   4.063  14.041  0.1007  0.7301  0.9884
 4201TIP3    H134094   0.972   4.121  14.068  0.4231 -0.4651  2.8610
 4201TIP3    H234095   0.846   4.117  13.985  2.7120  1.5860 -0.9877
 4202TIP3   OH234096   0.500   2.055  12.897 -0.2704  0.2894 -0.3193
 4202TIP3    H134097   0.533   1.972  12.932 -3.2410 -0.9374 -0.1175
 4202TIP3    H234098   0.578   2.100  12.865  1.4541 -2.7718 -0.8420
 4203TIP3   OH234099   6.039   4.592   2.989  0.2233  0.1771  0.1539
 4203TIP3    H134100   6.008   4.668   2.941  3.3386  1.2786 -0.2833
 4203TIP3    H234101   6.005   4.604   3.078  0.7108  2.1395  0.1107
 4204TIP3   OH234102   1.149   6.310   4.704  0.2061  0.2824 -0.5153
 4204TIP3    H134103   1.125   6.384   4.760  0.8525  0.0356  0.0951
 4204TIP3    H234104   1.160   6.237   4.764 -2.5884 -0.9050 -1.3106
 4205TIP3   OH234105   0.843   2.481   5.271  0.2144  0.7219  0.4651
 4205TIP3    H134106   0.749   2.472   5.256  0.0370  1.4945  1.0458
 4205TIP3    H234107   0.854   2.463   5.365  0.6969  0.2903  0.3316
 4206TIP3   OH234108   0.330   0.905   4.855 -0.4994  0.1083  0.1521
 4206TIP3    H134109   0.245   0.912   4.899 -0.5758 -1.7488  0.3888
 4206TIP3    H234110   0.388   0.962   4.906 -1.5412  1.2966  0.0661
 4207TIP3   OH234111   5.747   1.315   0.366  0.1430  0.0681  0.1244
 4207TIP3    H134112   5.719   1.377   0.298 -0.6030  1.8815  1.9959
 4207TIP3    H234113   5.665   1.274   0.395  0.4453 -0.6091  0.0375
 4208TIP3   OH234114   0.231   0.449   0.188  0.1136  0.8295 -0.2306
 4208TIP3    H134115   0.288   0.490   0.123  2.5810  1.3627  2.1017
 4208TIP3    H234116   0.247   0.355   0.177 -0.8776  0.7904 -1.5374
 4209TIP3   OH234117   3.253   4.668   0.441  0.1163  0.5793 -0.0579
 4209TIP3    H134118   3.217   4.677   0.529 -0.8262 -0.9340 -0.2697
 4209TIP3    H234119   3.343   4.637   0.456 -0.1976 -0.1503  0.3643
 4210TIP3   OH234120   4.744   3.655  16.712 -0.2080  0.5765 -0.1920
 4210TIP3    H134121   4.839   3.643  16.707 -0.2400  0.5042 -0.7551
 4210TIP3    H234122   4.708   3.569  16.691 -0.4027  0.8278 -0.9328
 4211TIP3   OH234123   2.750   0.260  15.126  0.3028 -0.7396  0.2857
 4211TIP3    H134124   2.735   0.287  15.217  0.0827 -2.0956  0.6631
 4211TIP3    H234125   2.763   0.166  15.131  0.5391 -0.7891 -1.0716
 4212TIP3   OH234126   4.383   2.474  13.894  0.0167  0.5647  0.2176
 4212TIP3    H134127   4.397   2.543  13.830  0.8014  0.6226  0.4373
 4212TIP3    H234128   4.440   2.498  13.968 -0.6348  0.3346  0.8016
 4213TIP3   OH234129   2.031   4.294  15.235  0.2595  0.4945  0.0096
 4213TIP3    H134130   2.101   4.348  15.200  0.8677 -0.2952 -0.0213
 4213TIP3    H234131   1.956   4.353  15.241  0.9334  1.3633  0.0924
 4214TIP3   OH234132   6.161   1.327  16.510 -0.1392  0.0104 -0.7379
 4214TIP3    H134133   6.113   1.400  16.472 -0.3933 -0.5897 -1.6177
 4214TIP3    H234134   6.251   1.339  16.480  0.1302  0.7342  0.3069
 4215TIP3   OH234135   5.132   3.086   1.994  0.4728  0.3831  0.1847
 4215TIP3    H134136   5.055   3.036   1.967  0.3360  1.0006 -0.6032
 4215TIP3    H234137   5.137   3.072   2.089  1.0107 -1.8843 -0.1125
 4216TIP3   OH234138   6.081   2.642  12.655  0.8968  0.6579  0.1741
 4216TIP3    H134139   6.064   2.734  12.673 -0.8883  0.2223  1.0291
 4216TIP3    H234140   6.084   2.636  12.559  0.8884  1.5784  0.1098
 4217TIP3   OH234141   3.047   1.956  16.947 -0.0753  0.0594  0.4409
 4217TIP3    H134142   3.014   2.021  16.886  0.2312 -2.1520 -2.2639
 4217TIP3    H234143   2.973   1.898  16.964  0.0715  0.1685  1.5597
 4218TIP3   OH234144   3.033   0.743  12.330  0.3136 -0.5985  0.3259
 4218TIP3    H134145   2.992   0.807  12.273  0.2599  1.3995  2.4634
 4218TIP3    H234146   3.116   0.722  12.287  0.0824  0.4869 -0.7036
 4219TIP3   OH234147   1.279   2.423  13.038 -0.8567 -0.1897  0.0755
 4219TIP3    H134148   1.215   2.407  12.970  0.2272  0.5371 -1.1544
 4219TIP3    H234149   1.331   2.343  13.042 -0.8220 -0.1733 -0.0584
 4220TIP3   OH234150   3.037   4.305  14.132 -0.0505  0.7569  0.4332
 4220TIP3    H134151   3.090   4.368  14.181  0.5057  0.4543  0.2261
 4220TIP3    H234152   3.078   4.220  14.149  0.1276  0.6380 -0.5120
 4221TIP3   OH234153   0.094   0.377   4.896 -0.1322  0.0726 -0.5717
 4221TIP3    H134154   0.172   0.329   4.866  0.9038  1.2947  0.0636
 4221TIP3    H234155   0.107   0.466   4.864 -0.1150  0.8588  1.4407
 4222TIP3   OH234156   1.204   3.894   4.648  0.0248  0.1669  0.2689
 4222TIP3    H134157   1.178   3.935   4.565  1.4443  0.8913  0.1482
 4222TIP3    H234158   1.251   3.815   4.622  0.3664  0.3312  0.3829
 4223TIP3   OH234159   5.275   4.831   3.676 -0.1435  0.1469 -0.4436
 4223TIP3    H134160   5.334   4.851   3.603 -0.9623  0.8340 -0.9386
 4223TIP3    H234161   5.330   4.786   3.740  1.0689  1.3217 -0.6132
 4224TIP3   OH234162   1.365   1.758   5.729  0.2145 -0.3069  0.6549
 4224TIP3    H134163   1.373   1.852   5.712 -0.4567 -0.3875 -0.1797
 4224TIP3    H234164   1.440   1.737   5.784  0.3128  0.7377  0.9359
 4225TIP3   OH234165   3.024   5.551  13.486  0.4494 -0.7434 -0.4435
 4225TIP3    H134166   3.022   5.549  13.390  0.0998 -1.6932 -0.4290
 4225TIP3    H234167   2.942   5.509  13.512  1.3777 -2.1810  0.2675
 4226TIP3   OH234168   2.003   3.774   5.441  0.3705 -0.4798 -0.0106
 4226TIP3    H134169   2.000   3.692   5.491  1.5405  0.3801  1.5409
 4226TIP3    H234170   2.064   3.755   5.369  0.0948 -1.1664 -0.0767
 4227TIP3   OH234171   1.777   5.034  11.215 -0.2547 -0.4765 -0.2660
 4227TIP3    H134172   1.757   4.972  11.285 -2.7598  0.0280 -0.4279
 4227TIP3    H234173   1.695   5.083  11.202  0.7567  0.8683 -2.1232
 4228TIP3   OH234174   5.417   3.089  13.770 -0.1430 -0.3175  0.2157
 4228TIP3    H134175   5.378   3.034  13.703  1.6451  0.6195 -1.6913
 4228TIP3    H234176   5.361   3.077  13.847 -3.9627  0.7067 -2.1643
 4229TIP3   OH234177   4.163   4.910  16.173  0.0827  0.3181 -0.0747
 4229TIP3    H134178   4.203   4.995  16.153  0.6580  0.4149  1.3288
 4229TIP3    H234179   4.178   4.899  16.267 -1.1113 -0.7592  0.0149
 4230TIP3   OH234180   4.429   4.932   4.006  0.1932  0.5323 -0.2659
 4230TIP3    H134181   4.342   4.942   4.043 -1.0279 -1.4621 -2.3061
 4230TIP3    H234182   4.476   4.876   4.068 -0.4551  0.4814  0.1810
 4231TIP3   OH234183   3.152   5.038   5.168 -0.5553  0.3446  0.1392
 4231TIP3    H134184   3.171   5.105   5.102  0.8028  1.5945  1.7070
 4231TIP3    H234185   3.116   5.086   5.242 -0.5803 -0.8026  0.8996
 4232TIP3   OH234186   2.826   6.270  16.178 -0.1380  0.0807 -1.0814
 4232TIP3    H134187   2.747   6.323  16.190  0.0696  0.3148 -0.7285
 4232TIP3    H234188   2.794   6.189  16.138 -0.8550 -0.5937  0.7324
 4233TIP3   OH234189   0.318   4.237  15.959 -0.8520 -0.2204  0.1920
 4233TIP3    H134190   0.322   4.327  15.928  1.9238  0.2190  1.5419
 4233TIP3    H234191   0.365   4.186  15.893  0.9548 -0.0116  1.2547
 4234TIP3   OH234192   3.293   3.263   2.160 -0.1495 -0.5592  0.3569
 4234TIP3    H134193   3.251   3.293   2.241  0.7976  0.3113  0.5435
 4234TIP3    H234194   3.376   3.310   2.157  0.1073 -1.0500 -0.8165
 4235TIP3   OH234195   6.812   0.174  10.510  0.2067  0.0593 -0.0884
 4235TIP3    H134196   6.761   0.178  10.590 -0.4300 -1.7507 -0.3635
 4235TIP3    H234197   6.762   0.116  10.452  1.7209 -0.4192 -0.9847
 4236TIP3   OH234198   1.413   3.915  10.901  0.3387 -0.4050 -0.0778
 4236TIP3    H134199   1.441   3.963  10.823 -1.3846 -0.2141 -0.6089
 4236TIP3    H234200   1.492   3.868  10.929  0.9080 -0.7975 -2.1519
 4237TIP3   OH234201   3.747   6.435   2.149  0.0912  0.5474 -0.0833
 4237TIP3    H134202   3.702   6.388   2.078  0.0756  1.8751 -0.9866
 4237TIP3    H234203   3.685   6.434   2.222  0.6446 -2.0735  0.4864
 4238TIP3   OH234204   0.474   3.801  15.082 -0.8419  0.4009 -0.0680
 4238TIP3    H134205   0.522   3.808  15.000  2.8153 -0.1480  1.7918
 4238TIP3    H234206   0.449   3.709  15.088  0.7110 -0.0273  0.2654
 4239TIP3   OH234207   6.559   0.697   5.094 -0.0136  0.1942 -0.0435
 4239TIP3    H134208   6.565   0.790   5.075  0.8674  0.1858  0.1397
 4239TIP3    H234209   6.470   0.685   5.128 -0.0857  0.9911  0.0745
 4240TIP3   OH234210   5.884   2.295   3.208  0.5114 -0.5080  0.0935
 4240TIP3    H134211   5.805   2.343   3.182  0.1170 -1.1591  0.0748
 4240TIP3    H234212   5.895   2.228   3.141  0.2745 -1.3192  0.8401
 4241TIP3   OH234213   0.617   4.899   0.903  0.3869  0.3094 -0.1207
 4241TIP3    H134214   0.533   4.943   0.898 -0.0054 -0.5641 -2.7815
 4241TIP3    H234215   0.626   4.854   0.819  2.0230 -2.3653  1.3333
 4242TIP3   OH234216   6.508   6.109   1.516  0.0483 -0.0585 -0.1189
 4242TIP3    H134217   6.524   6.071   1.602  1.6774  1.8237  0.4877
 4242TIP3    H234218   6.427   6.158   1.526  0.6992  0.8951  0.6415
 4243TIP3   OH234219   1.809   6.120   3.364  0.6427 -0.6476 -0.2543
 4243TIP3    H134220   1.801   6.025   3.360 -1.4348 -0.5243 -0.1504
 4243TIP3    H234221   1.815   6.147   3.272  2.7528 -0.9253 -0.2480
 4244TIP3   OH234222   4.764   4.866  13.750  0.0479  0.3912  0.1786
 4244TIP3    H134223   4.678   4.900  13.724 -0.6463 -1.6175 -0.3796
 4244TIP3    H234224   4.788   4.806  13.679  2.0358  1.0645  0.2267
 4245TIP3   OH234225   3.553   0.793  15.058  0.2357 -0.3268  0.2994
 4245TIP3    H134226   3.475   0.764  15.106 -0.6358  1.0094 -0.2614
 4245TIP3    H234227   3.618   0.726  15.077 -0.4966 -0.5584  2.2167
 4246TIP3   OH234228   0.637   4.113   1.518 -0.1347 -0.0252  0.5775
 4246TIP3    H134229   0.613   4.172   1.447 -0.8780  0.5982  1.3225
 4246TIP3    H234230   0.573   4.042   1.513  0.0212 -0.1554  0.4193
 4247TIP3   OH234231   1.959   5.664  15.866  0.2666 -0.1291  0.0556
 4247TIP3    H134232   1.894   5.688  15.931 -1.7115  0.8671 -2.1288
 4247TIP3    H234233   1.915   5.598  15.811  2.1678 -1.5920  0.1953
 4248TIP3   OH234234   3.885   6.379   4.195 -0.2870 -0.2199  0.1834
 4248TIP3    H134235   3.833   6.418   4.125  1.6616 -0.0200 -1.2476
 4248TIP3    H234236   3.863   6.431   4.273 -0.9319  0.9553 -0.7416
 4249TIP3   OH234237   4.279   5.961  12.298 -0.0679  0.0937  0.8397
 4249TIP3    H134238   4.372   5.938  12.303  0.1372  0.3549 -1.1901
 4249TIP3    H234239   4.264   6.015  12.376  1.5117  0.1888  1.1093
 4250TIP3   OH234240   6.670   3.284   3.547 -0.9067  0.7458  0.4422
 4250TIP3    H134241   6.742   3.243   3.498 -1.1655  1.0655 -0.2213
 4250TIP3    H234242   6.711   3.356   3.595 -1.1077  2.4574 -1.7784
 4251TIP3   OH234243   6.299   5.810  16.569 -0.3629 -0.0684 -0.4257
 4251TIP3    H134244   6.231   5.815  16.502 -0.9440 -1.5576  0.0039
 4251TIP3    H234245   6.361   5.880  16.547 -0.7135 -0.3074 -2.2870
 4252TIP3   OH234246   3.814   5.158  15.258  0.2343  0.5223 -0.1673
 4252TIP3    H134247   3.729   5.203  15.251  0.6754  2.0056  2.4341
 4252TIP3    H234248   3.791   5.065  15.265 -1.1482  0.8373 -0.1415
 4253TIP3   OH234249   4.559   6.497   0.500 -0.1557  0.2363  0.1655
 4253TIP3    H134250   4.554   6.573   0.558  0.3907 -1.2825  2.3343
 4253TIP3    H234251   4.522   6.425   0.553  0.2775 -1.2083 -1.4286
 4254TIP3   OH234252   0.534   4.022   1.097 -0.0794 -0.7682  0.2017
 4254TIP3    H134253   0.495   3.986   1.018  0.3636 -1.9218  0.4758
 4254TIP3    H234254   0.579   3.947   1.138  2.1332  0.3841  0.0606
 4255TIP3   OH234255   6.530   3.416  13.088 -0.0412  0.4885  0.1732
 4255TIP3    H134256   6.444   3.457  13.089  0.3184  1.2624  0.6220
 4255TIP3    H234257   6.586   3.475  13.139  0.7022 -0.1153  0.0896
 4256TIP3   OH234258   4.179   0.083  15.619 -0.2796 -1.0264  0.2499
 4256TIP3    H134259   4.200  -0.009  15.636 -0.6819 -0.7795  2.3869
 4256TIP3    H234260   4.218   0.131  15.693  0.9986  0.7142 -1.4184
 4257TIP3   OH234261   0.460   2.893   0.092 -0.3693  0.3244  0.0983
 4257TIP3    H134262   0.435   2.845   0.171 -0.3655  0.3079  0.0895
 4257TIP3    H234263   0.397   2.964   0.086  0.4308  1.1188  0.8515
 4258TIP3   OH234264   4.208   6.668   3.948 -0.0898 -0.2197 -0.4010
 4258TIP3    H134265   4.174   6.617   4.022  0.0801 -1.4813 -1.1593
 4258TIP3    H234266   4.130   6.689   3.896 -0.4437  2.0912  0.9160
 4259TIP3   OH234267   2.610   3.562   1.281 -0.6853 -0.0233  0.1116
 4259TIP3    H134268   2.675   3.495   1.259 -0.4360  1.0886 -3.2319
 4259TIP3    H234269   2.526   3.519   1.265 -0.5191  0.5461 -2.9938
 4260TIP3   OH234270   0.379   5.506   0.581 -0.2055 -0.2472 -0.3280
 4260TIP3    H134271   0.474   5.494   0.588  0.1741  2.3326  0.1337
 4260TIP3    H234272   0.343   5.458   0.655  1.2053  2.1885  2.1369
 4261TIP3   OH234273   2.044   5.822  11.930 -0.3264 -0.7879  0.6834
 4261TIP3    H134274   2.052   5.741  11.880  0.9636  0.2039 -0.7638
 4261TIP3    H234275   2.114   5.818  11.995  0.9679 -0.0024 -0.6281
 4262TIP3   OH234276   0.856   3.011  15.367  0.6979 -0.4544 -0.2637
 4262TIP3    H134277   0.882   3.062  15.290  0.6787 -2.1507 -1.4381
 4262TIP3    H234278   0.869   2.920  15.341  1.1718 -1.0626  1.9427
 4263TIP3   OH234279   3.538   4.286   6.629  0.5112 -0.0507  0.8935
 4263TIP3    H134280   3.448   4.287   6.596  1.7211  0.8080 -2.8798
 4263TIP3    H234281   3.563   4.194   6.627  0.6764 -0.0135 -1.3423
 4264TIP3   OH234282   5.573   1.016  16.522 -0.3755 -0.2311  0.1354
 4264TIP3    H134283   5.610   1.098  16.490  0.0469 -0.7969 -0.8989
 4264TIP3    H234284   5.649   0.967  16.555 -0.7217  0.0772  1.4564
 4265TIP3   OH234285   0.306   2.985   1.072  0.3615  0.2710 -0.5398
 4265TIP3    H134286   0.346   3.018   1.152  0.6357 -0.9087 -0.1723
 4265TIP3    H234287   0.216   3.015   1.076  0.3882  0.2793  0.1908
 4266TIP3   OH234288   5.790   4.871  12.587 -0.0763 -0.4806 -0.4429
 4266TIP3    H134289   5.748   4.955  12.604  0.5975  0.1630 -1.7759
 4266TIP3    H234290   5.731   4.826  12.527  0.3094 -0.2975 -0.9623
 4267TIP3   OH234291   2.717   6.665  16.756 -0.3063 -0.1725 -0.2203
 4267TIP3    H134292   2.634   6.702  16.726 -0.4547  0.0928  0.4904
 4267TIP3    H234293   2.704   6.652  16.850  1.3337  2.2541  0.4230
 4268TIP3   OH234294   0.503   4.355   0.250  0.0716 -0.0778  0.6876
 4268TIP3    H134295   0.557   4.432   0.270 -0.1858  0.2620  0.0812
 4268TIP3    H234296   0.543   4.285   0.301  0.2047  0.4907  1.3863
 4269TIP3   OH234297   2.810   5.107   3.921 -0.1312  0.1795 -0.8729
 4269TIP3    H134298   2.741   5.109   3.987  0.0541 -0.1797 -0.6605
 4269TIP3    H234299   2.889   5.085   3.970  0.1188  0.5048 -1.1276
 4270TIP3   OH234300   5.763   3.118   1.229 -0.8786  0.0019  0.1732
 4270TIP3    H134301   5.858   3.121   1.238 -0.2199 -0.4551 -4.3126
 4270TIP3    H234302   5.741   3.026   1.244 -0.5447 -0.0243  0.5369
 4271TIP3   OH234303   1.894   6.495  13.805 -0.7002 -0.0959  0.0298
 4271TIP3    H134304   1.937   6.538  13.880 -0.2535 -1.2661  0.4620
 4271TIP3    H234305   1.937   6.410  13.798 -1.4689 -0.4257 -0.9069
 4272TIP3   OH234306   2.808   4.772   0.239 -0.4235 -0.4232  0.0824
 4272TIP3    H134307   2.845   4.774   0.151 -1.0820  2.8779 -0.2535
 4272TIP3    H234308   2.747   4.846   0.241 -0.6549 -0.5594  3.2314
 4273TIP3   OH234309   6.728   1.131  11.396 -0.3440 -0.0629 -0.1381
 4273TIP3    H134310   6.664   1.122  11.326 -2.4156  2.9907  1.1386
 4273TIP3    H234311   6.680   1.108  11.476  0.6548  0.6739  0.7050
 4274TIP3   OH234312   2.919   6.723   4.700  0.6340  0.2321 -0.0498
 4274TIP3    H134313   2.963   6.733   4.616 -1.1076  0.6222 -0.9505
 4274TIP3    H234314   2.829   6.701   4.678  0.3959 -0.8029  1.7405
 4275TIP3   OH234315   1.299   3.558   1.094 -0.3381 -1.1128  0.0189
 4275TIP3    H134316   1.375   3.584   1.041 -0.8205 -1.8312 -1.0404
 4275TIP3    H234317   1.327   3.479   1.139 -0.5907 -1.6210 -0.7034
 4276TIP3   OH234318   4.989   4.099   4.162 -0.0614 -0.0088  0.0971
 4276TIP3    H134319   4.932   4.082   4.237 -0.6485 -1.6458 -0.6533
 4276TIP3    H234320   4.978   4.192   4.143 -1.3420  0.0231  0.9004
 4277TIP3   OH234321   4.921   1.288  13.059 -0.6914  0.2543  0.5066
 4277TIP3    H134322   4.994   1.228  13.077 -1.7529 -0.8238  1.3992
 4277TIP3    H234323   4.851   1.232  13.026 -0.6639  1.4722 -1.8044
 4278TIP3   OH234324   4.453   3.563   5.060 -0.1197 -0.0495 -0.0917
 4278TIP3    H134325   4.370   3.522   5.037 -0.2436 -0.9932  1.8105
 4278TIP3    H234326   4.429   3.633   5.121  0.5241 -0.9715  1.2546
 4279TIP3   OH234327   0.625   1.808  13.078 -0.7499  0.1223  0.0116
 4279TIP3    H134328   0.605   1.795  13.171  0.9957 -1.0288  0.2796
 4279TIP3    H234329   0.719   1.789  13.071 -0.5553  1.5112 -1.7598
 4280TIP3   OH234330   3.328   6.698   2.788 -0.2753  0.1738  0.2019
 4280TIP3    H134331   3.375   6.655   2.717 -1.4855 -0.1932 -0.3910
 4280TIP3    H234332   3.327   6.634   2.859  2.9457  1.3287  1.5074
 4281TIP3   OH234333   4.911   3.712  15.777 -0.2484 -0.3632  0.1570
 4281TIP3    H134334   4.820   3.687  15.760 -0.2320  0.5695 -1.4025
 4281TIP3    H234335   4.960   3.676  15.703  0.2767  1.2138 -0.2983
 4282TIP3   OH234336   5.685   1.572  14.345 -0.6716 -0.6880  0.3593
 4282TIP3    H134337   5.707   1.593  14.254 -2.4155 -0.2876 -0.0165
 4282TIP3    H234338   5.683   1.657  14.389 -1.4469 -0.6966  0.3600
 4283TIP3   OH234339   1.301   4.784  15.097 -0.0017  0.7596 -0.1813
 4283TIP3    H134340   1.347   4.832  15.029  0.7075  0.3194 -0.0230
 4283TIP3    H234341   1.223   4.749  15.053 -0.4307  1.8767 -0.3412
 4284TIP3   OH234342   5.191   4.272   0.828 -0.1527 -0.7445  0.1151
 4284TIP3    H134343   5.186   4.366   0.808  0.3825 -0.4390  1.3621
 4284TIP3    H234344   5.267   4.241   0.779  0.7295 -0.1474  1.0643
 4285TIP3   OH234345   0.638   3.707   1.392  0.3757 -0.3538 -0.1358
 4285TIP3    H134346   0.636   3.708   1.297  1.5230  1.5505 -0.1923
 4285TIP3    H234347   0.729   3.684   1.414  0.6420  1.1133  0.4241
 4286TIP3   OH234348   3.751   6.575   2.855 -0.3187 -0.4645  0.1908
 4286TIP3    H134349   3.722   6.575   2.946 -2.7560  3.7313 -0.3442
 4286TIP3    H234350   3.701   6.504   2.815 -0.5589 -1.2109  1.7133
 4287TIP3   OH234351   4.191   2.696   3.824 -0.2309  0.5919  0.0296
 4287TIP3    H134352   4.279   2.667   3.802  0.4896  2.7840 -0.2178
 4287TIP3    H234353   4.172   2.766   3.761 -1.3917  1.3968  1.2138
 4288TIP3   OH234354   0.494   6.549   2.236 -0.1716 -0.0868 -0.0759
 4288TIP3    H134355   0.445   6.467   2.240 -0.3738 -0.0328 -1.1105
 4288TIP3    H234356   0.472   6.595   2.316 -0.9393 -0.5546 -0.0112
 4289TIP3   OH234357   1.992   5.378  16.938 -0.6421  0.8703  0.0997
 4289TIP3    H134358   2.054   5.374  17.011 -1.3271 -0.4295  0.6369
 4289TIP3    H234359   2.029   5.444  16.879  0.2616  1.4809  1.3026
 4290TIP3   OH234360   0.535   3.671  14.441  0.4579  0.2213 -0.4611
 4290TIP3    H134361   0.598   3.703  14.377 -0.5115  2.7735 -0.2456
 4290TIP3    H234362   0.584   3.663  14.522  1.2643 -1.2954 -1.0405
 4291TIP3   OH234363   6.355   2.236   0.962  0.0639  0.8168 -0.0897
 4291TIP3    H134364   6.319   2.177   0.896 -4.6382  2.4973  0.5840
 4291TIP3    H234365   6.404   2.301   0.912 -0.6863  0.2693 -1.5847
 4292TIP3   OH234366   5.100   0.515   1.118  0.4365  0.2554 -0.4456
 4292TIP3    H134367   5.191   0.497   1.091  0.6712  0.0233  0.4724
 4292TIP3    H234368   5.056   0.538   1.036  1.3420  0.4621 -0.8964
 4293TIP3   OH234369   5.045   3.395  16.369  0.5490  0.4999  0.2474
 4293TIP3    H134370   5.075   3.304  16.362  0.0179  0.3611 -0.2397
 4293TIP3    H234371   5.061   3.418  16.461  0.7996 -0.0400  0.3450
 4294TIP3   OH234372   2.178   2.048   3.274 -0.2550 -0.6961 -0.6208
 4294TIP3    H134373   2.109   2.001   3.227 -0.4638 -3.2434  1.9232
 4294TIP3    H234374   2.136   2.128   3.305 -1.7328 -1.5914 -0.2248
 4295TIP3   OH234375   4.088   1.037  16.398  0.4503  0.2832  0.5030
 4295TIP3    H134376   4.177   1.072  16.408  0.3064  0.0820  3.7035
 4295TIP3    H234377   4.051   1.086  16.325  2.8986  0.9430 -0.4163
 4296TIP3   OH234378   5.940   5.852   1.738  0.3321 -0.0233  0.1315
 4296TIP3    H134379   5.969   5.906   1.664 -0.9576  0.4400 -0.0601
 4296TIP3    H234380   5.856   5.890   1.765  0.6620 -0.3373  1.6954
 4297TIP3   OH234381   6.253   6.716   3.381 -0.3703  0.1991 -0.2618
 4297TIP3    H134382   6.264   6.711   3.476  0.5519 -1.5539 -0.4318
 4297TIP3    H234383   6.161   6.741   3.370 -0.8489 -0.7876  1.0949
 4298TIP3   OH234384   4.948   1.511   0.601 -0.4527 -0.7316 -0.0270
 4298TIP3    H134385   4.920   1.602   0.612  0.5517 -0.3206 -0.6963
 4298TIP3    H234386   4.871   1.459   0.624 -1.1783  0.2974 -0.0592
 4299TIP3   OH234387   1.275   4.004   6.431  0.2354 -0.2385 -0.3801
 4299TIP3    H134388   1.185   3.977   6.413 -0.3867  0.3163  1.5748
 4299TIP3    H234389   1.312   3.934   6.484  0.9545 -0.4342 -1.1196
 4300TIP3   OH234390   0.607   1.651  16.476 -0.3778 -0.3941  0.3835
 4300TIP3    H134391   0.642   1.624  16.561  0.6067 -1.9363 -0.4576
 4300TIP3    H234392   0.519   1.613  16.473  0.1534 -1.6629  0.1307
 4301TIP3   OH234393   6.828   6.447  12.060  0.2507  0.6355  0.1245
 4301TIP3    H134394   6.909   6.438  12.109 -0.8690 -1.8620  1.6913
 4301TIP3    H234395   6.785   6.524  12.098  1.1156  1.0135  0.3704
 4302TIP3   OH234396   3.148   6.372  12.057  0.2648 -0.0502  0.3432
 4302TIP3    H134397   3.075   6.321  12.093  0.2136  0.6812  1.3341
 4302TIP3    H234398   3.110   6.459  12.040  0.7641  0.1710  0.3394
 4303TIP3   OH234399   1.690   2.802   1.834 -0.0529 -0.2246  0.1961
 4303TIP3    H134400   1.640   2.764   1.906  1.8880  0.4599  2.0424
 4303TIP3    H234401   1.687   2.896   1.850 -0.6635  0.0501 -1.4057
 4304TIP3   OH234402   6.455   1.658   2.146 -0.1071 -0.4465 -0.3829
 4304TIP3    H134403   6.396   1.658   2.072 -0.9164  1.0422  0.2231
 4304TIP3    H234404   6.526   1.718   2.121 -0.6595  0.4876  0.2228
 4305TIP3   OH234405   1.552   5.486   4.575 -0.5299 -0.5829  0.3274
 4305TIP3    H134406   1.520   5.540   4.503 -0.9220 -1.0195  0.1684
 4305TIP3    H234407   1.543   5.541   4.653 -2.3986 -0.9236  0.4157
 4306TIP3   OH234408   1.771   4.178  12.006  0.0516 -0.0819  0.3410
 4306TIP3    H134409   1.729   4.104  11.963  0.9905  0.4175 -1.5958
 4306TIP3    H234410   1.857   4.146  12.032  0.7070  0.4284 -1.0663
 4307TIP3   OH234411   5.748   0.785  16.100 -0.0049  0.3330 -0.0717
 4307TIP3    H134412   5.696   0.849  16.149 -0.3695  0.8690 -1.1386
 4307TIP3    H234413   5.728   0.701  16.142  0.8138  0.9421  1.6261
 4308TIP3   OH234414   0.867   6.780  16.605 -0.1704 -0.0613  0.0488
 4308TIP3    H134415   0.875   6.690  16.574  2.6032  0.0278  0.1997
 4308TIP3    H234416   0.833   6.829  16.530 -0.6548 -1.0396 -0.3848
 4309TIP3   OH234417   6.468   2.672   5.640  0.4167  0.5284 -0.3487
 4309TIP3    H134418   6.476   2.691   5.734 -0.5594  1.6686 -0.4708
 4309TIP3    H234419   6.511   2.588   5.629  1.1048  0.6670  1.0212
 4310TIP3   OH234420   1.798   1.476   0.143  0.4505 -0.2924 -0.0993
 4310TIP3    H134421   1.884   1.486   0.184 -0.0682 -0.3400  1.0365
 4310TIP3    H234422   1.748   1.550   0.177  0.5788  0.8450 -2.2303
 4311TIP3   OH234423   0.055   1.623   2.548 -1.2799  0.1677  0.3180
 4311TIP3    H134424  -0.025   1.597   2.595 -1.8118 -0.4270 -0.8808
 4311TIP3    H234425   0.030   1.704   2.503 -1.8985 -1.0725 -1.6985
 4312TIP3   OH234426   5.327   4.570   2.485 -0.0757 -0.4308  0.2984
 4312TIP3    H134427   5.422   4.578   2.490  0.1551 -0.7656 -2.3856
 4312TIP3    H234428   5.305   4.506   2.553  1.7448 -1.2964  0.1354
 4313TIP3   OH234429   2.935   3.081  15.300 -0.1729  0.2526  0.0822
 4313TIP3    H134430   2.875   3.149  15.330  1.1618  1.6653 -0.3279
 4313TIP3    H234431   2.961   3.034  15.380 -0.5553  0.6846  0.4637
 4314TIP3   OH234432   5.445   0.555   1.629  0.8674  0.3691  0.1773
 4314TIP3    H134433   5.360   0.513   1.647 -0.5045  2.1595 -1.5764
 4314TIP3    H234434   5.458   0.542   1.535  2.0182  1.0373  0.2277
 4315TIP3   OH234435   0.048   2.905   3.199  0.0767  0.1417 -0.0492
 4315TIP3    H134436  -0.037   2.942   3.176  0.0150  0.8447  1.2187
 4315TIP3    H234437   0.064   2.839   3.132 -2.3128 -1.3165  0.6799
 4316TIP3   OH234438   5.887   1.219  12.174 -0.0479 -0.0972 -0.2881
 4316TIP3    H134439   5.960   1.259  12.127  1.0000 -2.0465 -0.4095
 4316TIP3    H234440   5.828   1.188  12.105  1.1800 -2.3883 -0.3912
 4317TIP3   OH234441   5.758   2.174  11.762 -0.0363  0.4606 -0.5101
 4317TIP3    H134442   5.690   2.235  11.790  1.1615  0.8000  1.9343
 4317TIP3    H234443   5.796   2.214  11.684 -0.8453  1.6427 -0.3176
 4318TIP3   OH234444   4.098   0.634   3.798 -0.4408 -0.1226 -0.2412
 4318TIP3    H134445   4.053   0.654   3.716  0.0937  1.0710 -0.2601
 4318TIP3    H234446   4.183   0.601   3.772  1.0072  3.1995 -0.2533
 4319TIP3   OH234447   5.244   6.068  17.144 -0.0575 -0.0149 -0.2547
 4319TIP3    H134448   5.238   6.096  17.236  1.4862 -0.8043  0.1107
 4319TIP3    H234449   5.157   6.033  17.125 -0.4618  0.3316  0.8342
 4320TIP3   OH234450   3.465   2.807  13.929  0.0660 -0.1121 -0.6568
 4320TIP3    H134451   3.496   2.894  13.953 -0.4193  0.0899 -0.7608
 4320TIP3    H234452   3.450   2.763  14.013 -5.5916  1.9356 -0.1918
 4321TIP3   OH234453   3.818   1.526  13.803  0.4671  0.5155 -0.0689
 4321TIP3    H134454   3.849   1.488  13.721  1.9918  3.0559 -0.7975
 4321TIP3    H234455   3.871   1.486  13.871  0.2009 -0.5476 -0.4746
 4322TIP3   OH234456   6.565   6.584  12.748  0.0603  0.0291  0.0203
 4322TIP3    H134457   6.545   6.583  12.842 -1.3527  0.0866 -0.2572
 4322TIP3    H234458   6.522   6.662  12.715  1.6798  0.7543 -0.4772
 4323TIP3   OH234459   2.506   2.539  11.644  0.3451 -0.2381  0.1537
 4323TIP3    H134460   2.431   2.480  11.632 -0.2530 -0.0341  2.4470
 4323TIP3    H234461   2.486   2.613  11.587 -0.1573 -1.0770 -0.8141
 4324TIP3   OH234462   0.812   6.416   2.294 -0.8361  0.2078 -0.0516
 4324TIP3    H134463   0.819   6.368   2.376  0.3661  0.5729  0.0903
 4324TIP3    H234464   0.739   6.376   2.248 -0.7154 -0.8418  0.6483
 4325TIP3   OH234465   3.413   4.665  11.405  0.1224 -0.0514  0.5874
 4325TIP3    H134466   3.387   4.730  11.339 -0.5152 -0.2543  0.6280
 4325TIP3    H234467   3.406   4.711  11.488 -0.6059 -0.2422  0.6414
 4326TIP3   OH234468   2.786   0.760   1.996 -0.1869  0.0860 -0.0026
 4326TIP3    H134469   2.854   0.724   2.052 -0.2433  0.6476  0.4329
 4326TIP3    H234470   2.828   0.833   1.951 -0.0888 -0.4739 -0.8389
 4327TIP3   OH234471   0.240   2.012  12.927 -0.6318 -0.2478  0.1430
 4327TIP3    H134472   0.322   2.010  12.877 -0.8274 -0.9771 -0.1482
 4327TIP3    H234473   0.172   2.029  12.862 -0.5620  2.3205  0.6067
 4328TIP3   OH234474   1.209   0.975  16.754  0.5400 -0.1694  0.4389
 4328TIP3    H134475   1.252   0.973  16.840  0.9308 -0.1247  0.2482
 4328TIP3    H234476   1.126   0.931  16.768  0.3778  0.2859  0.9641
 4329TIP3   OH234477   5.950   5.044   5.818  0.1563 -0.8501 -0.1871
 4329TIP3    H134478   5.954   5.019   5.911  0.2619  2.4599  0.8312
 4329TIP3    H234479   6.029   5.096   5.804 -0.5372 -0.1732 -1.7574
 4330TIP3   OH234480   3.720   2.616  10.641  0.5019  0.1296  0.4436
 4330TIP3    H134481   3.801   2.664  10.659  1.2868 -1.0218  0.1373
 4330TIP3    H234482   3.750   2.535  10.599 -0.8516 -0.0892 -0.1419
 4331TIP3   OH234483   4.381   5.609  14.622 -0.1871 -0.0962  0.1309
 4331TIP3    H134484   4.324   5.588  14.547 -0.4824 -0.9478  0.5827
 4331TIP3    H234485   4.329   5.670  14.674 -0.8478 -1.1364  0.7190
 4332TIP3   OH234486   3.891   6.359  11.460 -0.2312  0.4411  0.0376
 4332TIP3    H134487   3.962   6.305  11.496 -0.6583 -1.4077 -1.7538
 4332TIP3    H234488   3.842   6.387  11.537 -0.1827 -2.0275  1.0730
 4333TIP3   OH234489   5.301   0.749  12.872 -0.2830 -0.5769 -0.1618
 4333TIP3    H134490   5.292   0.822  12.811 -0.9325  1.5663  2.3164
 4333TIP3    H234491   5.216   0.746  12.917  0.4548 -1.4925  1.2182
 4334TIP3   OH234492   3.181   6.408  16.575 -0.1631 -0.4287  0.2449
 4334TIP3    H134493   3.151   6.402  16.485 -1.5157  0.7187  0.5827
 4334TIP3    H234494   3.151   6.327  16.616 -0.9864 -0.2175  0.0625
 4335TIP3   OH234495   6.543   3.026  10.381  0.5787 -0.2951  0.2887
 4335TIP3    H134496   6.628   3.070  10.371 -1.2041  4.0744  1.7809
 4335TIP3    H234497   6.484   3.074  10.323 -1.2838 -2.0882  0.5773
 4336TIP3   OH234498   5.375   6.115  16.364 -0.2323  0.3362 -0.5451
 4336TIP3    H134499   5.317   6.191  16.358 -0.3608  0.3953  1.1772
 4336TIP3    H234500   5.336   6.051  16.304 -1.9476  0.4730  0.3792
 4337TIP3   OH234501   5.019   1.194   1.274  0.1189  0.2944 -0.2189
 4337TIP3    H134502   5.089   1.129   1.274  1.7284  1.9265  0.7998
 4337TIP3    H234503   4.998   1.207   1.367 -2.1056 -0.6673 -0.5101
 4338TIP3   OH234504   3.074   0.651  11.892  0.4321 -0.3929 -0.3977
 4338TIP3    H134505   3.119   0.583  11.842 -1.2658 -1.2255 -0.8662
 4338TIP3    H234506   3.026   0.603  11.960 -1.7006  0.1830 -1.4202
 4339TIP3   OH234507   0.044   0.730  14.935  0.6282 -0.2133  0.3243
 4339TIP3    H134508  -0.007   0.681  14.999 -3.7492  0.1748 -2.4128
 4339TIP3    H234509   0.058   0.815  14.975  1.5151 -1.1543  2.1471
 4340TIP3   OH234510   0.598   2.302  12.409 -0.3332 -0.1416  0.3060
 4340TIP3    H134511   0.613   2.369  12.476 -0.3212  0.5216 -0.3442
 4340TIP3    H234512   0.605   2.350  12.326  0.3144 -1.0699 -0.1895
 4341TIP3   OH234513   0.386   2.348   0.195 -0.3033  0.2758  0.1728
 4341TIP3    H134514   0.442   2.396   0.256  1.2086 -1.2692  0.0867
 4341TIP3    H234515   0.445   2.284   0.154 -2.3580 -2.3291  1.0133
 4342TIP3   OH234516   6.042   2.476   0.096 -0.4839  0.4053  0.2315
 4342TIP3    H134517   6.034   2.494   0.002 -0.1972 -0.4052  0.0466
 4342TIP3    H234518   6.133   2.450   0.108 -0.5262  0.4813  0.7367
 4343TIP3   OH234519   3.088   1.558  16.153  0.0905  1.0601 -0.0167
 4343TIP3    H134520   3.055   1.586  16.068 -1.3248 -0.9229 -0.1711
 4343TIP3    H234521   3.021   1.586  16.216  0.3361  1.0614  0.2494
 4344TIP3   OH234522   0.746   0.247   3.577  0.5092  0.9178 -0.1513
 4344TIP3    H134523   0.835   0.256   3.543  1.0545  1.8107  1.3760
 4344TIP3    H234524   0.727   0.153   3.570  2.7601  0.1532  2.1674
 4345TIP3   OH234525   6.754   2.399   0.323 -0.1445 -0.2295  0.7556
 4345TIP3    H134526   6.697   2.465   0.361 -0.1215  0.3511 -0.1953
 4345TIP3    H234527   6.734   2.401   0.229  1.3707 -0.0646  0.4099
 4346TIP3   OH234528   2.981   5.608   3.076  0.3177  0.3140 -0.1366
 4346TIP3    H134529   2.975   5.703   3.064  3.8015  0.7349  0.4458
 4346TIP3    H234530   2.943   5.593   3.162  0.1481  1.2304 -0.0376
 4347TIP3   OH234531   6.162   1.206   3.060 -0.3563 -0.2561 -0.2831
 4347TIP3    H134532   6.161   1.280   2.999  1.7783  1.5210  1.6380
 4347TIP3    H234533   6.105   1.235   3.132 -1.5127 -1.5996 -0.6309
 4348TIP3   OH234534   3.922   4.687   2.995  0.0966 -0.0848  0.3749
 4348TIP3    H134535   3.875   4.656   2.917  0.0651 -0.3626  0.5042
 4348TIP3    H234536   4.000   4.730   2.960  1.0908 -1.9149  0.2583
 4349TIP3   OH234537   5.222   1.934  17.154 -0.4424 -0.1776 -0.0755
 4349TIP3    H134538   5.152   1.914  17.215 -0.6817 -0.5829 -0.4791
 4349TIP3    H234539   5.178   1.945  17.069 -0.0250 -0.4142 -0.3256
 4350TIP3   OH234540   4.624   5.809  16.870 -0.1129 -0.6710 -0.0335
 4350TIP3    H134541   4.714   5.787  16.894  0.1358  0.9716  0.6901
 4350TIP3    H234542   4.598   5.741  16.809  2.4566  0.1112 -2.1881
 4351TIP3   OH234543   4.764   1.676  12.691  0.3367  0.1006 -0.7415
 4351TIP3    H134544   4.810   1.727  12.757 -2.0307  1.4638 -0.0417
 4351TIP3    H234545   4.745   1.592  12.734  2.4282 -0.6566 -1.1891
 4352TIP3   OH234546   4.705   4.017   3.419 -0.2364 -0.0430  0.3768
 4352TIP3    H134547   4.685   3.994   3.328  0.4091 -0.4252  0.3238
 4352TIP3    H234548   4.650   4.093   3.437 -0.0237  0.3255 -0.4855
 4353TIP3   OH234549   2.185   2.421   3.720 -0.0056  0.2633  0.0935
 4353TIP3    H134550   2.239   2.365   3.776 -0.1389  0.0665  0.0309
 4353TIP3    H234551   2.222   2.508   3.729  1.9846 -0.2858 -1.9995
 4354TIP3   OH234552   6.447   0.992   1.168  0.0801  0.0858  0.0786
 4354TIP3    H134553   6.503   1.032   1.235  0.7624  1.7092 -1.3652
 4354TIP3    H234554   6.508   0.966   1.099 -0.7877  0.7738 -0.9945
 4355TIP3   OH234555   5.019   0.837  14.835 -0.5503 -0.4408 -0.2670
 4355TIP3    H134556   5.088   0.846  14.901 -0.0070 -0.6158 -0.7986
 4355TIP3    H234557   4.979   0.923  14.830  0.3304 -0.0412 -0.7022
 4356TIP3   OH234558   1.050   4.960  15.956  0.0613 -0.3273  0.6734
 4356TIP3    H134559   1.087   4.964  15.868  0.6478  0.5309  0.9389
 4356TIP3    H234560   1.121   4.924  16.010 -0.3878 -1.1106  0.7541
 4357TIP3   OH234561   6.386   4.300   3.313 -0.0075  0.3921  0.6584
 4357TIP3    H134562   6.437   4.352   3.251  1.8068 -0.2622  1.5198
 4357TIP3    H234563   6.328   4.246   3.259  0.8557  0.5117 -0.4066
 4358TIP3   OH234564   0.869   6.532   5.022  0.4647 -0.2712  0.0444
 4358TIP3    H134565   0.957   6.511   5.055  0.1936 -0.1510  0.8697
 4358TIP3    H234566   0.816   6.457   5.047  0.9034 -1.7970 -3.0867
 4359TIP3   OH234567   3.195   0.119   0.943 -0.3337  0.2058  0.4874
 4359TIP3    H134568   3.251   0.047   0.914 -1.8459 -2.5609  3.7117
 4359TIP3    H234569   3.256   0.187   0.970  1.3737 -1.2449  0.4971
 4360TIP3   OH234570   6.782   6.189  15.191  0.2281  0.0249  0.1095
 4360TIP3    H134571   6.860   6.145  15.224 -0.3201  0.9849  3.0117
 4360TIP3    H234572   6.716   6.176  15.260 -1.4240  1.2775 -1.1428
 4361TIP3   OH234573   3.969   1.576   2.279  0.0180  0.3968  0.4607
 4361TIP3    H134574   3.971   1.560   2.374 -0.5218 -3.0513  0.0242
 4361TIP3    H234575   3.881   1.551   2.252  0.8062 -0.7305 -1.2124
 4362TIP3   OH234576   1.097   3.165  11.294 -0.6505 -0.4485 -0.2470
 4362TIP3    H134577   1.072   3.208  11.213  1.1923  0.7833 -0.2222
 4362TIP3    H234578   1.156   3.094  11.267 -0.6091 -0.4931 -0.0467
 4363TIP3   OH234579   1.603   0.004   3.881 -0.1153 -0.0273 -0.3136
 4363TIP3    H134580   1.642   0.054   3.810  0.9436 -2.3451 -1.4847
 4363TIP3    H234581   1.512  -0.011   3.852  0.0364 -0.1535 -0.7349
 4364TIP3   OH234582   6.026   2.748  11.517  0.2916 -0.7112  0.2853
 4364TIP3    H134583   5.964   2.820  11.534  1.4487 -0.1433  2.4610
 4364TIP3    H234584   6.000   2.715  11.431 -2.2487  0.2902  0.5531
 4365TIP3   OH234585   1.117   4.841  16.361 -0.1026 -0.4623 -0.1722
 4365TIP3    H134586   1.161   4.916  16.401  0.3878 -0.5989 -0.4482
 4365TIP3    H234587   1.153   4.837  16.272 -1.1584 -0.1738 -0.6291
 4366TIP3   OH234588   6.158   4.201   3.768  0.0485 -0.0285  0.2634
 4366TIP3    H134589   6.151   4.223   3.676  2.8071  1.9756  0.4230
 4366TIP3    H234590   6.071   4.168   3.791 -0.9936  0.2607 -2.7821
 4367TIP3   OH234591   0.531   2.952   6.862  0.3552 -0.3158  0.2159
 4367TIP3    H134592   0.553   2.876   6.809  1.6967  1.1050 -1.3331
 4367TIP3    H234593   0.596   3.018   6.839  0.0139  0.9055  2.4692
 4368TIP3   OH234594   1.515   2.863  12.160  0.6329 -0.0905  0.6286
 4368TIP3    H134595   1.583   2.856  12.228 -1.5597 -0.6563  2.8999
 4368TIP3    H234596   1.438   2.821  12.199 -0.9362  0.1705 -1.9973
 4369TIP3   OH234597   5.366   3.391  15.339 -0.5184  0.6213 -0.0964
 4369TIP3    H134598   5.452   3.355  15.320  0.0160  1.7551  0.0885
 4369TIP3    H234599   5.323   3.396  15.254  1.2087  4.0067 -0.9425
 4370TIP3   OH234600   2.449   3.224   6.058 -0.1760  0.6789  0.0438
 4370TIP3    H134601   2.532   3.256   6.094 -0.0787 -0.5016  0.9221
 4370TIP3    H234602   2.467   3.133   6.034 -1.0664  0.5815 -0.2855
 4371TIP3   OH234603   4.276   2.423   0.237  0.8004  0.0750  0.1492
 4371TIP3    H134604   4.220   2.372   0.178  1.1187  1.1735 -1.1616
 4371TIP3    H234605   4.246   2.513   0.227  0.8101  0.2746  1.7621
 4372TIP3   OH234606   4.104   4.362   5.086  0.1025 -0.6758  0.0362
 4372TIP3    H134607   4.178   4.321   5.131  0.6244  1.1691  0.9507
 4372TIP3    H234608   4.027   4.325   5.128  0.5660 -0.4134  1.1495
 4373TIP3   OH234609   1.406   4.688   5.275  0.0002 -0.1051 -0.0827
 4373TIP3    H134610   1.372   4.602   5.299  0.2799 -0.7022 -1.6771
 4373TIP3    H234611   1.344   4.722   5.211  1.0217 -0.1105 -1.1209
 4374TIP3   OH234612   3.953   3.914   1.771 -0.2819 -0.0723  0.5112
 4374TIP3    H134613   3.865   3.878   1.778 -0.7956  0.9186 -0.4632
 4374TIP3    H234614   4.001   3.850   1.719 -0.2764 -0.8328  1.4177
 4375TIP3   OH234615   4.796   2.056   0.912 -0.1388  0.0637  0.0616
 4375TIP3    H134616   4.857   2.053   0.986 -0.5290 -1.3321  0.3656
 4375TIP3    H234617   4.852   2.063   0.835  0.2658  1.8845  0.4633
 4376TIP3   OH234618   0.700   5.565  16.428 -0.3827  0.1761  0.2249
 4376TIP3    H134619   0.663   5.478  16.444 -0.4844  0.4507  1.6237
 4376TIP3    H234620   0.767   5.576  16.495  2.2864 -0.2681 -2.1708
 4377TIP3   OH234621   1.480   3.707  11.813  0.1261 -0.0287 -0.4305
 4377TIP3    H134622   1.460   3.705  11.906 -0.8357 -0.1585 -0.6358
 4377TIP3    H234623   1.403   3.745  11.772  1.3734  2.0794 -0.9672
 4378TIP3   OH234624   6.511   0.375   0.034  0.1394  0.2435 -0.2099
 4378TIP3    H134625   6.480   0.463   0.014  1.4392  1.0235  0.9947
 4378TIP3    H234626   6.486   0.360   0.125 -0.0356 -0.6410 -0.3869
 4379TIP3   OH234627   4.517   1.439   1.992  0.0494  0.3830 -0.6085
 4379TIP3    H134628   4.586   1.418   2.054  0.7874  0.2905 -1.4532
 4379TIP3    H234629   4.562   1.457   1.910 -0.8788  0.9456 -1.0160
 4380TIP3   OH234630   6.657   1.596   0.737 -0.3426  0.5265  0.2924
 4380TIP3    H134631   6.588   1.631   0.794 -0.0759  0.5647  0.5920
 4380TIP3    H234632   6.647   1.501   0.743  0.7599  0.4655  1.7571
 4381TIP3   OH234633   2.275   2.723  14.907  0.5869  0.2175  0.1432
 4381TIP3    H134634   2.307   2.804  14.947  0.5192  0.3143  0.0029
 4381TIP3    H234635   2.255   2.747  14.817  0.1758  0.1444  0.2101
 4382TIP3   OH234636   6.110   4.167   1.527 -0.3513  0.0656  0.0966
 4382TIP3    H134637   6.096   4.081   1.567 -3.1238  0.6887  0.6586
 4382TIP3    H234638   6.138   4.147   1.438 -1.0608 -1.4252  0.1722
 4383TIP3   OH234639   4.874   2.462   0.676 -0.2604  1.0049  0.2107
 4383TIP3    H134640   4.829   2.443   0.758  0.4266  0.1819  0.4211
 4383TIP3    H234641   4.967   2.469   0.701  0.7497 -3.8803 -0.9881
 4384TIP3   OH234642   3.061   5.103   0.792 -0.1380  0.3454 -0.4811
 4384TIP3    H134643   3.139   5.144   0.755  1.5337 -2.2182 -0.0213
 4384TIP3    H234644   3.061   5.014   0.757 -1.9231 -0.2587  0.8722
 4385TIP3   OH234645   1.542   6.753   2.673 -0.0496  0.1622 -0.2132
 4385TIP3    H134646   1.450   6.741   2.697 -0.4294  1.4109 -0.9420
 4385TIP3    H234647   1.585   6.672   2.699 -1.3679 -0.4537  0.0965
 4386TIP3   OH234648   3.122   1.301   4.740  0.0701 -0.2418  0.4103
 4386TIP3    H134649   3.091   1.290   4.650  0.2062 -2.3085  0.5496
 4386TIP3    H234650   3.070   1.373   4.776  1.1037  1.6988 -1.7601
 4387TIP3   OH234651   2.491   4.476   4.940  0.3878  0.0210  0.6937
 4387TIP3    H134652   2.486   4.414   4.868 -0.7127 -0.0084  0.7785
 4387TIP3    H234653   2.576   4.519   4.929  0.3523 -0.1739 -0.4532
 4388TIP3   OH234654   2.494   6.451  13.687 -0.1158  0.1875  0.0714
 4388TIP3    H134655   2.523   6.512  13.755  0.4404  0.2223 -0.1907
 4388TIP3    H234656   2.409   6.485  13.659  0.0687  0.6982  0.1148
 4389TIP3   OH234657   6.703   6.233   3.023  0.6939  0.4809  0.5849
 4389TIP3    H134658   6.742   6.306   2.977 -0.4273  1.6605  1.4212
 4389TIP3    H234659   6.667   6.177   2.954  0.5935  1.2916 -0.0250
 4390TIP3   OH234660   4.977   0.222   6.447  0.4215 -0.4831  0.2542
 4390TIP3    H134661   5.040   0.198   6.515 -1.6176  2.7092  3.6933
 4390TIP3    H234662   5.001   0.311   6.422 -1.5381  0.0908  0.2397
 4391TIP3   OH234663   4.565   6.013  15.386 -0.0072  0.4903  0.0408
 4391TIP3    H134664   4.633   6.025  15.452  0.3684 -1.9370  0.1796
 4391TIP3    H234665   4.510   5.942  15.421 -1.2958  0.8723 -1.1152
 4392TIP3   OH234666   3.851   4.325  10.965 -0.1542 -0.0958 -0.3374
 4392TIP3    H134667   3.782   4.334  10.900 -1.2351  0.3505  0.8341
 4392TIP3    H234668   3.930   4.308  10.914 -0.8590  0.8109 -1.7928
 4393TIP3   OH234669   0.316   2.411   5.802  0.9520 -0.7249  0.2084
 4393TIP3    H134670   0.387   2.467   5.834  1.2724 -1.1754  0.3036
 4393TIP3    H234671   0.255   2.405   5.876 -0.9197  2.3586 -0.9108
 4394TIP3   OH234672   4.513   3.276   0.400 -0.2114 -0.0247  0.2960
 4394TIP3    H134673   4.568   3.306   0.472 -0.1584 -1.6397  0.9768
 4394TIP3    H234674   4.459   3.352   0.378 -0.2644  0.5079  2.0761
 4395TIP3   OH234675   3.195   1.653  10.727 -0.1848 -0.7235 -0.3719
 4395TIP3    H134676   3.145   1.572  10.716 -0.4060 -0.6490  0.0446
 4395TIP3    H234677   3.156   1.714  10.665 -4.0029  0.9099  3.1855
 4396TIP3   OH234678   6.478   4.268  10.943 -0.3082 -0.5406  0.2938
 4396TIP3    H134679   6.394   4.224  10.930 -0.0202 -0.8410 -0.6234
 4396TIP3    H234680   6.485   4.328  10.869  0.3749 -0.6755  0.2468
 4397TIP3   OH234681   6.153   4.617  16.792 -0.2065 -0.1222 -0.3961
 4397TIP3    H134682   6.126   4.533  16.756  0.2739 -0.7268  0.6084
 4397TIP3    H234683   6.085   4.638  16.856  0.5869 -0.6385  0.6453
 4398TIP3   OH234684   1.751   2.218  15.107  0.2053  0.6403  0.0980
 4398TIP3    H134685   1.657   2.206  15.118 -0.0436 -0.1001 -2.2479
 4398TIP3    H234686   1.760   2.297  15.053  0.4972 -1.9203 -4.0151
 4399TIP3   OH234687   1.640   4.644  13.692 -0.5555 -0.6676 -0.7148
 4399TIP3    H134688   1.668   4.676  13.606  0.3344  0.2179 -0.1279
 4399TIP3    H234689   1.631   4.550  13.681 -0.2234 -0.5973 -1.7257
 4400TIP3   OH234690   1.053   2.499  14.497  0.2800  0.1516 -0.2934
 4400TIP3    H134691   1.039   2.580  14.546  0.3172  0.7252 -1.2023
 4400TIP3    H234692   1.056   2.431  14.564  0.6692  0.9441  0.5247
 4401TIP3   OH234693   4.772   0.843  14.233 -0.3603  0.2361 -0.6330
 4401TIP3    H134694   4.767   0.918  14.173 -3.9267 -1.1436 -2.3296
 4401TIP3    H234695   4.789   0.768  14.176 -0.6477 -0.7249  0.5225
 4402TIP3   OH234696   1.320   6.543   0.107 -0.5206 -0.3680 -0.0791
 4402TIP3    H134697   1.302   6.623   0.058 -0.3039  0.4141  1.0860
 4402TIP3    H234698   1.413   6.526   0.091 -0.8658 -1.1216 -1.3640
 4403TIP3   OH234699   6.491   4.067   3.360 -0.8585  0.1352  0.8800
 4403TIP3    H134700   6.501   4.034   3.449  2.3264  1.1653  1.0588
 4403TIP3    H234701   6.446   4.151   3.370  1.1785  1.2095  1.8869
 4404TIP3   OH234702   1.539   0.533  12.325  0.0841 -0.4457  0.5252
 4404TIP3    H134703   1.497   0.517  12.410 -0.7574 -0.5175  0.1004
 4404TIP3    H234704   1.543   0.447  12.283  0.3333 -0.3795  0.4096
 4405TIP3   OH234705   6.337   1.697  10.611 -0.2548 -0.1047  0.3844
 4405TIP3    H134706   6.367   1.788  10.616 -2.3820  0.7786 -1.2060
 4405TIP3    H234707   6.316   1.673  10.701 -1.7621  1.8115  0.5989
 4406TIP3   OH234708   5.706   0.289   5.520 -0.2401  0.1314 -0.1616
 4406TIP3    H134709   5.756   0.348   5.577 -0.5122  0.9146 -0.7066
 4406TIP3    H234710   5.772   0.236   5.477  0.0013 -0.1105  0.4879
 4407TIP3   OH234711   2.852   4.077   1.455 -0.6685  0.3365 -0.5388
 4407TIP3    H134712   2.830   3.992   1.494  1.2216 -0.2702 -0.7251
 4407TIP3    H234713   2.806   4.076   1.371 -0.3272 -0.7064 -0.7344
 4408TIP3   OH234714   6.478   1.747  11.504  0.2096 -0.5177  0.2357
 4408TIP3    H134715   6.515   1.753  11.416 -0.4004 -0.4947 -0.0291
 4408TIP3    H234716   6.391   1.787  11.496  0.2490 -0.2755  0.9124
 4409TIP3   OH234717   2.525   3.241   6.362  0.7635 -0.6805  0.1247
 4409TIP3    H134718   2.432   3.260   6.354  0.4842 -1.5591  1.0125
 4409TIP3    H234719   2.560   3.312   6.417  0.7341 -0.0588 -0.6489
 4410TIP3   OH234720   6.356   2.336  16.538  0.1343  0.6673  0.1754
 4410TIP3    H134721   6.337   2.369  16.626 -0.2370  0.7062  0.0819
 4410TIP3    H234722   6.379   2.414  16.488 -0.1383  0.7092  0.1135
 4411TIP3   OH234723   6.108   6.735  11.778  0.0346  0.2069 -0.2387
 4411TIP3    H134724   6.195   6.763  11.752  0.8956 -0.0881  2.0573
 4411TIP3    H234725   6.121   6.648  11.817 -1.6886 -0.9273 -1.9736
 4412TIP3   OH234726   2.057   5.976   1.843 -0.2143 -0.1375  0.0774
 4412TIP3    H134727   2.000   5.922   1.788 -0.3162  0.0871 -0.0414
 4412TIP3    H234728   2.124   5.916   1.875 -0.9201 -0.5568  0.7874
 4413TIP3   OH234729   3.182   4.490  12.325 -0.0297 -0.3904 -1.1056
 4413TIP3    H134730   3.100   4.478  12.373  0.4790  0.1801 -0.0251
 4413TIP3    H234731   3.216   4.402  12.312 -0.3049 -0.5726 -0.6222
 4414TIP3   OH234732   3.701   1.611   0.094  0.4253 -0.5012  0.3505
 4414TIP3    H134733   3.635   1.673   0.126 -0.3248 -0.7625 -0.6419
 4414TIP3    H234734   3.651   1.535   0.065  1.0501 -0.3014 -1.3721
 4415TIP3   OH234735   0.396   2.719  11.726 -0.3967  0.3663  0.7340
 4415TIP3    H134736   0.364   2.655  11.662 -1.3541  0.9790  0.5789
 4415TIP3    H234737   0.487   2.734  11.702 -0.8923  0.9934 -0.8444
 4416TIP3   OH234738   2.175   4.319   1.233 -0.0227  0.3864  0.3030
 4416TIP3    H134739   2.154   4.370   1.155 -0.3091 -0.5363 -0.2290
 4416TIP3    H234740   2.092   4.310   1.279  0.1324  0.8656  0.6913
 4417TIP3   OH234741   0.706   3.429  15.460  0.2798 -0.4150  0.6624
 4417TIP3    H134742   0.619   3.464  15.441  0.4462  0.5121  1.4645
 4417TIP3    H234743   0.761   3.507  15.471  0.6193 -0.8896  2.7735
 4418TIP3   OH234744   6.405   1.307  17.072  0.1552  0.3235 -0.1560
 4418TIP3    H134745   6.485   1.259  17.094  0.8010  1.1696 -0.6084
 4418TIP3    H234746   6.436   1.389  17.033 -0.9282  0.9260  0.2152
 4419TIP3   OH234747   4.273   1.798  14.044  0.1015 -0.2596  0.0751
 4419TIP3    H134748   4.232   1.802  13.958 -0.9820  0.3207  0.5847
 4419TIP3    H234749   4.333   1.873  14.046 -1.8836  1.4214  0.7505
 4420TIP3   OH234750   4.335   5.619  16.908 -0.4368 -0.3025 -0.0312
 4420TIP3    H134751   4.279   5.696  16.897  0.5422  0.2425 -1.4215
 4420TIP3    H234752   4.349   5.612  17.002 -1.3906  0.5927  0.1898
 4421TIP3   OH234753   6.468   2.026   4.285 -0.0322  0.3044 -0.1589
 4421TIP3    H134754   6.499   2.099   4.339 -1.0477 -0.1786  1.1368
 4421TIP3    H234755   6.386   2.056   4.247 -1.4548 -0.7489  1.8939
 4422TIP3   OH234756   6.512   0.717   3.273 -0.4714  0.1872  0.0676
 4422TIP3    H134757   6.567   0.683   3.343  0.8601 -0.0701 -1.0672
 4422TIP3    H234758   6.426   0.729   3.314 -0.6774 -3.1336  0.8993
 4423TIP3   OH234759   6.207   0.076  13.127  0.1520 -0.9657  0.5000
 4423TIP3    H134760   6.254   0.005  13.169  1.0167 -0.1113  1.0121
 4423TIP3    H234761   6.270   0.148  13.123  0.3312 -1.1536 -2.8109
 4424TIP3   OH234762   1.540   1.595   2.748 -0.1704 -0.0109  0.4369
 4424TIP3    H134763   1.543   1.671   2.690  1.1449  0.2117  0.7652
 4424TIP3    H234764   1.555   1.520   2.689 -0.0441  0.1121  0.3114
 4425TIP3   OH234765   2.416   5.138  10.743 -0.4178  0.0995 -0.5337
 4425TIP3    H134766   2.382   5.151  10.832 -0.8315  2.3752 -0.9555
 4425TIP3    H234767   2.407   5.224  10.702  2.6703 -0.0799 -1.7915
 4426TIP3   OH234768   1.339   5.284   4.309  0.5870  0.4905 -0.8205
 4426TIP3    H134769   1.408   5.318   4.252 -0.0091  0.7753 -1.3841
 4426TIP3    H234770   1.260   5.330   4.282 -0.5808 -2.2452 -2.5980
 4427TIP3   OH234771   2.256   6.353   0.853  0.4801 -0.2181 -0.2715
 4427TIP3    H134772   2.292   6.401   0.928  1.0155 -1.7916  0.5076
 4427TIP3    H234773   2.173   6.318   0.885  0.1466  0.0696 -0.8058
 4428TIP3   OH234774   2.585   5.230   3.292 -0.2212  0.4220  0.3773
 4428TIP3    H134775   2.619   5.146   3.323 -3.0719 -0.6957  0.7713
 4428TIP3    H234776   2.577   5.220   3.198 -0.1801  0.4099  0.3751
 4429TIP3   OH234777   6.499   3.135   3.299  0.4898 -0.4207 -0.1222
 4429TIP3    H134778   6.445   3.194   3.351  0.1540 -0.1374 -0.7815
 4429TIP3    H234779   6.484   3.048   3.337  0.9994 -0.0956  0.8639
 4430TIP3   OH234780   3.059   5.274  16.779  1.1212  0.1035  0.2685
 4430TIP3    H134781   3.136   5.270  16.835  1.0412 -2.1049  0.3056
 4430TIP3    H234782   3.093   5.275  16.690  1.2710 -2.5889  0.2176
 4431TIP3   OH234783   0.041   2.251   5.771  0.3788  0.0716 -0.7773
 4431TIP3    H134784   0.038   2.347   5.775 -0.6755  0.0105  0.7600
 4431TIP3    H234785   0.092   2.226   5.848  1.3625 -0.6105 -1.6183
 4432TIP3   OH234786   5.221   2.089   5.665  0.0966 -0.1496  0.9053
 4432TIP3    H134787   5.267   2.005   5.666  0.3173 -0.0524 -0.0878
 4432TIP3    H234788   5.291   2.154   5.678  0.3009  0.0105 -0.8029
 4433TIP3   OH234789   0.480   1.955  11.757 -0.6000  0.6509  0.0047
 4433TIP3    H134790   0.486   2.048  11.779  1.2096  0.4976  0.3618
 4433TIP3    H234791   0.461   1.912  11.841 -0.2926  0.6126  0.0558
 4434TIP3   OH234792   2.672   1.029  14.948 -0.3309 -0.4569  0.0375
 4434TIP3    H134793   2.675   0.991  15.036 -0.1964 -1.8163 -0.5301
 4434TIP3    H234794   2.713   0.963  14.892  1.1131  1.1105 -0.8136
 4435TIP3   OH234795   2.785   2.049  16.587 -0.5362 -0.4169 -0.0732
 4435TIP3    H134796   2.697   2.072  16.560 -0.4253 -0.6322 -0.6473
 4435TIP3    H234797   2.830   2.027  16.505  0.6029  1.5041 -0.0295
 4436TIP3   OH234798   5.960   2.701   1.734  0.7857  0.4380  0.1862
 4436TIP3    H134799   5.879   2.677   1.779  0.3582 -1.8071 -1.5633
 4436TIP3    H234800   5.931   2.741   1.652  1.4388  0.2189 -0.1619
 4437TIP3   OH234801   1.682   1.508   5.598  0.0016  0.1965 -0.3326
 4437TIP3    H134802   1.691   1.522   5.504  0.6504 -0.7006 -0.4202
 4437TIP3    H234803   1.675   1.596   5.635 -0.7283  0.5400 -1.2579
 4438TIP3   OH234804   1.453   0.497  13.384 -0.0581  0.3940 -0.1015
 4438TIP3    H134805   1.386   0.428  13.383  0.6606 -0.3284 -0.0205
 4438TIP3    H234806   1.404   0.578  13.396 -0.9619 -0.0601 -0.6109
 4439TIP3   OH234807   5.789   4.560   0.907 -0.1013 -0.7745  0.5206
 4439TIP3    H134808   5.723   4.596   0.965  0.3038  0.8954  0.0013
 4439TIP3    H234809   5.873   4.589   0.945  0.2896 -1.8799  0.5354
 4440TIP3   OH234810   0.335   3.303  11.744 -0.4432 -0.2538  0.1783
 4440TIP3    H134811   0.407   3.365  11.758 -0.9206  0.0001  1.6752
 4440TIP3    H234812   0.260   3.358  11.722 -0.6085 -0.3869  0.4126
 4441TIP3   OH234813   5.880   4.305  13.774 -0.1888  0.4716  0.4796
 4441TIP3    H134814   5.963   4.263  13.794 -0.1681 -0.8353 -2.0038
 4441TIP3    H234815   5.848   4.260  13.696 -0.9908  4.0014 -1.4349
 4442TIP3   OH234816   5.435   4.280  15.880 -0.0794 -0.0877 -0.3368
 4442TIP3    H134817   5.370   4.212  15.896 -0.5594  0.7974  1.8762
 4442TIP3    H234818   5.431   4.295  15.786 -3.2659  0.0626 -0.2999
 4443TIP3   OH234819   2.753   0.202   4.620  0.2813  0.1610  0.2052
 4443TIP3    H134820   2.817   0.208   4.549 -0.5083 -0.7892 -0.6321
 4443TIP3    H234821   2.668   0.211   4.576 -0.3584 -2.9142  0.6054
 4444TIP3   OH234822   4.035   0.357  15.421 -0.6524 -0.1255  0.0596
 4444TIP3    H134823   4.131   0.352  15.427 -0.6436  0.2567  0.2814
 4444TIP3    H234824   4.017   0.355  15.327 -0.4517 -0.6076  0.0307
 4445TIP3   OH234825   4.049   6.460  11.752  0.4062  0.0651  0.3590
 4445TIP3    H134826   4.136   6.495  11.768  0.0994  0.6752  0.7003
 4445TIP3    H234827   4.061   6.398  11.679  1.2111 -0.2574  0.7612
 4446TIP3   OH234828   4.730   4.010  17.076  0.2018 -0.2249  0.2819
 4446TIP3    H134829   4.707   3.949  17.147 -0.1017  0.8415  1.1357
 4446TIP3    H234830   4.807   4.056  17.108 -0.2090  0.5907  0.1306
 4447TIP3   OH234831   4.255   5.313   3.816  0.2777 -0.6742  0.0865
 4447TIP3    H134832   4.184   5.313   3.879 -0.2858  0.4991 -0.5173
 4447TIP3    H234833   4.329   5.350   3.864  0.1234 -0.6832  0.3339
 4448TIP3   OH234834   1.072   5.361  16.652  0.0706  0.0952 -0.1194
 4448TIP3    H134835   1.079   5.354  16.748  0.4949 -3.0004 -0.2604
 4448TIP3    H234836   0.992   5.313  16.630  0.5254 -0.1405 -1.3556
 4449TIP3   OH234837   3.778   3.339  13.621  0.1442 -0.0771  0.6709
 4449TIP3    H134838   3.757   3.313  13.711  2.3672 -1.8045  0.7862
 4449TIP3    H234839   3.728   3.278  13.566  0.9692 -0.9391  0.8396
 4450TIP3   OH234840   6.241   3.472  13.124  0.0643  0.1129  0.2881
 4450TIP3    H134841   6.263   3.379  13.130 -0.6035 -0.0475  0.4154
 4450TIP3    H234842   6.176   3.476  13.054 -2.3255 -0.0255  2.3392
 4451TIP3   OH234843   4.247   6.479   4.909 -0.2842 -0.2599 -0.3188
 4451TIP3    H134844   4.216   6.393   4.938  1.6250 -1.1168 -0.6987
 4451TIP3    H234845   4.312   6.460   4.842 -2.8366  1.6091 -3.6536
 4452TIP3   OH234846   5.776   2.710  15.789 -0.4245 -0.6193 -0.5678
 4452TIP3    H134847   5.829   2.713  15.869 -0.1982 -1.4193 -0.6805
 4452TIP3    H234848   5.698   2.761  15.810  0.7576  1.3510 -0.6891
 4453TIP3   OH234849   1.519   3.373  14.407 -0.5578 -0.6493  0.1793
 4453TIP3    H134850   1.426   3.392  14.391 -0.8020 -2.1474 -0.3029
 4453TIP3    H234851   1.563   3.403  14.327 -0.1700  2.6436  1.4453
 4454TIP3   OH234852   6.563   2.796   2.651  0.2924  0.3075 -0.3291
 4454TIP3    H134853   6.515   2.742   2.588  0.0502 -0.0673  0.1757
 4454TIP3    H234854   6.587   2.875   2.601  1.7119 -0.7561 -1.4477
 4455TIP3   OH234855   1.127   5.496   6.552  0.5719 -0.0041  0.4456
 4455TIP3    H134856   1.124   5.526   6.462  1.4874  2.8136  1.2477
 4455TIP3    H234857   1.041   5.516   6.588 -0.0362 -1.7732  0.0785
 4456TIP3   OH234858   3.083   1.457   3.325 -0.0576 -0.3437 -0.9136
 4456TIP3    H134859   3.145   1.526   3.305  0.3629  0.0183  1.3790
 4456TIP3    H234860   3.000   1.489   3.290 -0.0455  1.7721  0.7425
 4457TIP3   OH234861   2.838   6.512   3.330  0.0418 -0.3294 -0.3894
 4457TIP3    H134862   2.848   6.440   3.392  0.7659 -0.3643 -0.5339
 4457TIP3    H234863   2.848   6.472   3.244 -0.1681 -0.1553 -0.4972
 4458TIP3   OH234864   2.984   4.882  13.306 -0.0245  0.3014 -0.3958
 4458TIP3    H134865   3.064   4.921  13.273 -0.3975  1.9917  0.5994
 4458TIP3    H234866   2.999   4.870  13.400 -0.2017 -1.3156 -0.5359
 4459TIP3   OH234867   2.902   5.500  14.591 -0.2301 -0.5246 -0.2595
 4459TIP3    H134868   2.863   5.467  14.510 -0.1985 -0.6279 -0.2316
 4459TIP3    H234869   2.882   5.594  14.589  0.3408 -0.4045 -0.7145
 4460TIP3   OH234870   5.039   2.459   0.386  0.3109 -0.1043  0.1523
 4460TIP3    H134871   5.106   2.522   0.361  0.2256  0.4350  1.2272
 4460TIP3    H234872   5.029   2.403   0.309  0.9014  0.7460 -0.5666
 4461TIP3   OH234873   3.750   3.109  11.735 -0.0263 -0.4315 -0.1046
 4461TIP3    H134874   3.756   3.076  11.646  0.5409 -0.3493 -0.0991
 4461TIP3    H234875   3.801   3.190  11.735  0.5227 -0.7682  0.4489
 4462TIP3   OH234876   6.772   2.280   5.373 -0.4916  0.0069 -0.0787
 4462TIP3    H134877   6.787   2.246   5.462 -0.5583  1.1273  0.3776
 4462TIP3    H234878   6.708   2.220   5.335  0.4271 -1.1851  0.1976
 4463TIP3   OH234879   6.818   3.596  11.964 -0.5192  0.1067 -0.4925
 4463TIP3    H134880   6.912   3.609  11.976  0.1046 -3.1636 -0.9546
 4463TIP3    H234881   6.788   3.559  12.047 -1.3089  0.4973 -0.5868
 4464TIP3   OH234882   6.760   1.279  15.983  0.1507  0.2569 -0.1347
 4464TIP3    H134883   6.765   1.343  15.912  0.4323  2.3421  1.6202
 4464TIP3    H234884   6.851   1.262  16.006  0.0872 -1.0339 -0.7416
 4465TIP3   OH234885   4.619   6.755   2.655  0.0255 -0.2792  0.2501
 4465TIP3    H134886   4.553   6.824   2.661 -0.2052 -0.3922 -0.7754
 4465TIP3    H234887   4.607   6.704   2.735 -0.1262  0.5765  0.7872
 4466TIP3   OH234888   6.011   5.889  16.062  0.1461  0.0088  0.3401
 4466TIP3    H134889   5.937   5.949  16.073 -1.0423 -1.2932 -0.1151
 4466TIP3    H234890   5.971   5.802  16.067  1.5982 -0.7314 -0.3777
 4467TIP3   OH234891   5.967   6.314  14.283  0.1079 -0.5950  0.1008
 4467TIP3    H134892   5.937   6.401  14.256  1.9596 -0.3488 -1.3469
 4467TIP3    H234893   6.061   6.325  14.301  0.4143 -2.3055 -0.2551
 4468TIP3   OH234894   0.087   2.515  15.179 -0.5782 -0.3836 -0.0504
 4468TIP3    H134895   0.065   2.596  15.133  2.5652  1.0558  0.7320
 4468TIP3    H234896   0.051   2.527  15.267  1.1301  0.8779  0.5127
 4469TIP3   OH234897   5.251   4.994  11.143 -0.5691 -0.1044  0.0727
 4469TIP3    H134898   5.307   4.917  11.153  1.4755  1.1395 -1.1078
 4469TIP3    H234899   5.168   4.959  11.111  0.6601 -1.7506 -1.5217
 4470TIP3   OH234900   5.962   3.142  13.152  0.3560  0.0877  0.0845
 4470TIP3    H134901   6.045   3.122  13.195  0.5726  0.0166 -0.3669
 4470TIP3    H234902   5.914   3.060  13.152 -0.9635  0.7197  3.0019
 4471TIP3   OH234903   0.751   0.815  16.922  0.2384  0.0951  0.3041
 4471TIP3    H134904   0.750   0.867  17.002  0.1084  0.4053  0.1048
 4471TIP3    H234905   0.839   0.778  16.917 -0.5006 -2.0799  1.9591
 4472TIP3   OH234906   0.326   3.590  12.220  0.1497 -0.3726 -0.2117
 4472TIP3    H134907   0.342   3.672  12.267  1.8410 -0.6423 -0.2463
 4472TIP3    H234908   0.303   3.617  12.131  0.3276  0.0675 -0.1256
 4473TIP3   OH234909   1.605   2.313  12.539 -0.2089 -0.1706  0.5247
 4473TIP3    H134910   1.670   2.367  12.585  2.1287 -1.0141 -1.5737
 4473TIP3    H234911   1.562   2.374  12.479  1.5602 -0.2864 -0.9577
 4474TIP3   OH234912   0.883   2.368   4.223  0.7940 -0.2163 -0.3153
 4474TIP3    H134913   0.863   2.456   4.252  0.0588 -0.2714 -0.6390
 4474TIP3    H234914   0.941   2.379   4.148 -0.8090  0.0690 -1.5572
 4475TIP3   OH234915   6.665   3.428  15.912 -0.2396 -0.1742  0.2504
 4475TIP3    H134916   6.649   3.512  15.953  2.3775  0.1644  0.7600
 4475TIP3    H234917   6.732   3.445  15.846 -0.5987 -1.6238 -0.5408
 4476TIP3   OH234918   4.028   6.708  14.247 -0.0866 -0.3057 -0.4238
 4476TIP3    H134919   3.979   6.788  14.262 -0.8752 -0.7934 -0.3481
 4476TIP3    H234920   4.110   6.721  14.294 -1.3381 -0.6711  2.0481
 4477TIP3   OH234921   6.622   4.547   3.499 -0.8274 -0.3074  0.0373
 4477TIP3    H134922   6.593   4.613   3.561 -4.3341 -0.9843 -0.6617
 4477TIP3    H234923   6.669   4.483   3.551 -0.5196  0.9429  1.3350
 4478TIP3   OH234924   4.250   3.625   5.603 -0.3993  0.1995 -0.0613
 4478TIP3    H134925   4.215   3.590   5.521 -0.0340 -0.4053  0.0347
 4478TIP3    H234926   4.304   3.554   5.638  1.0876  1.1791 -0.3052
 4479TIP3   OH234927   2.905   1.672  16.340  0.2831 -0.4598 -0.7103
 4479TIP3    H134928   2.897   1.620  16.421  0.2087 -1.0295 -1.0733
 4479TIP3    H234929   2.821   1.718  16.333  1.4771  2.3124  1.3221
 4480TIP3   OH234930   1.690   3.724  11.635  0.3270 -0.1128 -0.2907
 4480TIP3    H134931   1.649   3.743  11.551  0.2589  3.0777  0.3317
 4480TIP3    H234932   1.617   3.697  11.692 -0.2402  1.1561 -0.3791
 4481TIP3   OH234933   3.095   0.328   6.084 -0.1636 -0.2421 -0.4599
 4481TIP3    H134934   3.025   0.387   6.112  0.3021  0.3471 -0.5085
 4481TIP3    H234935   3.140   0.303   6.165  1.6712  2.0766 -0.6304
 4482TIP3   OH234936   1.968   0.826   3.546  0.4672 -0.3470  0.2941
 4482TIP3    H134937   1.901   0.856   3.607  0.4549 -0.7403  0.4753
 4482TIP3    H234938   2.051   0.856   3.583  0.3202  1.3095 -0.6022
 4483TIP3   OH234939   6.307   1.804   2.535 -0.4050  0.3073 -0.5347
 4483TIP3    H134940   6.366   1.787   2.462 -1.1570 -1.5071 -0.7547
 4483TIP3    H234941   6.257   1.881   2.507  0.5469  0.7244 -1.1400
 4484TIP3   OH234942   3.529   4.969   4.653  0.3520 -0.0756  0.2311
 4484TIP3    H134943   3.505   5.047   4.604  0.2008 -0.0600  0.3311
 4484TIP3    H234944   3.446   4.926   4.672  0.4128 -0.0974  0.4501
 4485TIP3   OH234945   3.192   0.016  14.326  0.3048  0.0317 -0.9475
 4485TIP3    H134946   3.159   0.101  14.295 -1.6006 -0.0650  0.6372
 4485TIP3    H234947   3.123  -0.046  14.303  0.3580 -0.5809  0.4346
 4486TIP3   OH234948   2.163   0.024   3.305 -0.8444  0.8885 -0.0153
 4486TIP3    H134949   2.209  -0.059   3.294 -0.9075  0.8807 -0.2218
 4486TIP3    H234950   2.190   0.076   3.229 -0.4865  1.2047  0.3206
 4487TIP3   OH234951   5.723   5.061   0.109 -0.1691  0.5735  0.8553
 4487TIP3    H134952   5.789   5.023   0.166 -0.4290 -0.2034  0.6460
 4487TIP3    H234953   5.735   5.016   0.025  2.3668  3.8937 -0.8004
 4488TIP3   OH234954   0.496   0.706  15.654  0.6231 -0.1840 -0.1382
 4488TIP3    H134955   0.410   0.711  15.694  0.8875 -1.4042  0.6092
 4488TIP3    H234956   0.542   0.784  15.686 -0.2068  0.5275 -0.6247
 4489TIP3   OH234957   4.889   2.582  13.034  0.0215  0.1913 -0.1137
 4489TIP3    H134958   4.828   2.648  13.001 -1.0876 -1.2780 -1.1295
 4489TIP3    H234959   4.964   2.633  13.065 -0.9066  1.9410 -0.5673
 4490TIP3   OH234960   5.726   5.552   0.030 -0.3878 -0.1813  0.0973
 4490TIP3    H134961   5.785   5.518  -0.037  1.4404  0.4510  1.2932
 4490TIP3    H234962   5.730   5.486   0.100  0.7971  0.9732  1.1632
 4491TIP3   OH234963   1.834   6.462  11.142  0.0047 -0.0496 -0.1250
 4491TIP3    H134964   1.875   6.460  11.056  0.7138 -1.5543  0.2092
 4491TIP3    H234965   1.741   6.476  11.125  0.1184 -0.5020 -1.1435
 4492TIP3   OH234966   0.904   0.229   2.158 -0.3276 -0.4703 -0.3066
 4492TIP3    H134967   0.952   0.261   2.082 -1.3187 -1.2555 -1.3058
 4492TIP3    H234968   0.853   0.305   2.188  2.1152  0.6641  1.3648
 4493TIP3   OH234969   1.311   1.306   2.565  0.7428 -0.0230  0.0275
 4493TIP3    H134970   1.340   1.372   2.629  2.3644 -0.1976 -0.4744
 4493TIP3    H234971   1.323   1.349   2.480  2.4417 -1.1436 -0.3407
 4494TIP3   OH234972   1.985   6.412   3.140 -0.2368 -0.3443 -0.3363
 4494TIP3    H134973   2.014   6.342   3.081  1.7760  1.1938 -1.3051
 4494TIP3    H234974   2.034   6.396   3.221 -0.7461 -0.7657 -0.1073
 4495TIP3   OH234975   3.363   1.911  12.817 -0.0862 -0.1147  0.0398
 4495TIP3    H134976   3.286   1.862  12.788  0.8769 -0.8569 -1.3397
 4495TIP3    H234977   3.436   1.873  12.768  1.2085  0.4255  1.4766
 4496TIP3   OH234978   0.714   4.300  13.323 -0.3286  0.2363 -0.4253
 4496TIP3    H134979   0.805   4.287  13.298  0.2938  2.0137  0.6229
 4496TIP3    H234980   0.699   4.394  13.309 -1.2026  0.4771  1.6758
 4497TIP3   OH234981   4.283   1.053   5.485 -0.1454  0.0206 -0.4251
 4497TIP3    H134982   4.340   1.094   5.550  0.5316 -1.4832 -0.0374
 4497TIP3    H234983   4.257   0.970   5.524  0.4276 -1.0014 -2.1153
 4498TIP3   OH234984   3.855   2.785  12.522 -0.3922  0.1495 -0.6159
 4498TIP3    H134985   3.812   2.704  12.551  0.2868 -0.9812 -2.5719
 4498TIP3    H234986   3.805   2.813  12.446  0.9115  0.0815 -1.5407
 4499TIP3   OH234987   3.427   6.084   5.886 -0.1326 -0.2933  0.3431
 4499TIP3    H134988   3.349   6.031   5.905  0.2577 -1.0527 -0.1358
 4499TIP3    H234989   3.500   6.022   5.890  0.6344  0.6722  2.1162
 4500TIP3   OH234990   0.237   4.587   0.757  0.0015  0.2394  0.0856
 4500TIP3    H134991   0.163   4.554   0.705  0.4175 -1.2797  0.4257
 4500TIP3    H234992   0.289   4.638   0.695 -1.3109  1.3489 -0.1598
 4501TIP3   OH234993   6.029   2.101   5.134 -0.6377 -0.2192  0.1719
 4501TIP3    H134994   6.042   2.118   5.041 -3.7103 -0.8904 -0.4632
 4501TIP3    H234995   6.108   2.053   5.160  0.6812  0.7239 -1.8249
 4502TIP3   OH234996   0.813   2.029  12.474  0.2314  0.2521  0.2757
 4502TIP3    H134997   0.820   1.998  12.565 -3.8556  1.0799  1.0786
 4502TIP3    H234998   0.859   2.112  12.474  0.6475  0.0481  1.4743
 4503TIP3   OH234999   0.768   4.245  13.888 -1.2021 -0.3790  0.1530
 4503TIP3    H135000   0.803   4.300  13.818  0.4430 -0.9168  0.4888
 4503TIP3    H235001   0.689   4.290  13.917 -0.9158  0.8099 -0.8308
 4504TIP3   OH235002   4.762   3.169   0.893  0.1087  0.1457  0.4491
 4504TIP3    H135003   4.854   3.195   0.890 -0.1217  1.3164  1.9763
 4504TIP3    H235004   4.761   3.092   0.951 -0.1169  1.6624  2.5679
 4505TIP3   OH235005   0.796   6.463  12.928  0.2452 -0.2297  0.0106
 4505TIP3    H135006   0.866   6.495  12.985 -0.0862  0.3027  0.1237
 4505TIP3    H235007   0.751   6.542  12.898  1.2845 -0.4017 -2.1341
 4506TIP3   OH235008   5.204   4.717   2.808  0.2780  0.0616  0.4823
 4506TIP3    H135009   5.140   4.764   2.754 -0.0080 -0.2525  0.5443
 4506TIP3    H235010   5.174   4.626   2.807 -2.1867  0.6045  4.4981
 4507TIP3   OH235011   3.427   4.851  10.930  0.0903 -0.2830  0.2366
 4507TIP3    H135012   3.361   4.828  10.865  0.9737  0.5108 -0.9823
 4507TIP3    H235013   3.376   4.880  11.006 -0.9632 -1.8476  0.1685
 4508TIP3   OH235014   2.676   3.770  13.997 -0.5292 -0.0470 -0.1654
 4508TIP3    H135015   2.638   3.858  13.987 -0.1117  0.1541  0.0191
 4508TIP3    H235016   2.603   3.711  13.978 -0.1823  0.2944 -2.9683
 4509TIP3   OH235017   1.612   5.977  12.861  0.1871  0.6344  0.8869
 4509TIP3    H135018   1.526   6.020  12.867 -0.4506 -0.4771  0.1843
 4509TIP3    H235019   1.618   5.925  12.942  0.1249  0.5837  0.8595
 4510TIP3   OH235020   2.553   2.052  11.633  0.1459 -0.1705  0.3268
 4510TIP3    H135021   2.600   1.980  11.677 -0.4100 -0.1822  0.9141
 4510TIP3    H235022   2.600   2.131  11.661 -1.6272  0.0675  2.9602
 4511TIP3   OH235023   2.609   2.849   4.403  0.3428 -0.3092  0.2559
 4511TIP3    H135024   2.594   2.800   4.484  3.8264 -1.8610  0.1440
 4511TIP3    H235025   2.552   2.808   4.339  0.2343 -1.5447  1.1203
 4512TIP3   OH235026   1.358   1.930   3.170  0.2269  0.3733 -0.2392
 4512TIP3    H135027   1.447   1.896   3.178  0.2856  0.7516  0.8333
 4512TIP3    H235028   1.305   1.853   3.150  0.5815 -0.1032  0.6247
 4513TIP3   OH235029   2.971   3.234   1.031 -0.8527  0.5637  0.0237
 4513TIP3    H135030   2.899   3.245   0.969 -0.4222  1.1568 -0.3792
 4513TIP3    H235031   3.016   3.319   1.032  0.6316 -0.1648 -0.7402
 4514TIP3   OH235032   1.479   4.463  14.896  0.0493  0.3967  0.6102
 4514TIP3    H135033   1.385   4.447  14.886  0.0989  0.1706  0.5002
 4514TIP3    H235034   1.509   4.391  14.952  0.2389  0.2164  0.2750
 4515TIP3   OH235035   6.779   2.440  11.961 -0.0663 -0.2960 -0.2639
 4515TIP3    H135036   6.803   2.384  12.036 -1.0605 -1.1248 -0.5479
 4515TIP3    H235037   6.858   2.440  11.906  0.9544  0.9375  1.1131
 4516TIP3   OH235038   4.659   5.992   0.888 -0.2589  0.3881  0.1400
 4516TIP3    H135039   4.619   6.068   0.929 -2.2518 -1.3012  1.5257
 4516TIP3    H235040   4.596   5.964   0.822  0.2620 -0.2840 -0.0837
 4517TIP3   OH235041   6.316   4.975  12.737  0.1781  0.0654  0.2974
 4517TIP3    H135042   6.398   5.000  12.781  1.4451 -2.3885 -0.4804
 4517TIP3    H235043   6.278   4.909  12.794 -0.1076 -0.4288 -0.4598
 4518TIP3   OH235044   3.486   2.925   3.188  0.0886 -0.1307  0.1828
 4518TIP3    H135045   3.404   2.890   3.156  0.6139 -0.3059 -1.0302
 4518TIP3    H235046   3.493   2.894   3.278 -1.5175  0.5362  0.5617
 4519TIP3   OH235047   1.596   4.699  14.529  0.4524 -0.3878 -0.5335
 4519TIP3    H135048   1.652   4.699  14.451  1.0576 -2.3098 -0.1606
 4519TIP3    H235049   1.608   4.786  14.567  0.2334  0.5636 -2.4788
 4520TIP3   OH235050   1.551   0.634  16.218 -0.3628 -0.2523  0.0932
 4520TIP3    H135051   1.551   0.615  16.124  1.3649  3.4571 -0.8301
 4520TIP3    H235052   1.643   0.651  16.239 -0.7131 -0.9709  2.5236
 4521TIP3   OH235053   5.561   0.917  16.263 -0.1288 -0.8484  0.1477
 4521TIP3    H135054   5.507   0.844  16.294  0.8685 -1.3859  0.6671
 4521TIP3    H235055   5.607   0.948  16.341 -0.9604  0.7238  0.0398
 4522TIP3   OH235056   5.456   5.356  17.164 -0.5301  0.0523 -0.4615
 4522TIP3    H135057   5.551   5.352  17.150 -0.0070 -1.6269  2.6612
 4522TIP3    H235058   5.444   5.427  17.226 -1.1690 -0.4013 -0.0547
 4523TIP3   OH235059   4.602   0.976   3.624 -0.2660 -0.2600 -0.3718
 4523TIP3    H135060   4.612   0.885   3.655 -0.5732 -0.9088 -2.0754
 4523TIP3    H235061   4.685   0.997   3.581  0.2172  0.6905  0.9615
 4524TIP3   OH235062   6.622   1.027   3.968  0.1442 -0.1164 -0.1104
 4524TIP3    H135063   6.673   1.008   4.046 -0.6391  3.1426  1.3712
 4524TIP3    H235064   6.535   0.991   3.986  0.2018 -0.1206  0.1563
 4525TIP3   OH235065   6.316   2.024  11.178  0.3452 -0.5329  0.4208
 4525TIP3    H135066   6.338   2.007  11.087 -0.8536  0.6911 -0.1280
 4525TIP3    H235067   6.237   1.973  11.194  0.0853 -0.1001  0.5239
 4526TIP3   OH235068   1.489   4.317  16.823 -0.0882 -0.0541 -0.3145
 4526TIP3    H135069   1.566   4.315  16.880 -1.8764 -0.1046  2.2234
 4526TIP3    H235070   1.458   4.227  16.821 -2.4521  0.6069  2.1979
 4527TIP3   OH235071   4.225   0.704   1.211  0.2845  0.2167 -0.2484
 4527TIP3    H135072   4.167   0.633   1.237  1.6573 -0.8729 -0.0020
 4527TIP3    H235073   4.301   0.660   1.173  1.2322  1.5544  0.0143
 4528TIP3   OH235074   6.537   6.058   1.249 -0.1002 -0.0591 -0.4291
 4528TIP3    H135075   6.493   6.128   1.201  0.2528  0.3330 -0.1914
 4528TIP3    H235076   6.532   6.086   1.341  0.3360 -0.1794 -0.3687
 4529TIP3   OH235077   3.451   1.131   5.282 -0.0776  0.3758 -0.5149
 4529TIP3    H135078   3.421   1.088   5.201 -2.5786 -0.1908  0.6120
 4529TIP3    H235079   3.438   1.065   5.350  1.2172  1.1265  0.5080
 4530TIP3   OH235080   4.952   5.725  13.918 -0.0675  0.6335 -0.0147
 4530TIP3    H135081   4.891   5.658  13.887 -0.5385  2.3007 -3.0833
 4530TIP3    H235082   5.037   5.682  13.915 -0.6008 -0.5070  0.3771
 4531TIP3   OH235083   0.234   3.189   4.496  0.6362 -0.3960 -0.0776
 4531TIP3    H135084   0.168   3.258   4.504  0.3765 -0.6432 -0.0883
 4531TIP3    H235085   0.317   3.236   4.499  0.4615 -0.0790 -0.0918
 4532TIP3   OH235086   1.622   3.814  15.907  0.6008  0.4909 -0.0925
 4532TIP3    H135087   1.670   3.880  15.858  0.1860  0.2201 -0.8795
 4532TIP3    H235088   1.555   3.783  15.846  0.0167  0.2104  0.6782
 4533TIP3   OH235089   2.546   5.812  13.851  0.5855 -0.2854 -0.5697
 4533TIP3    H135090   2.530   5.868  13.927  0.3122 -0.9557 -0.1286
 4533TIP3    H235091   2.518   5.865  13.777 -0.7081 -0.2401 -0.0711
 4534TIP3   OH235092   0.920   2.771   1.910  0.2508  0.0594 -0.2520
 4534TIP3    H135093   1.016   2.773   1.908  0.7274 -5.0246  2.1500
 4534TIP3    H235094   0.897   2.820   1.989  1.3570 -1.9509  1.4164
 4535TIP3   OH235095   4.750   6.518  12.422 -0.2878  0.2964  0.1738
 4535TIP3    H135096   4.689   6.587  12.396 -0.2206 -0.0117 -0.8324
 4535TIP3    H235097   4.715   6.486  12.505 -0.5014  1.3163  0.4930
 4536TIP3   OH235098   4.661   4.479  15.062 -0.4599 -0.7025  0.2953
 4536TIP3    H135099   4.666   4.551  14.999  1.8762 -0.0485  1.1324
 4536TIP3    H235100   4.658   4.400  15.008  0.4824 -0.1071 -0.6558
 4537TIP3   OH235101   4.108   4.349   5.442  0.1123 -0.3577  0.0865
 4537TIP3    H135102   4.182   4.399   5.407 -1.1584  1.0111 -0.7984
 4537TIP3    H235103   4.129   4.338   5.535  1.8663 -0.8993 -0.3277
 4538TIP3   OH235104   2.278   0.955  13.589  0.5251 -0.0308 -0.1230
 4538TIP3    H135105   2.324   0.944  13.506  1.0600 -2.4329  0.4199
 4538TIP3    H235106   2.187   0.974  13.563  0.8071 -0.1432 -1.2484
 4539TIP3   OH235107   0.480   2.030  14.783  0.6784  0.1216 -0.0728
 4539TIP3    H135108   0.388   2.003  14.783  0.3863  1.0394  0.6542
 4539TIP3    H235109   0.529   1.949  14.769 -0.2666 -0.1671 -1.9908
 4540TIP3   OH235110   3.540   4.486  11.696  0.5652  0.2615  0.0211
 4540TIP3    H135111   3.623   4.448  11.666 -0.8063 -1.0556 -2.5064
 4540TIP3    H235112   3.474   4.446  11.639 -1.8076  1.3846  1.8187
 4541TIP3   OH235113   1.432   3.321   0.814  0.2004  0.4062  0.3497
 4541TIP3    H135114   1.437   3.231   0.781  1.2640  1.0500 -1.4273
 4541TIP3    H235115   1.488   3.322   0.891 -0.6671 -0.6908  1.0126
 4542TIP3   OH235116   4.141   1.629   2.060  0.2469 -0.1937 -0.2461
 4542TIP3    H135117   4.151   1.590   1.973  0.5033  1.5863 -1.0757
 4542TIP3    H235118   4.063   1.587   2.097 -0.8256  0.1449 -2.0052
 4543TIP3   OH235119   2.428   0.537   1.402  0.1779  0.2143  0.3217
 4543TIP3    H135120   2.471   0.462   1.363 -1.1566 -0.3092 -0.2143
 4543TIP3    H235121   2.345   0.545   1.354 -1.0060  0.2612  2.2437
 4544TIP3   OH235122   4.589   1.707   1.094 -0.4556 -0.5823  0.7777
 4544TIP3    H135123   4.534   1.629   1.096  0.2888 -1.1078  0.9148
 4544TIP3    H235124   4.678   1.674   1.103 -0.1717  0.3286  1.4223
 4545TIP3   OH235125   5.742   2.761  13.646 -0.8754  0.3427 -0.3896
 4545TIP3    H135126   5.760   2.831  13.583  1.2346  1.1219  0.9755
 4545TIP3    H235127   5.684   2.801  13.711 -0.2811  0.6098 -0.0167
 4546TIP3   OH235128   4.456   6.287   6.898  0.5914 -0.2498  0.4141
 4546TIP3    H135129   4.549   6.271   6.912  1.0098  1.3273 -0.2891
 4546TIP3    H235130   4.429   6.222   6.833  0.9690 -1.2544  1.2283
 4547TIP3   OH235131   3.290   1.100   2.001  0.2944 -0.2104  0.9103
 4547TIP3    H135132   3.290   1.194   2.016 -0.4758  0.1336 -0.9408
 4547TIP3    H235133   3.268   1.062   2.086  0.6709  1.2624  1.6929
 4548TIP3   OH235134   5.583   2.856  14.686  0.5953 -0.0908  0.6337
 4548TIP3    H135135   5.653   2.796  14.660  0.3724  0.2952 -0.9388
 4548TIP3    H235136   5.521   2.801  14.734 -0.1250 -1.4085 -1.6454
 4549TIP3   OH235137   4.434   6.629   4.636 -0.7806 -0.2191 -0.1052
 4549TIP3    H135138   4.510   6.633   4.578 -1.1396  2.1246 -0.4914
 4549TIP3    H235139   4.434   6.539   4.669  1.1456 -0.7614 -1.4237
 4550TIP3   OH235140   3.358   3.747   5.714 -0.0872 -0.5363  0.6800
 4550TIP3    H135141   3.409   3.675   5.749 -0.6865 -0.2534  2.2381
 4550TIP3    H235142   3.277   3.746   5.765 -1.2501 -0.3925 -1.0702
 4551TIP3   OH235143   0.328   6.154   6.062 -0.2090  0.6237  0.8016
 4551TIP3    H135144   0.264   6.191   6.123  0.2139  0.6039  1.2583
 4551TIP3    H235145   0.388   6.104   6.117 -0.7979 -0.8040  0.1899
 4552TIP3   OH235146   3.946   5.943  11.792 -0.4385 -0.8084 -0.0186
 4552TIP3    H135147   4.027   5.993  11.779 -0.4054 -1.1025 -1.0987
 4552TIP3    H235148   3.927   5.951  11.885 -0.4815  1.3100 -0.1490
 4553TIP3   OH235149   1.527   5.208  10.752 -0.0955 -0.7394 -0.4158
 4553TIP3    H135150   1.604   5.158  10.725 -0.0369 -0.7014 -0.3199
 4553TIP3    H235151   1.556   5.299  10.753  0.0960 -0.7963  0.4117
 4554TIP3   OH235152   2.980   4.391   5.873  0.4492  0.3554 -0.0180
 4554TIP3    H135153   2.923   4.316   5.855  0.2766 -0.0351  1.9751
 4554TIP3    H235154   3.036   4.361   5.945  1.2336  1.7225 -0.0382
 4555TIP3   OH235155   5.390   0.211  13.630  0.4118 -0.1796 -0.3660
 4555TIP3    H135156   5.481   0.242  13.632  0.9122 -1.5324 -1.2274
 4555TIP3    H235157   5.386   0.151  13.556 -0.7057 -1.5839  0.7725
 4556TIP3   OH235158   4.122   0.342  14.387  0.2661  0.1259 -0.1281
 4556TIP3    H135159   4.139   0.410  14.323  0.3944 -0.2260 -0.4762
 4556TIP3    H235160   4.204   0.292  14.391 -0.1402 -0.5966 -0.6024
 4557TIP3   OH235161   4.641   1.219  13.546 -0.3400  0.4757 -0.1439
 4557TIP3    H135162   4.648   1.287  13.478  1.7869 -0.0175 -0.5029
 4557TIP3    H235163   4.645   1.137  13.498 -0.7408  0.1124  0.4396
 4558TIP3   OH235164   1.153   3.073  12.985  0.0289 -0.1891 -0.4559
 4558TIP3    H135165   1.077   3.111  13.028  0.4491 -1.6248  1.7450
 4558TIP3    H235166   1.137   2.978  12.987  2.6039 -0.7001  1.7547
 4559TIP3   OH235167   5.837   1.873  13.700 -0.4966  0.1807  0.1623
 4559TIP3    H135168   5.847   1.932  13.626 -0.7311 -1.1120 -0.9297
 4559TIP3    H235169   5.921   1.878  13.746 -0.6763  1.7048  0.3760
 4560TIP3   OH235170   5.512   2.178   2.298 -1.0440  0.1223  0.7147
 4560TIP3    H135171   5.437   2.128   2.333 -0.9439 -0.7011 -0.2096
 4560TIP3    H235172   5.566   2.112   2.255 -0.5665  0.9420  0.0437
 4561TIP3   OH235173   2.377   3.201   5.718  0.7837  0.0233  0.6551
 4561TIP3    H135174   2.392   3.259   5.793 -0.2971  0.6403  0.4161
 4561TIP3    H235175   2.300   3.149   5.743  0.4242  0.2294 -0.0188
 4562TIP3   OH235176   6.754   4.556   5.679  0.2438 -0.0419 -0.0321
 4562TIP3    H135177   6.707   4.487   5.633 -0.4429 -0.8150  1.7245
 4562TIP3    H235178   6.789   4.513   5.757  2.1394  1.0000 -0.2621
 4563TIP3   OH235179   0.127   6.391   4.430 -0.1320  0.5250  0.0454
 4563TIP3    H135180   0.178   6.345   4.497  0.2842  0.0535 -0.5810
 4563TIP3    H235181   0.188   6.402   4.358 -0.9030  0.0135 -0.6998
 4564TIP3   OH235182   5.182   6.445   5.332 -0.5027  0.3457  0.1143
 4564TIP3    H135183   5.209   6.456   5.424 -1.6038 -1.3794  0.6895
 4564TIP3    H235184   5.213   6.357   5.309  1.0467  1.2907 -1.6895
 4565TIP3   OH235185   5.413   6.495   3.851 -0.2326  0.2581 -0.2371
 4565TIP3    H135186   5.414   6.404   3.879  0.1074  0.4943  0.5271
 4565TIP3    H235187   5.471   6.497   3.775  2.5287  0.4444  1.7247
 4566TIP3   OH235188   3.411   0.686  12.649 -0.0417 -0.4790  0.2687
 4566TIP3    H135189   3.426   0.621  12.580  0.8448 -0.1504  0.1359
 4566TIP3    H235190   3.322   0.669  12.679 -0.3035 -0.8818 -0.6913
 4567TIP3   OH235191   0.035   6.648  13.852 -0.0996 -0.3095 -0.1927
 4567TIP3    H135192   0.082   6.579  13.805  1.2223  0.2272  0.3233
 4567TIP3    H235193   0.000   6.604  13.929 -0.0786 -0.6043 -0.3478
 4568TIP3   OH235194   5.393   1.418  10.977 -0.1134  0.4678  0.1376
 4568TIP3    H135195   5.386   1.322  10.981 -1.1839  0.5401  0.2577
 4568TIP3    H235196   5.360   1.441  10.890 -0.8934  0.8060  0.5171
 4569TIP3   OH235197   4.542   0.365   6.891 -0.0773 -0.9069 -0.2483
 4569TIP3    H135198   4.574   0.453   6.870 -1.5370 -0.4810 -0.7954
 4569TIP3    H235199   4.473   0.348   6.826 -0.1940 -2.2404  0.1904
 4570TIP3   OH235200   6.368   3.201  13.030 -0.2262  0.2598 -0.1588
 4570TIP3    H135201   6.409   3.118  13.006  1.2428  1.1659 -0.9004
 4570TIP3    H235202   6.432   3.245  13.086 -0.8329  1.0532 -0.0584
 4571TIP3   OH235203   6.478   3.597   5.264  0.3027 -0.2126  0.1300
 4571TIP3    H135204   6.397   3.607   5.316 -0.2831 -0.7646 -0.6502
 4571TIP3    H235205   6.523   3.681   5.273 -0.3249  0.0753  0.6441
 4572TIP3   OH235206   6.667   3.354  15.362  0.5374 -0.2317  0.3635
 4572TIP3    H135207   6.740   3.356  15.299  0.2759 -2.0760 -0.0730
 4572TIP3    H235208   6.632   3.443  15.360  0.1138 -0.3410 -2.6603
 4573TIP3   OH235209   5.516   2.514  16.666  0.0711  0.2413 -0.4695
 4573TIP3    H135210   5.462   2.460  16.723 -0.1578 -0.1317 -1.0309
 4573TIP3    H235211   5.535   2.458  16.591  1.1950  0.3844 -0.3102
 4574TIP3   OH235212   1.758   3.459   4.185  0.5079  0.9464 -0.3814
 4574TIP3    H135213   1.777   3.456   4.279 -0.5744 -1.0495 -0.1732
 4574TIP3    H235214   1.827   3.406   4.145 -0.1067  0.2102 -0.4844
 4575TIP3   OH235215   6.485   6.412  11.422  0.2222 -0.2884  0.1709
 4575TIP3    H135216   6.465   6.404  11.515  1.3595  1.3253  0.5991
 4575TIP3    H235217   6.518   6.501  11.412 -0.8940 -0.0423 -1.9842
 4576TIP3   OH235218   2.712   5.081   6.794  0.1944 -0.1863  0.6178
 4576TIP3    H135219   2.795   5.117   6.824  0.4775 -0.6463  0.4095
 4576TIP3    H235220   2.655   5.157   6.780  1.0108  0.2348 -0.5280
 4577TIP3   OH235221   2.130   1.666   4.817 -0.2869  0.2426 -0.2775
 4577TIP3    H135222   2.211   1.663   4.867 -0.2905 -0.7578 -0.3109
 4577TIP3    H235223   2.081   1.589   4.845 -1.3332  0.9453 -0.0913
 4578TIP3   OH235224   4.934   1.629   0.271 -0.6055 -0.2589  0.2968
 4578TIP3    H135225   4.918   1.534   0.273  0.6031 -0.4797  0.0282
 4578TIP3    H235226   4.990   1.645   0.347  1.1852 -0.1606 -0.9881
 4579TIP3   OH235227   2.232   5.325   0.344 -0.0455  0.0506 -0.1254
 4579TIP3    H135228   2.299   5.356   0.406 -1.6651  0.6617  1.3886
 4579TIP3    H235229   2.151   5.327   0.394 -1.0265 -1.8728 -1.5404
 4580TIP3   OH235230   5.471   6.052   2.911  0.1647  0.0097 -0.0065
 4580TIP3    H135231   5.458   6.104   2.990  1.7872  1.0347 -0.3793
 4580TIP3    H235232   5.428   6.103   2.842 -0.0273 -0.1788 -0.0261
 4581TIP3   OH235233   2.626   1.637   4.024  0.2292  0.3336  0.0450
 4581TIP3    H135234   2.650   1.729   4.025 -2.9864  1.5876 -4.6961
 4581TIP3    H235235   2.541   1.634   4.068 -0.3450 -0.0319 -1.0470
 4582TIP3   OH235236   5.420   1.858   1.116  0.2936 -0.3484 -0.6995
 4582TIP3    H135237   5.420   1.953   1.101 -0.0073 -0.4372 -1.3299
 4582TIP3    H235238   5.511   1.831   1.101  0.6863  0.0199  0.8302
 4583TIP3   OH235239   0.117   3.713  15.811 -0.1953 -0.1827  0.0160
 4583TIP3    H135240   0.167   3.782  15.855 -0.7484  0.4855 -0.3897
 4583TIP3    H235241   0.026   3.729  15.836 -0.5661  0.4331 -1.6427
 4584TIP3   OH235242   4.768   5.395   3.345 -0.3430  0.5319  0.6322
 4584TIP3    H135243   4.781   5.434   3.432  1.0705 -0.5181  0.9148
 4584TIP3    H235244   4.781   5.301   3.358  2.4817  0.5674 -1.1346
 4585TIP3   OH235245   4.280   6.487  16.302  0.2389  0.1164  0.3333
 4585TIP3    H135246   4.282   6.489  16.398  1.7328  2.2146  0.3261
 4585TIP3    H235247   4.198   6.530  16.279 -0.1921 -0.5164  0.6510
 4586TIP3   OH235248   1.266   4.982   0.129  1.3023  0.2183 -0.0039
 4586TIP3    H135249   1.317   4.981   0.048 -1.4304  0.2592 -1.8875
 4586TIP3    H235250   1.199   4.915   0.115 -0.2789  1.3951  1.4795
 4587TIP3   OH235251   1.822   5.885  11.302  0.6553 -0.1680 -0.4054
 4587TIP3    H135252   1.756   5.838  11.251 -0.1838  0.3067  0.2177
 4587TIP3    H235253   1.818   5.846  11.389  1.4921 -0.4085 -0.4656
 4588TIP3   OH235254   6.353   4.852  11.552 -0.0665 -0.0139  0.2210
 4588TIP3    H135255   6.427   4.828  11.496  1.0116  0.6195  1.3203
 4588TIP3    H235256   6.303   4.915  11.500  0.9885  0.6710  0.0122
 4589TIP3   OH235257   1.404   5.657   1.992  0.3051 -0.1343 -0.1031
 4589TIP3    H135258   1.348   5.729   1.963 -0.1807 -0.3416  0.2870
 4589TIP3    H235259   1.430   5.681   2.081 -0.7386 -0.9165  0.4446
 4590TIP3   OH235260   5.000   3.877   3.509 -0.5065  0.4134  0.5241
 4590TIP3    H135261   4.931   3.847   3.451  0.6629  0.9709 -1.2521
 4590TIP3    H235262   4.997   3.973   3.503 -0.3039  0.4719  1.2973
 4591TIP3   OH235263   3.776   1.881   3.785 -0.3350 -0.7818 -0.4783
 4591TIP3    H135264   3.812   1.800   3.821  0.0511 -1.5487 -2.4203
 4591TIP3    H235265   3.681   1.868   3.784 -0.3266 -0.8695 -0.0212
 4592TIP3   OH235266   5.954   3.409  12.081  0.0364 -0.4478  0.5563
 4592TIP3    H135267   5.873   3.434  12.126 -0.5723 -1.1712 -0.1194
 4592TIP3    H235268   5.928   3.395  11.990  0.8007 -1.2892  0.4522
 4593TIP3   OH235269   2.556   0.012  13.140  0.5239  0.4501 -0.3789
 4593TIP3    H135270   2.518   0.057  13.065 -0.0595  1.6220  0.5768
 4593TIP3    H235271   2.620   0.075  13.175 -1.5832  1.4270  2.0595
 4594TIP3   OH235272   3.041   1.905  13.747  0.3112  0.4674  0.2681
 4594TIP3    H135273   3.028   1.907  13.652 -0.4362 -1.8370  0.2527
 4594TIP3    H235274   2.985   1.976  13.780  1.2378  1.8575 -1.0265
 4595TIP3   OH235275   2.416   5.895   2.346 -0.6660 -0.3200 -0.0235
 4595TIP3    H135276   2.469   5.936   2.278  0.2074  0.1853  0.9296
 4595TIP3    H235277   2.338   5.950   2.352 -1.2708 -0.9879 -1.3393
 4596TIP3   OH235278   1.043   4.550  11.394 -0.7230  0.1978  0.2694
 4596TIP3    H135279   0.965   4.575  11.444 -0.1311  0.5247  1.0491
 4596TIP3    H235280   1.033   4.593  11.309 -1.2853  0.4049  0.4415
 4597TIP3   OH235281   0.719   5.272   0.673 -0.3499 -0.2088  0.0518
 4597TIP3    H135282   0.801   5.223   0.665 -0.3758 -1.2252  3.7762
 4597TIP3    H235283   0.651   5.207   0.656 -0.3970  0.1069 -0.9901
 4598TIP3   OH235284   2.337   2.470  15.698 -0.1021  0.7724 -0.3425
 4598TIP3    H135285   2.275   2.432  15.760 -0.1125  0.9696 -0.2320
 4598TIP3    H235286   2.415   2.490  15.751  0.4608 -0.4374 -0.6699
 4599TIP3   OH235287   3.451   1.941  11.425 -0.3790 -0.9020  0.3744
 4599TIP3    H135288   3.367   1.910  11.391 -1.0257 -0.1414  1.2218
 4599TIP3    H235289   3.435   1.959  11.517  0.2916  0.7312  0.2060
 4600TIP3   OH235290   5.225   5.157   0.794  0.2924 -0.5574  0.7792
 4600TIP3    H135291   5.235   5.064   0.776 -1.6234 -0.2375 -3.0193
 4600TIP3    H235292   5.134   5.176   0.770  0.6777  2.3203  1.2683
 4601TIP3   OH235293   5.725   1.103  11.011 -0.0698  0.0178 -0.5289
 4601TIP3    H135294   5.746   1.071  10.924 -1.0611 -1.3305 -0.3072
 4601TIP3    H235295   5.775   1.047  11.071 -1.5102 -0.9314 -0.1523
 4602TIP3   OH235296   2.166   3.964   3.827  0.0181 -0.4376 -0.1305
 4602TIP3    H135297   2.194   3.975   3.918  0.3148  0.4560 -0.3261
 4602TIP3    H235298   2.160   4.053   3.792  0.8944 -0.8045 -1.2815
 4603TIP3   OH235299   5.043   2.662  13.831 -0.2410 -0.3096 -0.2974
 4603TIP3    H135300   5.136   2.646  13.811 -0.0672  0.8338 -0.4539
 4603TIP3    H235301   5.009   2.576  13.856  1.1873 -0.5273  1.0815
 4604TIP3   OH235302   4.390   2.644   6.094 -0.1311 -0.0490  0.3346
 4604TIP3    H135303   4.455   2.589   6.051 -0.6991 -1.3918  1.1240
 4604TIP3    H235304   4.423   2.653   6.184 -1.7295 -2.0839  1.2227
 4605TIP3   OH235305   0.083   6.739  16.624 -0.1760  0.0135 -0.6214
 4605TIP3    H135306   0.095   6.650  16.660 -1.3656 -0.5061 -1.4520
 4605TIP3    H235307   0.168   6.761  16.587  0.7659  0.0967  1.4340
 4606TIP3   OH235308   2.629   0.952  13.337  0.1771 -0.0482 -0.5656
 4606TIP3    H135309   2.642   0.891  13.409  1.1250 -0.0821 -0.7613
 4606TIP3    H235310   2.542   0.930  13.303 -0.1950 -0.1646  0.4270
 4607TIP3   OH235311   2.469   3.600  16.630 -0.1191 -0.4235 -0.4716
 4607TIP3    H135312   2.453   3.676  16.575  0.4217 -0.2340 -0.3673
 4607TIP3    H235313   2.384   3.580  16.668 -0.2212  0.2618 -0.3256
 4608TIP3   OH235314   1.549   3.775   5.106 -0.2852 -0.3503  0.5900
 4608TIP3    H135315   1.558   3.681   5.120 -0.4341 -0.5444 -0.5393
 4608TIP3    H235316   1.471   3.784   5.051 -1.5076  0.5999  2.3679
 4609TIP3   OH235317   6.159   3.557  13.762 -0.1814 -0.2433  0.1698
 4609TIP3    H135318   6.221   3.490  13.734 -0.6669 -0.7433  0.2791
 4609TIP3    H235319   6.135   3.603  13.681 -0.6581 -0.8955 -0.0691
 4610TIP3   OH235320   3.613   0.622  16.349 -0.2318 -0.3466  0.3267
 4610TIP3    H135321   3.586   0.695  16.405 -0.7340 -1.1800  1.1911
 4610TIP3    H235322   3.552   0.624  16.276  0.7408  1.0682 -0.5196
 4611TIP3   OH235323   2.575   4.447  14.219 -0.0530  0.1432  0.0820
 4611TIP3    H135324   2.663   4.411  14.208 -0.4612 -1.3003  1.2150
 4611TIP3    H235325   2.587   4.520  14.279  0.4164  0.1141  0.0313
 4612TIP3   OH235326   5.639   1.631  11.755 -0.6890  0.6176 -0.1068
 4612TIP3    H135327   5.569   1.693  11.733 -0.0118  1.4938  0.1245
 4612TIP3    H235328   5.618   1.601  11.843 -1.7263 -0.5088 -0.7092
 4613TIP3   OH235329   2.796   0.143   3.649  0.2356  0.2757 -0.0944
 4613TIP3    H135330   2.717   0.191   3.624  0.4153  0.3887 -0.4662
 4613TIP3    H235331   2.815   0.087   3.573 -0.2760 -0.7982  0.5402
 4614TIP3   OH235332   2.266   4.555   4.392  0.8009  0.2573 -0.2628
 4614TIP3    H135333   2.234   4.548   4.482 -1.1899  0.0774 -0.9289
 4614TIP3    H235334   2.187   4.553   4.338  1.9603 -0.0017 -2.0533
 4615TIP3   OH235335   4.706   4.072   1.683  0.1302  0.2177 -0.2057
 4615TIP3    H135336   4.680   4.139   1.746 -1.1642  0.6319 -1.1527
 4615TIP3    H235337   4.724   3.995   1.737 -2.0989  0.1969  0.6160
 4616TIP3   OH235338   3.770   5.916   1.825 -0.3853 -0.4336 -0.2814
 4616TIP3    H135339   3.679   5.920   1.793  0.3905  2.2968 -2.4800
 4616TIP3    H235340   3.813   5.856   1.765 -0.6872 -1.9339  0.9177
 4617TIP3   OH235341   4.827   6.746   4.171  0.3090 -0.5514 -0.7365
 4617TIP3    H135342   4.855   6.769   4.260 -1.6671  1.5115 -0.5626
 4617TIP3    H235343   4.894   6.785   4.114  0.0076  0.8145 -0.2087
 4618TIP3   OH235344   0.618   5.062  11.713 -0.5110 -0.0790  0.1515
 4618TIP3    H135345   0.612   5.047  11.807 -0.1828 -0.2358  0.1462
 4618TIP3    H235346   0.631   4.975  11.675 -1.3432 -0.1060 -0.0983
 4619TIP3   OH235347   1.419   6.562  15.895  0.1853 -0.5042 -0.0258
 4619TIP3    H135348   1.378   6.638  15.936 -2.6793 -1.5092 -0.7352
 4619TIP3    H235349   1.460   6.514  15.967 -0.1552  0.4221  0.8034
 4620TIP3   OH235350   2.154   4.449   0.701  0.3448 -0.0866  0.0501
 4620TIP3    H135351   2.238   4.494   0.694  0.7713 -0.2730  2.7959
 4620TIP3    H235352   2.089   4.515   0.677  1.1979  0.3339 -1.2065
 4621TIP3   OH235353   5.162   1.819  14.637  0.1254 -0.4566 -0.3394
 4621TIP3    H135354   5.184   1.898  14.687  0.8311  0.2697 -1.7350
 4621TIP3    H235355   5.116   1.763  14.699 -0.6314  1.1656  0.6324
 4622TIP3   OH235356   3.407   1.807   0.899 -0.1212  0.5234  0.1794
 4622TIP3    H135357   3.465   1.732   0.885  0.6602  1.3078 -0.9201
 4622TIP3    H235358   3.355   1.783   0.976  1.2167 -0.4691  0.8119
 4623TIP3   OH235359   1.615   4.423   0.186  0.0992  0.0939  0.6915
 4623TIP3    H135360   1.697   4.377   0.205  2.4983  2.5794 -2.3917
 4623TIP3    H235361   1.579   4.377   0.110 -0.0776  0.3615  0.6106
 4624TIP3   OH235362   3.764   4.848   4.891  0.6510  0.1857 -0.1511
 4624TIP3    H135363   3.742   4.791   4.818  1.4864 -2.7713  1.7405
 4624TIP3    H235364   3.683   4.895   4.911  0.3618  0.9556 -2.7513
 4625TIP3   OH235365   4.095   0.256  16.459  0.9981  0.4435  0.5251
 4625TIP3    H135366   4.168   0.194  16.469 -0.0734 -1.0985 -0.7159
 4625TIP3    H235367   4.018   0.201  16.447  0.1126  1.9734 -1.5219
 4626TIP3   OH235368   2.761   6.823  13.720  0.4367  0.1363 -0.9240
 4626TIP3    H135369   2.770   6.919  13.724  1.6517  0.0276 -0.7042
 4626TIP3    H235370   2.793   6.801  13.632  0.7730 -0.1253 -0.7351
 4627TIP3   OH235371   5.073   2.760   4.868 -0.1875  0.4522  0.3488
 4627TIP3    H135372   4.997   2.757   4.926 -0.3505 -0.4315  0.0971
 4627TIP3    H235373   5.052   2.700   4.797  0.2579  1.0909 -0.3367
 4628TIP3   OH235374   5.823   2.072  13.135  0.6239 -0.1368 -0.7178
 4628TIP3    H135375   5.768   2.150  13.144  2.1482  1.2603 -2.5268
 4628TIP3    H235376   5.770   2.010  13.085  0.1922  0.6262 -1.2219
 4629TIP3   OH235377   2.440   3.070  11.589 -0.1645  0.1273  0.1397
 4629TIP3    H135378   2.445   3.109  11.676  1.0403 -1.0743  0.6337
 4629TIP3    H235379   2.512   3.110  11.540  0.1955 -0.4340  0.2111
 4630TIP3   OH235380   5.210   5.186  11.856  0.0386  0.2524  0.2021
 4630TIP3    H135381   5.146   5.192  11.928 -1.1086  2.5460 -0.9301
 4630TIP3    H235382   5.278   5.248  11.880 -0.4298  1.1468 -0.7370
 4631TIP3   OH235383   5.916   0.371   4.940  0.0242 -0.7591 -0.2570
 4631TIP3    H135384   5.946   0.372   5.031 -3.0548  2.0581  0.9561
 4631TIP3    H235385   5.977   0.430   4.894 -0.6471  1.0377  1.0240
 4632TIP3   OH235386   6.617   1.050  11.060 -0.9396  0.1952 -0.6699
 4632TIP3    H135387   6.528   1.085  11.052 -1.1121 -0.2113 -0.5621
 4632TIP3    H235388   6.673   1.121  11.029 -1.3798 -0.0486 -2.1089
 4633TIP3   OH235389   0.562   1.005  14.717 -0.4052  0.1682  0.2737
 4633TIP3    H135390   0.625   1.058  14.766 -0.0736 -0.1674  0.2167
 4633TIP3    H235391   0.616   0.948  14.663 -0.7659  0.5421 -0.4952
 4634TIP3   OH235392   6.015   0.091   1.078 -0.1715 -0.1366 -0.3492
 4634TIP3    H135393   5.973   0.013   1.113 -0.4562 -0.5763 -1.6261
 4634TIP3    H235394   5.994   0.160   1.141 -1.3433 -0.7261 -0.0686
 4635TIP3   OH235395   2.674   4.520   1.693  0.4318 -0.1530  0.7280
 4635TIP3    H135396   2.592   4.478   1.666  0.8010 -0.7433  0.5029
 4635TIP3    H235397   2.741   4.453   1.677  0.9046  0.1800  1.2901
 4636TIP3   OH235398   6.217   4.108   0.611  0.1206 -0.5486 -0.2511
 4636TIP3    H135399   6.167   4.189   0.599  0.0279 -0.3373  1.2946
 4636TIP3    H235400   6.201   4.084   0.703 -0.4162 -2.7102 -0.8596
 4637TIP3   OH235401   1.695   2.052  15.407 -0.6747 -0.1116 -0.7793
 4637TIP3    H135402   1.777   2.101  15.408  0.1744 -1.4493 -1.2197
 4637TIP3    H235403   1.630   2.113  15.373 -0.1115  1.3256  0.6332
 4638TIP3   OH235404   1.622   3.683   3.418  0.4713  1.2072 -0.0560
 4638TIP3    H135405   1.584   3.769   3.398  1.0744  1.3463 -0.5899
 4638TIP3    H235406   1.700   3.677   3.364 -0.4500 -0.3764 -1.2917
 4639TIP3   OH235407   1.699   0.844  11.766  0.2675  0.3982 -0.8814
 4639TIP3    H135408   1.669   0.787  11.695  0.7337 -1.7002  0.5202
 4639TIP3    H235409   1.619   0.877  11.806 -0.1780 -1.9492  0.3180
 4640TIP3   OH235410   5.151   0.899  14.323  0.1371  0.0299  0.2344
 4640TIP3    H135411   5.150   0.836  14.250 -0.4806  0.6782 -0.3399
 4640TIP3    H235412   5.091   0.862  14.387 -3.6448  1.9492 -1.8637
 4641TIP3   OH235413   0.924   0.012   3.303 -0.2358  0.1089 -0.3608
 4641TIP3    H135414   0.876   0.018   3.386  0.2283 -3.5757  0.3501
 4641TIP3    H235415   0.967   0.097   3.294 -2.1628  1.4572  1.9490
 4642TIP3   OH235416   3.869   4.597   5.451  0.2683  0.1008 -0.7192
 4642TIP3    H135417   3.880   4.628   5.541  1.6904  0.6746 -1.0682
 4642TIP3    H235418   3.956   4.601   5.413 -0.2006 -0.7564 -1.9431
 4643TIP3   OH235419   1.464   6.378  14.657 -0.0828  0.5053  0.1973
 4643TIP3    H135420   1.406   6.429  14.600 -0.1550 -0.0314 -0.2222
 4643TIP3    H235421   1.532   6.345  14.598  0.9570  1.5441  0.7694
 4644TIP3   OH235422   4.032   4.342   1.276  0.0509  0.1645 -0.0271
 4644TIP3    H135423   3.991   4.408   1.332  0.7018  0.1524  0.4763
 4644TIP3    H235424   4.034   4.263   1.331  0.5568  0.1089 -0.1268
 4645TIP3   OH235425   0.649   6.509  15.002 -0.5399  0.0714 -0.3338
 4645TIP3    H135426   0.657   6.594  14.959 -1.4612  0.8719  1.0281
 4645TIP3    H235427   0.702   6.517  15.081 -1.7505 -0.1300  0.5112
 4646TIP3   OH235428   0.474   3.212  13.922  0.1571 -0.4221  0.0769
 4646TIP3    H135429   0.438   3.262  13.995  1.0182  0.2574  0.0658
 4646TIP3    H235430   0.400   3.194  13.865 -0.2109  0.7069  0.1778
 4647TIP3   OH235431   2.241   2.828   5.619  0.7475  0.5880 -0.5156
 4647TIP3    H135432   2.301   2.781   5.561 -1.6939 -1.8003 -1.2466
 4647TIP3    H235433   2.236   2.775   5.698 -2.8686 -1.2241 -1.7594
 4648TIP3   OH235434   2.153   0.648   0.081  0.1233 -0.7088  0.1364
 4648TIP3    H135435   2.201   0.730   0.098  1.2928 -1.2371 -0.5235
 4648TIP3    H235436   2.061   0.675   0.077  0.4407  0.4955  0.4384
 4649TIP3   OH235437   6.453   4.202  16.331 -0.2053  0.2707 -0.5150
 4649TIP3    H135438   6.496   4.240  16.254  0.5662  1.4824  0.4659
 4649TIP3    H235439   6.369   4.248  16.337 -0.2711  0.1668 -0.6363
 4650TIP3   OH235440   1.037   6.138  12.236 -0.1156 -0.3827 -0.7261
 4650TIP3    H135441   0.996   6.202  12.294 -0.8628  0.8451 -2.5265
 4650TIP3    H235442   1.129   6.166  12.231 -0.9895  2.5903 -3.8712
 4651TIP3   OH235443   3.725   6.511   4.025 -0.1091 -0.4755 -0.1390
 4651TIP3    H135444   3.789   6.530   3.957  0.6489 -2.4457 -0.0208
 4651TIP3    H235445   3.641   6.533   3.986  0.3319 -1.2901 -1.6229
 4652TIP3   OH235446   3.429   1.029   5.834 -0.3129  0.8595 -0.2760
 4652TIP3    H135447   3.419   1.021   5.929 -0.2940  1.4201 -0.2241
 4652TIP3    H235448   3.396   0.946   5.799 -0.9520  0.9195  0.1732
 4653TIP3   OH235449   0.711   0.128   0.350 -0.3555  0.3475 -0.4039
 4653TIP3    H135450   0.688   0.040   0.321 -1.5993 -0.3377  2.3744
 4653TIP3    H235451   0.677   0.186   0.282 -2.4281 -1.1631 -0.7299
 4654TIP3   OH235452   2.658   5.614  10.401  0.2418  0.2088 -0.0865
 4654TIP3    H135453   2.703   5.697  10.417 -1.8454  1.3919  0.0530
 4654TIP3    H235454   2.581   5.638  10.350  0.2221 -1.8393 -1.1091
 4655TIP3   OH235455   3.185   0.001   2.093 -0.2881  0.4412  0.8571
 4655TIP3    H135456   3.215  -0.060   2.026 -1.9729 -0.8819  1.2338
 4655TIP3    H235457   3.198   0.088   2.054 -1.5555 -0.2859 -1.3865
 4656TIP3   OH235458   6.277   3.665   4.113  0.1871 -0.1024 -0.1784
 4656TIP3    H135459   6.276   3.736   4.048 -1.3389 -0.2702 -0.3840
 4656TIP3    H235460   6.245   3.706   4.193 -0.8271 -0.5517 -0.3315
 4657TIP3   OH235461   2.895   1.170  16.382  0.0676  0.4334 -0.1898
 4657TIP3    H135462   2.917   1.152  16.473  0.0135 -0.9449 -0.4233
 4657TIP3    H235463   2.814   1.221  16.386  0.6731  1.3684  0.5388
 4658TIP3   OH235464   2.056   2.246   2.964 -0.4094 -0.3238  0.1226
 4658TIP3    H135465   2.019   2.229   2.878  0.3468  1.8088 -0.6944
 4658TIP3    H235466   2.133   2.189   2.968 -0.8062 -0.9063 -0.3344
 4659TIP3   OH235467   3.834   1.202  16.607  0.1624  0.3663  0.0410
 4659TIP3    H135468   3.789   1.174  16.527 -1.7257  2.7028  0.1890
 4659TIP3    H235469   3.791   1.153  16.677 -1.2659  1.5685  0.0374
 4660TIP3   OH235470   1.519   4.935  10.543  0.1461  0.6419  0.2924
 4660TIP3    H135471   1.610   4.911  10.523 -0.8486 -2.1075 -1.3439
 4660TIP3    H235472   1.504   5.016  10.494  1.6323  1.0566  0.4708
 4661TIP3   OH235473   3.800   4.427   1.751 -0.1962 -0.0730 -0.3467
 4661TIP3    H135474   3.853   4.505   1.734  0.0236  0.0370  0.7566
 4661TIP3    H235475   3.836   4.392   1.833  0.7903 -2.2602 -1.6506
 4662TIP3   OH235476   4.583   3.535  11.772  0.3185 -0.0337 -0.5151
 4662TIP3    H135477   4.489   3.555  11.768  0.3601  0.3300  0.0659
 4662TIP3    H235478   4.588   3.440  11.777  0.0197 -0.1045 -1.3750
 4663TIP3   OH235479   0.453   0.229   3.079  0.0452 -0.7161  0.4937
 4663TIP3    H135480   0.411   0.232   3.165 -1.8115 -0.9764 -0.3567
 4663TIP3    H235481   0.472   0.137   3.064 -0.9841 -0.8682  0.0340
 4664TIP3   OH235482   1.755   4.698   5.739  0.2069 -0.6651 -0.3137
 4664TIP3    H135483   1.789   4.786   5.759  0.9206 -0.6127 -1.6544
 4664TIP3    H235484   1.662   4.702   5.763  0.6450 -0.1564  1.4561
 4665TIP3   OH235485   5.119   6.195   1.116  0.1475  0.0583  0.4323
 4665TIP3    H135486   5.150   6.142   1.042  0.0025 -0.0373  0.4394
 4665TIP3    H235487   5.028   6.217   1.093  0.4931  1.0908 -0.0112
 4666TIP3   OH235488   5.345   5.682   5.385  0.0622 -0.3052 -0.7470
 4666TIP3    H135489   5.349   5.616   5.316  1.1569 -0.5639 -0.4610
 4666TIP3    H235490   5.418   5.660   5.443 -1.4831 -0.7782  1.1272
 4667TIP3   OH235491   6.012   5.295   5.152 -0.6681 -0.6247 -0.0479
 4667TIP3    H135492   6.019   5.315   5.059  0.2114 -0.6450  0.0096
 4667TIP3    H235493   6.079   5.229   5.168 -0.3557 -0.1308  0.7348
 4668TIP3   OH235494   0.679   3.611   0.560  0.2013 -0.0041 -0.2083
 4668TIP3    H135495   0.755   3.625   0.502  0.0296  1.3186 -0.1260
 4668TIP3    H235496   0.622   3.552   0.510 -0.7722  2.4837 -2.2124
 4669TIP3   OH235497   0.975   0.687   3.736  0.2262  0.1763 -0.0170
 4669TIP3    H135498   0.882   0.704   3.748  0.3593  1.0655 -0.1924
 4669TIP3    H235499   0.992   0.711   3.645  0.2031 -2.0077 -0.6484
 4670TIP3   OH235500   1.190   2.511  15.223  0.2429  0.1982 -0.0480
 4670TIP3    H135501   1.208   2.480  15.312  1.3480  0.5152 -0.1416
 4670TIP3    H235502   1.168   2.431  15.174 -2.1161  0.2080  0.8624
 4671TIP3   OH235503   3.362   3.303  16.034 -0.5049 -0.5341  0.1558
 4671TIP3    H135504   3.303   3.235  16.002 -1.0913  0.0064  0.0833
 4671TIP3    H235505   3.314   3.385  16.022 -0.3875 -0.2291  1.5732
 4672TIP3   OH235506   6.387   6.608   6.122  0.2905  0.0708 -0.0253
 4672TIP3    H135507   6.296   6.611   6.091  0.1513 -1.3127  0.1996
 4672TIP3    H235508   6.406   6.698   6.149 -1.2656  0.2260  0.6402
 4673TIP3   OH235509   6.432   3.696   0.786 -0.8696 -0.0243 -0.0592
 4673TIP3    H135510   6.412   3.775   0.836 -2.2405 -0.8572  0.7841
 4673TIP3    H235511   6.434   3.626   0.852  2.8256 -0.4353 -0.3444
 4674TIP3   OH235512   3.740   1.385   5.656 -0.0699  0.6660 -0.1076
 4674TIP3    H135513   3.691   1.303   5.662 -0.9286  0.9443 -2.2427
 4674TIP3    H235514   3.677   1.453   5.683  0.6252  0.6763  1.6164
 4675TIP3   OH235515   2.701   6.061  16.015 -0.5036 -0.3429 -0.2087
 4675TIP3    H135516   2.692   6.067  15.919  2.7804  0.6195 -0.5732
 4675TIP3    H235517   2.764   5.990  16.028 -1.2307 -0.7370  1.3226
 4676TIP3   OH235518   2.909   5.193  13.374 -0.7033 -0.6308  0.3468
 4676TIP3    H135519   2.847   5.266  13.372 -1.0241 -0.8307  1.6828
 4676TIP3    H235520   2.947   5.196  13.462  1.3161 -0.4266 -0.4871
 4677TIP3   OH235521   3.159   1.730   0.101 -0.2669  0.4509  0.1472
 4677TIP3    H135522   3.191   1.782   0.028 -0.6374 -0.4280 -0.6586
 4677TIP3    H235523   3.237   1.711   0.153  0.3474 -0.6195 -1.1196
 4678TIP3   OH235524   2.069   2.759  13.805  0.5753  0.4272  0.7023
 4678TIP3    H135525   2.020   2.837  13.832  0.7870  0.5897  0.6245
 4678TIP3    H235526   2.152   2.794  13.771  1.0923  0.1099  1.6146
 4679TIP3   OH235527   5.457   5.544   4.609  0.0567  0.3942  0.2235
 4679TIP3    H135528   5.510   5.467   4.590  1.2323  0.8305  1.6010
 4679TIP3    H235529   5.428   5.575   4.523  1.9206  0.0689 -0.5697
 4680TIP3   OH235530   3.298   1.590   1.415 -0.1478 -0.2572  0.4630
 4680TIP3    H135531   3.226   1.569   1.475 -1.8031 -1.8637 -1.9493
 4680TIP3    H235532   3.345   1.508   1.403  1.3097  0.4672  0.9136
 4681TIP3   OH235533   5.026   6.807   5.310  0.2706  0.4620 -0.1636
 4681TIP3    H135534   4.979   6.786   5.391  2.1479 -0.0608  0.8615
 4681TIP3    H235535   4.993   6.893   5.284 -0.7572  0.4010  0.8535
 4682TIP3   OH235536   5.587   3.483  11.086  0.3384 -0.5551 -0.0157
 4682TIP3    H135537   5.660   3.453  11.141 -0.2356 -2.0852 -0.0444
 4682TIP3    H235538   5.613   3.458  10.997  1.2901  1.9597 -0.5273
 4683TIP3   OH235539   6.410   3.411  11.965  0.4589 -0.5823 -0.5312
 4683TIP3    H135540   6.418   3.429  12.059 -0.5436 -0.2381 -0.4995
 4683TIP3    H235541   6.360   3.484  11.930  2.2183  0.1556 -1.6551
 4684TIP3   OH235542   6.017   5.187   0.115  0.4064 -0.3602 -0.9886
 4684TIP3    H135543   5.976   5.106   0.146 -0.8143  1.0489  1.2980
 4684TIP3    H235544   6.054   5.227   0.193 -0.3842  2.0234 -1.7527
 4685TIP3   OH235545   6.036   4.544  17.110 -0.0590  0.7083  0.6097
 4685TIP3    H135546   6.050   4.623  17.161 -0.6314 -0.0261  1.9768
 4685TIP3    H235547   5.966   4.566  17.048 -1.9058  0.6457  2.5668
 4686TIP3   OH235548   6.550   6.466  15.228  0.3587 -0.4380  0.3284
 4686TIP3    H135549   6.595   6.401  15.282  0.4868 -1.2496 -0.7388
 4686TIP3    H235550   6.492   6.511  15.290  1.1589 -0.7241  1.3221
 4687TIP3   OH235551   2.435   3.532   3.515 -0.0492  0.4797 -0.0153
 4687TIP3    H135552   2.462   3.441   3.518 -0.7481  0.2033 -1.3566
 4687TIP3    H235553   2.370   3.540   3.585  0.4296  0.1108  0.4824
 4688TIP3   OH235554   6.244   3.737  10.951  0.0131  0.1237 -0.0916
 4688TIP3    H135555   6.223   3.791  11.027  1.2777  0.2953  0.1650
 4688TIP3    H235556   6.280   3.656  10.989  1.0167  0.3679 -0.5018
 4689TIP3   OH235557   2.660   1.276   0.464  0.5003  0.0401  0.7171
 4689TIP3    H135558   2.604   1.215   0.514  2.6903 -1.4646  1.4938
 4689TIP3    H235559   2.747   1.238   0.469  1.5066  1.9000 -1.0909
 4690TIP3   OH235560   6.777   6.777   4.433 -0.0097 -0.2291 -0.3292
 4690TIP3    H135561   6.695   6.775   4.383  0.1571 -1.7791 -0.5843
 4690TIP3    H235562   6.782   6.867   4.466 -2.9286 -0.6207  1.5651
 4691TIP3   OH235563   6.061   1.375   5.202  0.1122  0.1769 -0.2947
 4691TIP3    H135564   6.035   1.429   5.127  0.6478 -0.4422 -0.9382
 4691TIP3    H235565   6.005   1.405   5.273  0.1868  1.3711 -0.7138
 4692TIP3   OH235566   5.679   1.925   0.220 -0.4442  0.0290  0.0911
 4692TIP3    H135567   5.623   1.937   0.143 -1.6517 -0.8515  0.8007
 4692TIP3    H235568   5.742   1.857   0.194 -0.4572  0.1689 -0.3108
 4693TIP3   OH235569   5.163   1.240  13.957  0.0153 -0.8079  0.1089
 4693TIP3    H135570   5.258   1.229  13.962  0.4674  2.4189  0.4056
 4693TIP3    H235571   5.133   1.231  14.047  0.2504 -0.3666  0.2340
 4694TIP3   OH235572   5.874   2.081   3.418  0.4575 -0.2611 -0.1264
 4694TIP3    H135573   5.796   2.115   3.374  0.4291 -0.8913 -0.5766
 4694TIP3    H235574   5.947   2.118   3.369  0.4290 -0.7133 -0.5071
 4695TIP3   OH235575   4.743   1.006  15.312 -0.1304 -0.0838 -0.6544
 4695TIP3    H135576   4.659   1.015  15.355  0.4763  1.3569  0.2868
 4695TIP3    H235577   4.734   1.055  15.230 -0.4845 -0.7374 -1.0216
 4696TIP3   OH235578   2.436   5.179   1.537 -0.0290  0.1474 -0.1288
 4696TIP3    H135579   2.438   5.120   1.612 -1.6501  0.3649  0.1233
 4696TIP3    H235580   2.454   5.123   1.462  1.3337 -0.1234  0.3723
 4697TIP3   OH235581   0.704   1.682  15.647 -0.0764  0.5894 -0.0145
 4697TIP3    H135582   0.736   1.641  15.567  0.3949  1.4030 -0.2553
 4697TIP3    H235583   0.616   1.645  15.659  0.1766 -0.1712 -0.4349
 4698TIP3   OH235584   4.822   2.805   4.694 -0.3161  0.4825 -0.1655
 4698TIP3    H135585   4.809   2.765   4.780  1.0153  0.8278  0.2336
 4698TIP3    H235586   4.802   2.897   4.707 -0.3915  0.4828 -0.2889
 4699TIP3   OH235587   3.090   5.312  10.301 -0.4768 -0.3504 -0.3182
 4699TIP3    H135588   3.102   5.220  10.326 -0.5949  0.0205  1.2299
 4699TIP3    H235589   3.173   5.353  10.324 -0.4720 -0.0285 -0.8858
 4700TIP3   OH235590   0.070   1.406   3.978  0.0311 -0.3183 -0.1283
 4700TIP3    H135591   0.130   1.334   3.997  0.3718  0.0060  0.0365
 4700TIP3    H235592   0.026   1.423   4.061 -1.6677 -1.7864 -0.6677
 4701TIP3   OH235593   5.701   6.748  16.690 -0.6919  0.5082  0.1485
 4701TIP3    H135594   5.715   6.678  16.754  0.9865 -1.4336 -2.1605
 4701TIP3    H235595   5.618   6.787  16.716 -1.8455 -2.4973  1.4658
 4702TIP3   OH235596   5.827   4.704   5.775 -0.7281  0.2470 -1.1124
 4702TIP3    H135597   5.828   4.738   5.864 -0.1039  2.3222 -1.8542
 4702TIP3    H235598   5.891   4.634   5.775  0.9440  1.6980 -0.4234
 4703TIP3   OH235599   5.033   5.534  16.333  0.4762  0.1505  0.7510
 4703TIP3    H135600   4.941   5.556  16.315  0.1384 -0.2144  1.9263
 4703TIP3    H235601   5.031   5.495  16.420  2.0223  1.8009  1.5791
 4704TIP3   OH235602   2.951   2.322  14.456 -0.0880 -0.0290  0.5280
 4704TIP3    H135603   3.025   2.345  14.513  0.2633 -0.2364  0.1602
 4704TIP3    H235604   2.987   2.256  14.396 -0.5079  0.0469  0.1918
 4705TIP3   OH235605   3.996   5.165   2.395  0.2939 -0.5091  0.0913
 4705TIP3    H135606   3.921   5.208   2.436  0.2551  0.1693 -0.6790
 4705TIP3    H235607   4.070   5.184   2.452  0.4620  1.3736 -0.6931
 4706TIP3   OH235608   2.198   3.033  13.886  0.0999 -0.0857 -0.3068
 4706TIP3    H135609   2.108   3.000  13.894  0.0611  0.2132  0.5918
 4706TIP3    H235610   2.190   3.106  13.824 -0.4714  0.5497  0.4745
 4707TIP3   OH235611   0.587   0.705   0.431 -0.3281  0.2905 -0.1685
 4707TIP3    H135612   0.574   0.746   0.346  0.1492  1.6456  0.3992
 4707TIP3    H235613   0.681   0.711   0.447 -0.2501 -0.9875 -0.0424
 4708TIP3   OH235614   2.488   1.850  14.057  0.0252 -0.2187 -0.0521
 4708TIP3    H135615   2.552   1.922  14.055  0.4977 -0.4549  2.5588
 4708TIP3    H235616   2.517   1.790  13.989  3.1071 -0.6566  1.4688
 4709TIP3   OH235617   3.905   2.385   0.711  0.1153 -0.4716  0.2783
 4709TIP3    H135618   3.888   2.450   0.780 -0.5014 -0.9382  0.5786
 4709TIP3    H235619   3.834   2.321   0.720  1.2144 -1.6977  0.5824
 4710TIP3   OH235620   5.037   4.628  11.857  0.0162  0.2155  0.2182
 4710TIP3    H135621   4.976   4.566  11.817 -0.3460  0.9044 -0.3107
 4710TIP3    H235622   5.056   4.691  11.788  0.6293  0.5180  0.6562
 4711TIP3   OH235623   0.383   0.920  11.918 -0.1872 -0.1867 -0.1867
 4711TIP3    H135624   0.457   0.976  11.940 -1.0394  0.3092  1.6321
 4711TIP3    H235625   0.378   0.858  11.990 -2.3866  0.7088  0.5105
 4712TIP3   OH235626   2.221   1.872   1.932 -0.2193  0.1433 -0.1634
 4712TIP3    H135627   2.237   1.881   2.026 -1.1362  1.4873 -0.1075
 4712TIP3    H235628   2.308   1.857   1.895  0.4423  1.5539  0.7146
 4713TIP3   OH235629   0.883   5.465   2.003  0.1533 -0.1383 -0.1911
 4713TIP3    H135630   0.978   5.453   2.006  0.0252 -1.0497  1.9099
 4713TIP3    H235631   0.862   5.510   2.085 -1.4391 -1.8801  0.4173
 4714TIP3   OH235632   3.705   4.870   0.751  0.3710 -0.1328 -0.1658
 4714TIP3    H135633   3.676   4.923   0.677 -1.2944  1.1935  1.3462
 4714TIP3    H235634   3.699   4.779   0.720  1.6177  0.4208 -2.2425
 4715TIP3   OH235635   3.110   4.003   1.642 -0.0352  0.1048  0.4777
 4715TIP3    H135636   3.102   4.077   1.582  2.9873 -1.4993 -2.1768
 4715TIP3    H235637   3.077   3.928   1.592 -2.8653 -0.5752  3.0385
 4716TIP3   OH235638   4.679   2.381   1.809  0.2762  0.1408 -0.1484
 4716TIP3    H135639   4.704   2.346   1.894 -0.7399 -0.7136 -0.1775
 4716TIP3    H235640   4.632   2.462   1.830  1.2826  0.7052  0.0046
 4717TIP3   OH235641   0.681   0.748   4.179  0.1059 -0.2562 -0.2803
 4717TIP3    H135642   0.718   0.833   4.204  2.5760 -1.7035  1.3866
 4717TIP3    H235643   0.716   0.731   4.092 -0.7568  0.5602 -0.8157
 4718TIP3   OH235644   3.573   0.464  14.503 -0.2807 -0.5666 -0.1301
 4718TIP3    H135645   3.515   0.399  14.543  1.3020 -2.2852 -0.4757
 4718TIP3    H235646   3.577   0.535  14.567 -3.0488 -0.1581 -0.2951
 4719TIP3   OH235647   5.012   2.043  11.706  0.2941  0.1554  0.3363
 4719TIP3    H135648   4.961   1.962  11.704  0.5116  0.0380 -0.4562
 4719TIP3    H235649   5.098   2.018  11.674  0.8135  0.3987  1.4788
 4720TIP3   OH235650   1.589   0.077   5.695  0.1757 -0.7256  0.6365
 4720TIP3    H135651   1.496   0.056   5.685 -0.1208  0.1164  1.4042
 4720TIP3    H235652   1.591   0.173   5.698  1.0400 -0.7426  0.8290
 4721TIP3   OH235653   4.721   2.931  12.883 -0.4094  0.0548  0.6665
 4721TIP3    H135654   4.704   2.859  12.945 -0.5252  1.7883  2.7713
 4721TIP3    H235655   4.815   2.947  12.891 -0.4060  0.2115  0.2973
 4722TIP3   OH235656   4.550   2.378   2.245 -0.2661  0.1861  0.1264
 4722TIP3    H135657   4.512   2.425   2.171 -0.4625  0.3785  0.3486
 4722TIP3    H235658   4.479   2.323   2.278  0.0793 -0.6025 -0.3993
 4723TIP3   OH235659   6.419   5.762  12.018 -0.2067  0.4995  0.5591
 4723TIP3    H135660   6.380   5.711  11.947 -0.0903 -0.1383  0.9482
 4723TIP3    H235661   6.430   5.850  11.981  1.2494 -0.1724 -0.7241
 4724TIP3   OH235662   2.671   5.127   0.471 -0.4036 -0.1319  0.5682
 4724TIP3    H135663   2.630   5.045   0.443 -3.2866  0.5336  2.3994
 4724TIP3    H235664   2.688   5.114   0.565 -0.1614  1.0655  0.7036
 4725TIP3   OH235665   3.278   6.013   2.175 -0.2665 -0.1021  0.2158
 4725TIP3    H135666   3.317   6.087   2.222 -0.4408  0.2273 -0.1567
 4725TIP3    H235667   3.298   6.030   2.083  0.7384 -1.1353  0.2225
 4726TIP3   OH235668   3.799   2.882   4.084 -0.1989  0.2568 -0.1325
 4726TIP3    H135669   3.794   2.833   4.166  3.1555  2.0492  1.3660
 4726TIP3    H235670   3.795   2.974   4.110  0.5846  0.8793 -2.0146
 4727TIP3   OH235671   0.956   4.601   0.353  0.0540 -0.2155 -0.6429
 4727TIP3    H135672   0.981   4.602   0.445 -0.1558  3.6883 -0.4638
 4727TIP3    H235673   1.024   4.548   0.310  1.1973 -0.5777  1.4844
 4728TIP3   OH235674   2.134   1.013   1.722 -0.2694 -0.2036 -0.3286
 4728TIP3    H135675   2.080   1.084   1.686  0.9355  0.0103 -1.8128
 4728TIP3    H235676   2.143   1.035   1.815 -0.2611  1.3855 -0.6715
 4729TIP3   OH235677   4.134   3.176  13.324 -0.4406  0.4273  0.0268
 4729TIP3    H135678   4.191   3.106  13.293 -0.5989  0.5391 -0.5215
 4729TIP3    H235679   4.087   3.206  13.246 -1.4004  0.2059  0.5083
 4730TIP3   OH235680   4.196   4.495  16.974  0.0921 -0.7330 -0.2020
 4730TIP3    H135681   4.188   4.446  16.892  0.4399 -0.5441 -0.3477
 4730TIP3    H235682   4.154   4.580  16.955 -0.5486 -0.9823  0.0611
 4731TIP3   OH235683   4.867   3.763  12.814 -0.6665  0.2347 -0.2660
 4731TIP3    H135684   4.959   3.773  12.839 -0.9941  0.8846  0.7200
 4731TIP3    H235685   4.870   3.735  12.722  0.5224 -0.2959 -0.0816
 4732TIP3   OH235686   6.355   6.329   0.040 -0.7300 -0.0099  0.6039
 4732TIP3    H135687   6.262   6.314   0.021 -0.6221 -0.9133  0.7165
 4732TIP3    H235688   6.365   6.303   0.132  0.0923 -2.2899 -0.0637
 4733TIP3   OH235689   5.116   2.498  12.066 -0.1036  0.5954  0.2792
 4733TIP3    H135690   5.131   2.430  12.132  2.3476 -0.0209 -0.7839
 4733TIP3    H235691   5.065   2.454  11.998 -0.2931  0.4199  0.5330
 4734TIP3   OH235692   5.203   6.297  12.500  0.3100 -0.4292  0.6277
 4734TIP3    H135693   5.293   6.274  12.525  1.1186 -0.6157 -2.0966
 4734TIP3    H235694   5.192   6.257  12.413 -1.9738  0.6495  0.3650
 4735TIP3   OH235695   1.536   0.146   3.621  0.2690  0.1771 -0.7135
 4735TIP3    H135696   1.590   0.221   3.645  0.4595 -0.2233  0.1149
 4735TIP3    H235697   1.570   0.119   3.535  0.2152  1.0122 -1.0045
 4736TIP3   OH235698   3.710   6.362  16.630  0.3899  0.4590  0.0440
 4736TIP3    H135699   3.673   6.388  16.714  0.9683  1.7510 -0.0673
 4736TIP3    H235700   3.656   6.407  16.565  0.7681  0.5627 -0.2071
 4737TIP3   OH235701   3.393   0.963  12.697  0.2111 -0.1791 -0.6218
 4737TIP3    H135702   3.335   0.953  12.622  0.7526  1.0851 -1.2474
 4737TIP3    H235703   3.440   0.880  12.703  0.4891 -0.1354 -1.9762
 4738TIP3   OH235704   5.837   3.587   1.713 -0.1974 -1.0569  0.6406
 4738TIP3    H135705   5.790   3.505   1.721 -0.0184 -1.2132  0.1282
 4738TIP3    H235706   5.870   3.587   1.623 -1.2055  0.1118  0.2399
 4739TIP3   OH235707   5.118   1.010   3.039  0.4296 -0.3681 -0.3610
 4739TIP3    H135708   5.199   0.959   3.042  0.7306  0.1385  0.4801
 4739TIP3    H235709   5.133   1.073   2.968  0.2513 -1.0951 -1.0668
 4740TIP3   OH235710   1.586   0.664  11.590  0.1421  0.1834 -0.0149
 4740TIP3    H135711   1.520   0.680  11.522  0.7420 -1.8012 -1.1550
 4740TIP3    H235712   1.554   0.585  11.634  1.5792 -0.6446 -0.4053
 4741TIP3   OH235713   2.591   6.215   0.639  0.2328  0.5589  0.1728
 4741TIP3    H135714   2.613   6.135   0.687  1.7592  2.0600  2.1579
 4741TIP3    H235715   2.658   6.222   0.572 -0.2840 -0.1193 -0.4334
 4742TIP3   OH235716   1.036   6.442   3.062  0.7292 -0.1587 -0.1330
 4742TIP3    H135717   1.063   6.534   3.068 -0.2597  0.1126  0.3602
 4742TIP3    H235718   0.944   6.446   3.039  0.0074 -0.9646  2.3618
 4743TIP3   OH235719   1.257   5.624  11.991 -0.1907 -0.4615  0.6132
 4743TIP3    H135720   1.335   5.679  11.985 -0.4286 -0.1779  0.0302
 4743TIP3    H235721   1.284   5.549  12.044  0.5147 -0.4413  0.2836
 4744TIP3   OH235722   5.178   3.638  12.400  0.5778  0.6528 -0.0113
 4744TIP3    H135723   5.119   3.638  12.325 -1.5584  1.3994  1.5640
 4744TIP3    H235724   5.193   3.545  12.418  0.6916  0.4640 -1.0264
 4745TIP3   OH235725   3.516   6.334   5.903 -0.2372 -0.1245  0.2262
 4745TIP3    H135726   3.478   6.246   5.903 -1.0262  0.2121 -0.4290
 4745TIP3    H235727   3.490   6.372   5.819  1.1037  0.3133 -0.0134
 4746TIP3   OH235728   6.742   2.510   0.010 -0.4038  0.1415 -0.3288
 4746TIP3    H135729   6.835   2.497   0.025 -0.4715  1.0296  1.0529
 4746TIP3    H235730   6.738   2.581  -0.054 -0.1353 -0.0854 -0.5966
 4747TIP3   OH235731   6.421   0.914  12.967  0.1381  0.1489 -0.0329
 4747TIP3    H135732   6.331   0.904  12.997  0.6345 -1.7039  0.9685
 4747TIP3    H235733   6.449   0.826  12.941  0.4580  1.2450 -4.1248
 4748TIP3   OH235734   1.413   2.041   0.582  0.3688 -0.1795  0.0551
 4748TIP3    H135735   1.489   2.055   0.525  1.1401  3.1111  1.6286
 4748TIP3    H235736   1.445   1.979   0.648  0.7125 -1.0069 -0.8530
 4749TIP3   OH235737   6.761   0.993  13.323 -0.3596  0.0963  0.3781
 4749TIP3    H135738   6.835   0.941  13.357 -1.3678 -0.8495  1.2224
 4749TIP3    H235739   6.697   0.927  13.295 -1.4520  0.8749  0.9688
 4750TIP3   OH235740   2.811   4.171   5.822  0.1621  0.1215 -0.1737
 4750TIP3    H135741   2.823   4.101   5.887  0.2967 -0.7330 -1.0940
 4750TIP3    H235742   2.735   4.144   5.771  1.8030 -0.8082 -2.3099
 4751TIP3   OH235743   6.823   2.724   0.457  0.2182  0.1299  0.8459
 4751TIP3    H135744   6.831   2.730   0.552 -0.9356 -1.3222  1.0707
 4751TIP3    H235745   6.730   2.707   0.442  0.6842 -1.5694 -0.4184
 4752TIP3   OH235746   2.055   0.398   5.623  0.4499  0.0641  0.3508
 4752TIP3    H135747   2.075   0.486   5.655  1.0063  0.6334 -1.4265
 4752TIP3    H235748   2.114   0.341   5.672 -0.7442  0.4833  2.4005
 4753TIP3   OH235749   0.589   2.021  15.058 -0.7035  0.2263  0.2483
 4753TIP3    H135750   0.642   1.949  15.026 -0.8221  1.0696 -2.0526
 4753TIP3    H235751   0.506   2.012  15.011 -1.3665  0.8327  1.2758
 4754TIP3   OH235752   3.154   1.717  15.485 -0.5376 -0.0543  0.0124
 4754TIP3    H135753   3.086   1.649  15.480  0.2322 -0.8309 -0.1418
 4754TIP3    H235754   3.192   1.706  15.572 -0.2682  0.0358 -0.0943
 4755TIP3   OH235755   4.782   4.216   0.459  0.2482 -0.6072  0.6449
 4755TIP3    H135756   4.840   4.178   0.524  0.3783 -2.0156 -0.2460
 4755TIP3    H235757   4.701   4.165   0.466 -0.0677 -0.1654  0.3330
 4756TIP3   OH235758   0.859   0.157  12.417 -0.5657  0.3117 -0.0297
 4756TIP3    H135759   0.889   0.247  12.401 -0.7510  0.1924 -1.1796
 4756TIP3    H235760   0.769   0.157  12.382 -1.1515  0.0994  1.4220
 4757TIP3   OH235761   2.004   2.660   0.340 -0.3215 -0.3649 -0.7584
 4757TIP3    H135762   1.947   2.693   0.409  2.1316  1.5968  0.4906
 4757TIP3    H235763   1.952   2.669   0.260 -2.1689  0.2196  0.4525
 4758TIP3   OH235764   4.535   3.598   6.380  0.3074  0.6740  0.0612
 4758TIP3    H135765   4.496   3.551   6.454  0.7233 -1.0445 -0.7505
 4758TIP3    H235766   4.625   3.566   6.377 -0.4727 -1.7775 -3.0038
 4759TIP3   OH235767   5.790   1.158  10.549  0.1236  0.6201 -0.1956
 4759TIP3    H135768   5.838   1.230  10.509  0.0232  0.5220 -0.4968
 4759TIP3    H235769   5.840   1.080  10.526 -1.2899  0.2569 -2.3552
 4760TIP3   OH235770   3.276   1.711   1.120  0.1737 -0.3434 -0.1838
 4760TIP3    H135771   3.190   1.689   1.084  0.7397 -1.1344 -1.0978
 4760TIP3    H235772   3.306   1.631   1.161 -0.8495  0.7651  3.0165
 4761TIP3   OH235773   3.557   3.967  12.122 -0.0248  0.4606  0.0139
 4761TIP3    H135774   3.564   4.062  12.113 -1.1624  0.5690  0.1849
 4761TIP3    H235775   3.463   3.949  12.114  0.2301 -0.7035 -0.5175
 4762TIP3   OH235776   2.889   2.175  12.172  0.1394 -0.3496 -0.0016
 4762TIP3    H135777   2.882   2.267  12.195  1.1793 -0.3486  0.3251
 4762TIP3    H235778   2.807   2.136  12.204 -0.3286  0.4608 -0.1952
 4763TIP3   OH235779   4.304   2.340   5.264 -0.5551 -0.4417 -0.2985
 4763TIP3    H135780   4.249   2.261   5.265  2.1346 -2.6653  3.8474
 4763TIP3    H235781   4.276   2.389   5.342 -1.5093  2.4310 -2.2780
 4764TIP3   OH235782   4.293   6.657   1.669  0.4150  0.3067  0.4130
 4764TIP3    H135783   4.359   6.665   1.738 -0.0296 -1.7060  1.1632
 4764TIP3    H235784   4.235   6.587   1.701 -0.1718 -0.2267 -1.7109
 4765TIP3   OH235785   5.442   4.728  15.930  0.7110 -0.3229  0.1847
 4765TIP3    H135786   5.412   4.818  15.935  1.3110 -0.0558 -0.7264
 4765TIP3    H235787   5.365   4.675  15.949  0.0923  0.3714 -0.3800
 4766TIP3   OH235788   1.967   2.499   4.334  0.1798 -0.1845 -0.2206
 4766TIP3    H135789   2.047   2.548   4.349  0.5996  0.3677 -3.6101
 4766TIP3    H235790   1.896   2.560   4.356  0.6518  0.1375  0.4535
 4767TIP3   OH235791   2.189   2.691  16.412  0.2226  0.6985 -0.3927
 4767TIP3    H135792   2.201   2.597  16.425  2.2653  0.5418 -2.6325
 4767TIP3    H235793   2.106   2.698  16.364 -0.1612  0.1068  0.1647
 4768TIP3   OH235794   5.104   0.661   5.011 -0.5243  0.2736 -0.1496
 4768TIP3    H135795   5.017   0.694   5.035 -0.5069 -0.0985  0.4562
 4768TIP3    H235796   5.091   0.567   4.999 -0.0740  0.0990  0.6319
 4769TIP3   OH235797   3.061   1.876  13.468 -0.1999 -0.2368 -0.2637
 4769TIP3    H135798   2.986   1.919  13.427  0.6952  0.0740 -1.6606
 4769TIP3    H235799   3.063   1.788  13.429  0.9321  0.2205 -1.3218
 4770TIP3   OH235800   0.257   4.337   2.324 -0.1457 -0.1677 -0.2113
 4770TIP3    H135801   0.331   4.342   2.263  0.7812  0.6359  0.9128
 4770TIP3    H235802   0.298   4.325   2.410 -1.3836 -0.7226  0.3310
 4771TIP3   OH235803   0.356   1.151   2.575  0.3452 -0.1224  0.3765
 4771TIP3    H135804   0.442   1.188   2.553 -0.7293  2.3970  0.1418
 4771TIP3    H235805   0.353   1.069   2.526  2.7885 -0.5507  0.7805
 4772TIP3   OH235806   2.389   3.748  15.337  1.0100 -0.0410 -0.4059
 4772TIP3    H135807   2.306   3.750  15.385  2.2278 -1.2746  1.9318
 4772TIP3    H235808   2.374   3.806  15.262 -1.7003  0.3648  0.3196
 4773TIP3   OH235809   4.095   5.754  16.869 -0.4599  0.3567  0.2752
 4773TIP3    H135810   4.005   5.782  16.852 -0.8590  0.5311  2.4534
 4773TIP3    H235811   4.089   5.659  16.882 -0.0234  0.0891 -1.2674
 4774TIP3   OH235812   5.546   2.397  11.467 -0.0995  0.2899 -0.7510
 4774TIP3    H135813   5.627   2.432  11.504 -1.3737  1.1291  1.4566
 4774TIP3    H235814   5.499   2.474  11.434  0.6033 -0.3482 -3.4984
 4775TIP3   OH235815   3.193   0.064   3.796  0.0249  0.0675  0.1130
 4775TIP3    H135816   3.144  -0.011   3.762  0.7094  0.4425 -1.8128
 4775TIP3    H235817   3.258   0.025   3.855  1.2663 -1.0819 -1.8742
 4776TIP3   OH235818   0.189   4.694  12.040  0.1874  0.9417  0.6056
 4776TIP3    H135819   0.130   4.619  12.033  1.5063  0.0236 -2.0268
 4776TIP3    H235820   0.264   4.661  12.090  1.3688 -0.0127 -1.6724
 4777TIP3   OH235821   1.192   6.750   3.258  0.5953  0.0943 -0.4912
 4777TIP3    H135822   1.126   6.819   3.255  1.1868  0.6440 -2.0962
 4777TIP3    H235823   1.166   6.696   3.332  1.1056  2.9704  1.9803
 4778TIP3   OH235824   1.538   2.110  13.742 -0.3953  0.4351 -0.0670
 4778TIP3    H135825   1.535   2.015  13.726  0.0061  0.4532 -0.2792
 4778TIP3    H235826   1.453   2.142  13.714  0.4611  0.5575 -2.8356
 4779TIP3   OH235827   1.028   1.095  15.339  0.0597  0.7408 -0.0954
 4779TIP3    H135828   1.056   1.173  15.293 -1.5779  1.5457  0.1891
 4779TIP3    H235829   1.109   1.056  15.373  0.7545  3.9478  2.3635
 4780TIP3   OH235830   0.752   2.083  10.990  0.3737 -0.1834  0.0372
 4780TIP3    H135831   0.680   2.145  10.997 -0.0154 -0.8269  2.5405
 4780TIP3    H235832   0.718   2.012  10.935 -0.3426  0.2669 -0.1047
 4781TIP3   OH235833   6.058   6.383   2.837 -0.9107  0.2824  0.2109
 4781TIP3    H135834   6.014   6.299   2.841 -1.5136  0.6058  0.5130
 4781TIP3    H235835   6.066   6.402   2.744 -0.0166 -0.4867  0.1119
 4782TIP3   OH235836   4.962   5.041  10.369 -0.2179  0.4657  0.1725
 4782TIP3    H135837   5.050   5.026  10.334 -0.3006 -1.4568  0.6380
 4782TIP3    H235838   4.904   5.002  10.304 -0.5823 -0.0161  0.7714
 4783TIP3   OH235839   6.629   4.217   0.452 -0.1364 -0.0152 -0.7124
 4783TIP3    H135840   6.643   4.305   0.418  2.8973  0.2828  0.9203
 4783TIP3    H235841   6.677   4.160   0.392  1.3110 -0.0202  0.3956
 4784TIP3   OH235842   5.463   3.177  12.124 -0.1508  0.1105  0.9589
 4784TIP3    H135843   5.404   3.112  12.086 -1.6749  0.1373  3.0569
 4784TIP3    H235844   5.408   3.254  12.136  1.4639  1.6283 -0.8820
 4785TIP3   OH235845   5.657   2.902  17.150 -0.0839  0.4728 -0.2255
 4785TIP3    H135846   5.696   2.970  17.095 -0.2331  0.9795  0.2778
 4785TIP3    H235847   5.715   2.827  17.142  0.1229  0.6865 -0.7342
 4786TIP3   OH235848   0.346   0.015  16.555 -0.0206  0.6334  0.4832
 4786TIP3    H135849   0.379   0.102  16.577  0.0229  0.7567 -0.0524
 4786TIP3    H235850   0.402  -0.045  16.604  1.5039  0.8006 -0.9489
 4787TIP3   OH235851   6.673   5.426   6.233 -0.4997  0.0297  0.5463
 4787TIP3    H135852   6.726   5.500   6.263 -0.8580  0.8218 -0.7031
 4787TIP3    H235853   6.704   5.409   6.144 -0.8183 -0.9538  0.6138
 4788TIP3   OH235854   1.377   1.728  12.754  0.0633  0.2187  0.4087
 4788TIP3    H135855   1.374   1.674  12.833  0.2621 -2.0815 -1.0677
 4788TIP3    H235856   1.445   1.792  12.772  3.2156 -2.8836  0.6430
 4789TIP3   OH235857   1.160   2.606   3.569 -0.3424  0.1352 -0.2235
 4789TIP3    H135858   1.105   2.593   3.646 -1.0507  3.0311 -0.1265
 4789TIP3    H235859   1.216   2.680   3.592  0.0953  0.4635 -2.1597
 4790TIP3   OH235860   2.602   4.842   4.789 -0.4708 -0.5817  0.5192
 4790TIP3    H135861   2.579   4.933   4.807 -3.8058 -1.2029 -0.0526
 4790TIP3    H235862   2.628   4.806   4.874  2.3892  1.1818  0.5053
 4791TIP3   OH235863   0.001   6.729  13.588 -0.5331 -0.3943 -0.1573
 4791TIP3    H135864  -0.029   6.703  13.675  0.0062 -1.3682 -0.2462
 4791TIP3    H235865   0.094   6.747  13.599 -0.8007  1.1044 -0.2001
 4792TIP3   OH235866   1.508   6.305   4.102  0.4036  0.1701  0.1910
 4792TIP3    H135867   1.588   6.290   4.052 -0.8927  1.3920 -2.4814
 4792TIP3    H235868   1.492   6.399   4.095 -1.3433 -0.0720  0.5120
 4793TIP3   OH235869   6.553   0.511   2.298  0.3978 -0.2158 -0.0069
 4793TIP3    H135870   6.579   0.431   2.344  1.5618  0.1378 -0.0322
 4793TIP3    H235871   6.545   0.576   2.368 -2.2292 -0.7032  0.2584
 4794TIP3   OH235872   4.241   4.536   1.531 -0.5617  0.4295  0.1587
 4794TIP3    H135873   4.328   4.521   1.569  0.2362 -1.5359 -2.2080
 4794TIP3    H235874   4.226   4.630   1.542  1.4538  0.6632  1.4051
 4795TIP3   OH235875   5.765   4.271   3.088 -0.2650 -0.0884 -0.0690
 4795TIP3    H135876   5.829   4.246   3.155  0.5096 -1.1426 -1.1660
 4795TIP3    H235877   5.817   4.298   3.013 -1.1223  0.1396 -0.6003
 4796TIP3   OH235878   4.404   6.517   5.809 -0.3315 -0.0138 -0.3247
 4796TIP3    H135879   4.439   6.481   5.727  1.7522 -0.5180  0.7328
 4796TIP3    H235880   4.437   6.606   5.812  0.9660 -0.4999  0.6907
 4797TIP3   OH235881   5.137   5.906  12.345  0.2076  0.0699 -0.2927
 4797TIP3    H135882   5.172   5.922  12.432 -0.5790 -0.1297  0.0653
 4797TIP3    H235883   5.161   5.983  12.294  0.5617  0.2402  0.1315
 4798TIP3   OH235884   4.894   0.737   2.729  0.1625 -0.1546  0.5901
 4798TIP3    H135885   4.985   0.752   2.704  0.5772  0.9654  2.5244
 4798TIP3    H235886   4.846   0.811   2.693 -0.3390 -1.5035 -1.7409
 4799TIP3   OH235887   6.493   5.804   1.589 -0.1553  0.0913  0.1974
 4799TIP3    H135888   6.498   5.865   1.663  1.1361  1.7412 -1.1425
 4799TIP3    H235889   6.535   5.724   1.621  0.0168  0.6262  1.3681
 4800TIP3   OH235890   5.412   3.593  14.298 -0.1978 -0.7083  0.3446
 4800TIP3    H135891   5.323   3.628  14.300  1.1511  3.2580 -0.4142
 4800TIP3    H235892   5.430   3.579  14.205  0.2747 -0.6380  0.4241
 4801TIP3   OH235893   0.560   3.525   2.835 -0.4014 -0.5391 -0.1612
 4801TIP3    H135894   0.553   3.582   2.912  0.3665  0.8934 -1.1101
 4801TIP3    H235895   0.470   3.505   2.812 -0.6761  0.0013  0.4071
 4802TIP3   OH235896   0.384   5.850   4.654  0.1775 -0.5462 -0.6432
 4802TIP3    H135897   0.438   5.815   4.725 -2.0282  1.0786  2.0061
 4802TIP3    H235898   0.313   5.786   4.644 -0.7666  0.3093  0.2935
 4803TIP3   OH235899   2.794   2.436  16.507  0.5845  0.4040 -0.3489
 4803TIP3    H135900   2.867   2.375  16.516  1.5493  1.5395 -0.2123
 4803TIP3    H235901   2.776   2.465  16.597 -0.7456 -0.6324 -0.2440
 4804TIP3   OH235902   0.666   1.613   3.293 -0.3299 -0.4007 -0.2904
 4804TIP3    H135903   0.668   1.660   3.209  0.1788 -0.8003 -0.5080
 4804TIP3    H235904   0.617   1.671   3.351 -0.6005 -0.0685 -0.8344
 4805TIP3   OH235905   0.809   3.347  12.725 -0.2917 -0.2052  0.0021
 4805TIP3    H135906   0.836   3.421  12.780  2.0648 -0.8271 -0.1912
 4805TIP3    H235907   0.724   3.322  12.759  0.3660  0.4366  2.3569
 4806TIP3   OH235908   1.829   2.125   5.536  0.2868 -0.3347 -0.2768
 4806TIP3    H135909   1.772   2.082   5.472 -0.1200  0.4909 -0.4775
 4806TIP3    H235910   1.821   2.218   5.517  0.4347 -0.1004  0.7547
 4807TIP3   OH235911   5.396   5.017  13.450 -0.5578  0.0296 -0.0176
 4807TIP3    H135912   5.368   5.095  13.499 -0.4741 -0.1810  0.3673
 4807TIP3    H235913   5.327   5.005  13.384 -0.8393  0.1252  0.2571
 4808TIP3   OH235914   5.490   2.037   0.052 -0.3196 -0.1702  0.2450
 4808TIP3    H135915   5.421   1.996  -0.000 -0.4127  0.4186 -0.1076
 4808TIP3    H235916   5.539   2.091  -0.011  0.6318 -0.7940  0.4402
 4809TIP3   OH235917   2.790   5.434  13.652 -0.2997  0.0585  0.1397
 4809TIP3    H135918   2.698   5.420  13.670 -0.0094 -2.2709  0.1284
 4809TIP3    H235919   2.829   5.454  13.737 -0.5528 -0.6301  0.4181
 4810TIP3   OH235920   4.180   3.097  15.467 -0.1204  0.5165  0.2361
 4810TIP3    H135921   4.116   3.036  15.505 -1.7345  1.1150 -1.3467
 4810TIP3    H235922   4.216   3.050  15.392  1.1846  0.2711  0.9922
 4811TIP3   OH235923   0.377   5.605   0.867  0.3879  0.4394  0.2397
 4811TIP3    H135924   0.410   5.577   0.952 -0.8897 -0.3857  0.5035
 4811TIP3    H235925   0.430   5.681   0.844  2.1619 -0.5865  0.7769
 4812TIP3   OH235926   4.413   4.197   6.006 -0.3650 -0.1513 -0.1049
 4812TIP3    H135927   4.495   4.197   6.055 -0.4282 -0.0004  0.0019
 4812TIP3    H235928   4.427   4.259   5.934 -0.4947  0.1243  0.1025
 4813TIP3   OH235929   5.517   1.299   1.768 -0.4751  0.2469  0.2231
 4813TIP3    H135930   5.426   1.283   1.793 -0.2000 -0.0546  1.0728
 4813TIP3    H235931   5.538   1.228   1.706 -0.7355  0.1711  0.2206
 4814TIP3   OH235932   6.340   1.347   0.947 -0.0325  0.0362  0.0705
 4814TIP3    H135933   6.403   1.276   0.933  0.5400  0.4039  0.7076
 4814TIP3    H235934   6.262   1.303   0.981 -0.1300 -0.4275 -0.7487
 4815TIP3   OH235935   2.195   2.247   0.324 -0.1336  0.0799  0.2010
 4815TIP3    H135936   2.175   2.336   0.351  1.2699  0.3759  0.3298
 4815TIP3    H235937   2.200   2.250   0.229 -3.9670 -0.7308 -0.1719
 4816TIP3   OH235938   5.719   0.542   5.111 -0.2858 -0.5677 -0.1048
 4816TIP3    H135939   5.694   0.535   5.204 -1.2104  0.1476 -0.2949
 4816TIP3    H235940   5.740   0.452   5.086  0.6770 -0.6757  0.9803
 4817TIP3   OH235941   1.705   3.512  15.481  0.2880 -0.4342 -0.4915
 4817TIP3    H135942   1.792   3.528  15.517 -0.3897 -0.1349  1.1221
 4817TIP3    H235943   1.721   3.474  15.395  2.0073  0.6856 -0.7228
 4818TIP3   OH235944   1.345   4.253   4.618 -0.5545  0.1655  0.1788
 4818TIP3    H135945   1.349   4.311   4.694  1.2342 -1.7911  1.7107
 4818TIP3    H235946   1.405   4.181   4.639 -0.7301 -0.9740 -2.6899
 4819TIP3   OH235947   5.875   0.919  13.473  0.1799 -0.0363 -0.1973
 4819TIP3    H135948   5.820   0.846  13.445  0.4893 -0.0230 -0.8664
 4819TIP3    H235949   5.954   0.878  13.508 -0.9682 -0.1328  2.5043
 4820TIP3   OH235950   4.321   3.540   2.628 -0.4389 -0.7504 -0.1332
 4820TIP3    H135951   4.230   3.567   2.616 -0.4761 -0.6520  0.3531
 4820TIP3    H235952   4.351   3.517   2.540 -1.1821 -1.5690 -0.1904
 4821TIP3   OH235953   3.747   2.541  12.472 -0.1489  0.4052 -0.2889
 4821TIP3    H135954   3.683   2.493  12.525 -0.9002  0.6306 -0.9582
 4821TIP3    H235955   3.792   2.473  12.421 -0.4665  0.3062 -0.4460
 4822TIP3   OH235956   5.214   1.880   3.728 -0.1579 -0.2300 -0.5488
 4822TIP3    H135957   5.154   1.954   3.732 -0.6586 -0.6015 -0.9875
 4822TIP3    H235958   5.297   1.917   3.696  0.1398  0.4509  0.9326
 4823TIP3   OH235959   2.875   6.820  17.016  0.2588  0.6153  0.2557
 4823TIP3    H135960   2.789   6.792  16.987  0.8017  0.0047 -0.8088
 4823TIP3    H235961   2.864   6.839  17.109 -0.9379  0.2094  0.2085
 4824TIP3   OH235962   2.201   0.112   2.514  0.1162 -0.5037 -0.3046
 4824TIP3    H135963   2.214   0.096   2.608 -2.9365 -0.2508  0.2813
 4824TIP3    H235964   2.212   0.206   2.504  3.0032 -0.7888 -0.8120
 4825TIP3   OH235965   1.796   0.755  17.002 -0.2143 -0.1663 -0.1325
 4825TIP3    H135966   1.700   0.749  17.003 -0.1611 -1.1921 -0.0054
 4825TIP3    H235967   1.821   0.708  16.922  0.2283 -0.7912  0.3690
 4826TIP3   OH235968   1.320   0.047  11.907  0.4166  0.5859  0.5931
 4826TIP3    H135969   1.394   0.057  11.848  0.8178  0.9288  1.1562
 4826TIP3    H235970   1.348  -0.019  11.970 -0.5349 -0.8731 -0.4075
 4827TIP3   OH235971   5.870   5.701  13.127 -0.5090 -0.3352  0.6376
 4827TIP3    H135972   5.917   5.782  13.141 -0.3273 -0.3671  0.2402
 4827TIP3    H235973   5.790   5.727  13.080 -1.2514 -0.1914  1.9242
 4828TIP3   OH235974   4.379   6.068  13.593 -0.2256  0.3358 -0.1701
 4828TIP3    H135975   4.389   5.998  13.529 -1.0587  1.2938 -1.4026
 4828TIP3    H235976   4.296   6.110  13.570 -0.2051  1.1493  1.1235
 4829TIP3   OH235977   4.131   2.430  14.481 -0.8732 -0.2443  0.2947
 4829TIP3    H135978   4.125   2.446  14.387  1.2605 -1.0901 -0.0202
 4829TIP3    H235979   4.041   2.441  14.513 -1.4496  1.0944 -1.6537
 4830TIP3   OH235980   2.700   0.942   1.731 -0.3340 -0.3378 -0.1502
 4830TIP3    H135981   2.735   0.894   1.656  0.8651 -0.5769  0.5355
 4830TIP3    H235982   2.777   0.974   1.777 -1.0786  0.6338  0.4544
 4831TIP3   OH235983   1.151   4.445   3.601 -0.4892 -0.1641  0.1026
 4831TIP3    H135984   1.114   4.530   3.581  0.6126  0.1516 -0.7348
 4831TIP3    H235985   1.118   4.387   3.532 -1.0287 -0.3591  0.5206
 4832TIP3   OH235986   2.249   3.427   5.627  0.0872  0.1457  0.5535
 4832TIP3    H135987   2.312   3.358   5.606  1.7428  1.7448  0.0609
 4832TIP3    H235988   2.287   3.474   5.701 -0.6542  0.9545  0.4442
 4833TIP3   OH235989   6.105   2.713  12.949  0.4387  0.0259 -0.3444
 4833TIP3    H135990   6.189   2.753  12.924  1.1492 -0.3465  1.2795
 4833TIP3    H235991   6.089   2.647  12.882 -0.6342  2.7138 -2.9412
 4834TIP3   OH235992   2.206   6.613  13.728 -0.9557  1.0463  0.5946
 4834TIP3    H135993   2.251   6.682  13.777 -0.8313  1.0925  0.4179
 4834TIP3    H235994   2.113   6.627  13.746 -0.7878 -0.7986  3.3020
 4835TIP3   OH235995   1.787   0.644   5.767  0.3406 -0.1286 -0.5117
 4835TIP3    H135996   1.871   0.637   5.813 -0.8551  1.4567  2.1505
 4835TIP3    H235997   1.744   0.560   5.782 -0.3852  0.6377  2.2357
 4836TIP3   OH235998   1.682   4.463  11.885 -0.1529 -0.0344 -0.4365
 4836TIP3    H135999   1.630   4.427  11.956 -0.4753 -0.0150 -0.6575
 4836TIP3    H236000   1.712   4.387  11.835 -0.4834 -0.0214 -0.6611
 4837TIP3   OH236001   5.058   6.110  13.476 -0.2339 -0.1310 -0.1287
 4837TIP3    H136002   5.074   6.043  13.542 -0.0261 -1.3311 -1.3605
 4837TIP3    H236003   4.982   6.078  13.427 -1.4868  1.5843  0.5777
 4838TIP3   OH236004   0.546   6.166  14.416  0.7142 -0.1171  0.2158
 4838TIP3    H136005   0.454   6.178  14.441  0.5127  1.5186 -1.1741
 4838TIP3    H236006   0.594   6.179  14.498 -0.2165  0.1918  0.7332
 4839TIP3   OH236007   2.265   1.395   0.842  0.5611 -0.1679  0.0180
 4839TIP3    H136008   2.355   1.384   0.874  0.4497 -0.9973  0.0642
 4839TIP3    H236009   2.272   1.387   0.747  0.2976 -2.1320  0.1270
 4840TIP3   OH236010   2.390   2.708   1.950  0.0999  0.3575  0.3126
 4840TIP3    H136011   2.377   2.661   1.868  3.0921  2.0375 -1.3048
 4840TIP3    H236012   2.440   2.647   2.005 -1.3968 -0.5427  0.7428
 4841TIP3   OH236013   0.274   5.196   4.534  0.4508  0.1211 -0.2425
 4841TIP3    H136014   0.203   5.181   4.472 -0.5448 -0.1313  0.9120
 4841TIP3    H236015   0.279   5.116   4.586  0.1180  0.9295  1.0894
 4842TIP3   OH236016   5.441   2.016   3.749  0.7315  0.3136  0.1058
 4842TIP3    H136017   5.529   2.052   3.764  0.5301  0.9183 -0.1759
 4842TIP3    H236018   5.388   2.090   3.721 -0.6906  0.6749  3.3122
 4843TIP3   OH236019   1.519   4.193   3.135 -0.3415  1.0141 -0.2917
 4843TIP3    H136020   1.500   4.121   3.075 -0.0321  0.5025  0.2067
 4843TIP3    H236021   1.440   4.246   3.136 -0.8316  0.2856 -0.1237
 4844TIP3   OH236022   2.476   0.502  16.961 -0.7713  0.2985  0.2114
 4844TIP3    H136023   2.422   0.478  16.886 -0.2628 -0.4272  0.0646
 4844TIP3    H236024   2.419   0.557  17.015 -0.8981  1.4950 -1.0816
 4845TIP3   OH236025   4.985   2.086   1.717 -0.3171 -0.0634 -0.1427
 4845TIP3    H136026   5.009   1.993   1.720  1.0949  0.3024  2.4182
 4845TIP3    H236027   4.902   2.087   1.670 -0.1444 -2.5625 -0.6662
 4846TIP3   OH236028   2.060   2.862   4.709  0.6315 -0.5826  0.4272
 4846TIP3    H136029   2.112   2.938   4.737  0.4449 -0.0701 -0.5658
 4846TIP3    H236030   2.122   2.789   4.712  0.8188 -0.3911  1.3749
 4847TIP3   OH236031   4.863   0.753  16.205  0.7892 -0.1335  0.5479
 4847TIP3    H136032   4.835   0.811  16.134 -1.0631 -3.0458 -1.3532
 4847TIP3    H236033   4.958   0.762  16.208  1.1292 -0.7394 -3.2836
 4848TIP3   OH236034   2.897   5.242   3.116  0.0924  0.3019  0.3102
 4848TIP3    H136035   2.855   5.270   3.198  0.1358 -0.6881  0.6846
 4848TIP3    H236036   2.838   5.175   3.081 -0.1086  0.9720 -0.6671
 4849TIP3   OH236037   0.226   0.757  16.177 -0.5767  0.1062 -0.0043
 4849TIP3    H136038   0.259   0.726  16.261 -0.1751  1.2439  0.2746
 4849TIP3    H236039   0.135   0.779  16.194 -0.5830  0.0427  0.0453
 4850TIP3   OH236040   5.309   2.829   0.370 -0.3240 -0.1913  0.5673
 4850TIP3    H136041   5.310   2.749   0.423  0.2832 -0.9272 -0.4980
 4850TIP3    H236042   5.262   2.804   0.291  1.1453  0.0276 -0.4309
 4851TIP3   OH236043   2.643   4.967   1.038  0.0550  0.1273  0.4962
 4851TIP3    H136044   2.576   4.972   1.107  0.3757  0.5318  0.7848
 4851TIP3    H236045   2.643   4.875   1.012 -0.6813  0.1459  0.4250
 4852TIP3   OH236046   6.109   6.168   4.690 -0.0239 -0.5200 -0.1304
 4852TIP3    H136047   6.082   6.137   4.603 -1.4272 -1.7775  0.7035
 4852TIP3    H236048   6.028   6.168   4.741  0.1034  3.2473  0.3836
 4853TIP3   OH236049   1.114   3.344  16.267 -0.1018  0.1766 -0.0919
 4853TIP3    H136050   1.209   3.340  16.252 -0.2521 -1.1545 -0.8557
 4853TIP3    H236051   1.102   3.418  16.326  1.4728  0.0425  0.4344
 4854TIP3   OH236052   0.314   3.245   3.516  0.1329 -0.1094  0.3515
 4854TIP3    H136053   0.349   3.334   3.509 -1.3455  0.5224  0.5212
 4854TIP3    H236054   0.224   3.253   3.483  0.2057 -1.7017 -0.3181
 4855TIP3   OH236055   6.829   5.993   4.630  0.1551  0.3102  0.3005
 4855TIP3    H136056   6.903   6.016   4.686 -0.0019  0.2861  0.5211
 4855TIP3    H236057   6.797   5.910   4.666 -0.1382  0.4512  0.3668
 4856TIP3   OH236058   1.467   4.741   2.701 -0.5586  0.6946  0.6045
 4856TIP3    H136059   1.486   4.654   2.736  0.1054 -0.0099 -1.3687
 4856TIP3    H236060   1.522   4.800   2.753  1.6670 -0.4958 -0.2733
 4857TIP3   OH236061   0.665   2.413   2.961 -0.1513  0.0699  0.2792
 4857TIP3    H136062   0.604   2.344   2.935 -0.6498  0.5583  0.1499
 4857TIP3    H236063   0.688   2.392   3.052  0.7406 -1.0167 -0.1672
 4858TIP3   OH236064   5.250   0.902   5.276  0.0836  0.3592 -0.3695
 4858TIP3    H136065   5.244   0.980   5.221 -0.2182 -0.4885 -1.5894
 4858TIP3    H236066   5.258   0.936   5.365 -0.6399  1.7644 -0.8058
 4859TIP3   OH236067   2.315   1.360  17.060  0.3992 -0.7108 -0.3655
 4859TIP3    H136068   2.385   1.381  17.122 -0.3436 -0.0169  0.2643
 4859TIP3    H236069   2.245   1.422  17.081 -1.0782 -2.4781  0.1503
 4860TIP3   OH236070   1.389   3.569  13.382 -0.1650 -0.4027 -0.3777
 4860TIP3    H136071   1.295   3.562  13.399 -0.1114  1.0331  0.7296
 4860TIP3    H236072   1.401   3.658  13.349  0.5987 -1.1592 -2.2522
 4861TIP3   OH236073   6.648   2.939   0.735 -0.2586  0.0368  0.1484
 4861TIP3    H136074   6.572   2.881   0.740 -0.1421 -0.3164 -1.5747
 4861TIP3    H236075   6.625   3.012   0.792 -1.5421 -0.4480  0.3041
 4862TIP3   OH236076   3.604   2.091  16.999 -0.0613  0.0904  0.5629
 4862TIP3    H136077   3.581   1.999  17.015 -0.3453  0.2826  1.2823
 4862TIP3    H236078   3.527   2.140  17.026 -1.0627  0.4040 -2.4492
 4863TIP3   OH236079   1.176   1.716   3.264  0.1470  0.8025 -0.5027
 4863TIP3    H136080   1.090   1.720   3.306 -0.1098  3.4675 -1.1150
 4863TIP3    H236081   1.180   1.627   3.228 -1.7572  0.1528  0.6972
 4864TIP3   OH236082   4.222   1.377   1.354  0.3129  0.6113  0.6765
 4864TIP3    H136083   4.220   1.320   1.431 -0.9187  2.1357  1.8427
 4864TIP3    H236084   4.159   1.338   1.294  0.6895 -0.1524  0.7693
 4865TIP3   OH236085   1.405   0.263  15.206 -0.2747  0.4952 -0.4007
 4865TIP3    H136086   1.432   0.234  15.119 -1.7607  2.0059 -1.4524
 4865TIP3    H236087   1.367   0.186  15.247  0.9884 -0.3849 -0.8463
 4866TIP3   OH236088   1.099   1.320  15.578 -0.3679  0.3252 -0.0775
 4866TIP3    H136089   1.193   1.317  15.562 -0.3527  1.3285 -0.2435
 4866TIP3    H236090   1.060   1.336  15.491 -0.8341 -1.8068 -0.3168
 4867TIP3   OH236091   2.161   1.694  13.394  0.1104  0.0917 -0.1412
 4867TIP3    H136092   2.226   1.639  13.436 -0.9838 -0.7677  0.4853
 4867TIP3    H236093   2.129   1.751  13.465 -1.8374 -1.4541  0.3343
 4868TIP3   OH236094   1.865   6.120  13.741  0.2556 -0.1202  0.7681
 4868TIP3    H136095   1.923   6.046  13.723  0.3094  0.3136 -0.9565
 4868TIP3    H236096   1.890   6.149  13.829  1.1275 -1.3179  0.9368
 4869TIP3   OH236097   0.950   3.129   6.288 -0.9436  0.3296  0.4218
 4869TIP3    H136098   0.867   3.122   6.335 -0.2720 -1.0214  1.5155
 4869TIP3    H236099   0.969   3.039   6.262 -0.5049  0.8354 -1.0769
 4870TIP3   OH236100   5.225   5.543  14.662  0.5651  0.2978 -0.1258
 4870TIP3    H136101   5.238   5.481  14.590 -0.7517 -0.2082  0.0363
 4870TIP3    H236102   5.201   5.625  14.619 -3.3838 -0.7583 -0.3553
 4871TIP3   OH236103   3.611   1.468  15.551 -0.1369  0.0316 -0.3177
 4871TIP3    H136104   3.532   1.477  15.497 -1.0284  1.1604  1.1157
 4871TIP3    H236105   3.579   1.434  15.635  0.7386  1.4427  0.6291
 4872TIP3   OH236106   0.197   5.403  12.767 -0.0085  0.0347 -0.0807
 4872TIP3    H136107   0.275   5.454  12.744  0.3268 -0.2550  0.3804
 4872TIP3    H236108   0.131   5.468  12.789  0.1628  0.2822 -0.2946
 4873TIP3   OH236109   6.375   5.205   4.639  0.1276  0.0919  0.3683
 4873TIP3    H136110   6.463   5.208   4.602 -0.7927  2.1367 -2.0162
 4873TIP3    H236111   6.324   5.155   4.575 -0.9264  1.1246  0.3562
 4874TIP3   OH236112   5.640   4.051   1.672 -0.6895  0.2131 -0.2630
 4874TIP3    H136113   5.558   4.005   1.690 -1.4978 -0.0644 -3.8727
 4874TIP3    H236114   5.692   3.989   1.621  0.6068  1.3699 -0.4129
 4875TIP3   OH236115   4.520   4.821  15.191 -0.2882 -0.2036 -0.6918
 4875TIP3    H136116   4.426   4.820  15.173 -0.5066  0.5506  0.3084
 4875TIP3    H236117   4.545   4.913  15.188  0.1414 -0.2655  0.3506
 4876TIP3   OH236118   3.382   1.741  12.247 -0.0206 -0.2957  0.1827
 4876TIP3    H136119   3.379   1.808  12.315  0.1491  1.0725 -1.1194
 4876TIP3    H236120   3.304   1.757  12.194  0.2331 -0.8605 -0.3751
 4877TIP3   OH236121   1.540   4.309  15.332  0.0522  0.5245 -0.1007
 4877TIP3    H136122   1.582   4.233  15.372  0.8240  0.0680 -1.7060
 4877TIP3    H236123   1.449   4.283  15.322 -0.0768  0.5089  0.9885
 4878TIP3   OH236124   0.298   5.333  11.492 -0.3000  0.2917 -0.2518
 4878TIP3    H136125   0.311   5.247  11.453 -0.6084 -0.2140  0.7119
 4878TIP3    H236126   0.354   5.333  11.570 -2.2577 -0.0846  1.2549
 4879TIP3   OH236127   4.166   2.536  12.000  0.8018 -0.0671  0.3908
 4879TIP3    H136128   4.232   2.548  12.068  1.0047  1.0988  0.0159
 4879TIP3    H236129   4.216   2.504  11.924  0.8121  0.0382  0.3522
 4880TIP3   OH236130   1.396   2.882   5.481  0.3900 -0.8209 -0.3821
 4880TIP3    H136131   1.329   2.946   5.455  0.6350 -1.3263 -2.4702
 4880TIP3    H236132   1.349   2.817   5.532 -0.4781 -0.5272 -0.7818
 4881TIP3   OH236133   6.651   5.714   3.342 -0.0527 -0.1745 -0.3017
 4881TIP3    H136134   6.674   5.783   3.279 -2.3507  0.0308 -1.0389
 4881TIP3    H236135   6.623   5.641   3.288  1.2444 -1.3054  0.4976
 4882TIP3   OH236136   5.501   4.757  11.038  0.0932 -0.2093  0.1350
 4882TIP3    H136137   5.568   4.708  10.991 -0.7299 -0.7283 -0.5392
 4882TIP3    H236138   5.516   4.848  11.014  0.2841 -0.3701 -0.3665
 4883TIP3   OH236139   4.348   4.151  12.552  0.4119 -0.9335 -0.0369
 4883TIP3    H136140   4.309   4.092  12.616 -1.3694 -0.9133 -1.0261
 4883TIP3    H236141   4.305   4.235  12.567  0.0275 -0.9047 -1.1676
 4884TIP3   OH236142   1.080   0.144  16.609 -0.2463 -0.1829 -0.0140
 4884TIP3    H136143   1.061   0.064  16.560  0.8873 -0.0693 -0.6830
 4884TIP3    H236144   1.169   0.169  16.581  0.4072 -0.0487  2.0317
 4885TIP3   OH236145   4.564   5.549   2.774  0.5176 -0.9775 -0.2392
 4885TIP3    H136146   4.617   5.627   2.794  0.5649 -0.8285 -0.9420
 4885TIP3    H236147   4.488   5.557   2.832  0.7514 -0.6495  0.0252
 4886TIP3   OH236148   3.215   5.333   2.502 -0.8319 -0.1523 -0.3277
 4886TIP3    H136149   3.203   5.238   2.503 -0.0986 -0.2646  1.3405
 4886TIP3    H236150   3.265   5.352   2.582 -1.9255  1.7753 -0.0423
 4887TIP3   OH236151   1.507   5.666  10.944  0.5365 -0.4701 -0.0160
 4887TIP3    H136152   1.520   5.656  10.850  1.4255 -0.5209  0.1023
 4887TIP3    H236153   1.596   5.669  10.980  0.2886  1.7395  0.6013
 4888TIP3   OH236154   0.712   6.534  12.335  0.9042  0.2039  0.1631
 4888TIP3    H136155   0.691   6.482  12.258 -0.2159  1.4182 -0.3975
 4888TIP3    H236156   0.643   6.601  12.338  0.6273 -0.1023  2.4958
 4889TIP3   OH236157   3.344   0.063   0.545 -0.7543  0.1114 -0.4010
 4889TIP3    H136158   3.326   0.009   0.622 -2.9233  2.3892  0.8328
 4889TIP3    H236159   3.417   0.119   0.571 -1.2043  0.5805 -0.1223
 4890TIP3   OH236160   2.197   5.490  14.611  0.4714  0.2070  0.0049
 4890TIP3    H136161   2.222   5.470  14.521  0.4835 -1.0420  0.2602
 4890TIP3    H236162   2.200   5.405  14.656 -0.2031  0.6948  1.0157
 4891TIP3   OH236163   5.894   3.265   2.992  0.2364  0.4628 -1.0158
 4891TIP3    H136164   5.899   3.335   2.926 -0.4711  1.5306  0.0180
 4891TIP3    H236165   5.981   3.265   3.033  0.2789  0.6602 -1.1033
 4892TIP3   OH236166   3.352   6.522   1.380 -0.3074 -0.1852 -0.0243
 4892TIP3    H136167   3.379   6.614   1.379  0.1624 -0.3199 -0.3577
 4892TIP3    H236168   3.381   6.490   1.465  0.5788 -0.3182 -0.3633
 4893TIP3   OH236169   5.491   5.282   1.562 -0.2561 -0.2145 -0.5455
 4893TIP3    H136170   5.561   5.304   1.624 -0.5264  3.5296 -1.3334
 4893TIP3    H236171   5.416   5.260   1.617  0.6758 -1.4187  0.3209
 4894TIP3   OH236172   6.068   5.838   5.477  0.6837  0.3133  0.0315
 4894TIP3    H136173   6.160   5.836   5.451 -0.1923 -2.3727 -3.7279
 4894TIP3    H236174   6.027   5.903   5.419 -0.0493  0.4407  0.6616
 4895TIP3   OH236175   1.181   4.773   4.098 -0.3699  0.5953 -0.4426
 4895TIP3    H136176   1.087   4.754   4.091 -0.1804  0.2073 -2.4988
 4895TIP3    H236177   1.198   4.775   4.192 -2.3221  0.1094 -0.0328
 4896TIP3   OH236178   0.969   6.694  11.877 -0.3210  0.3059  0.3529
 4896TIP3    H136179   0.895   6.738  11.919 -1.3256 -0.5446 -0.4773
 4896TIP3    H236180   1.005   6.758  11.816 -0.1983  0.8133  0.9551
 4897TIP3   OH236181   2.011   4.720   1.422 -0.7722 -0.1924 -0.1189
 4897TIP3    H136182   2.020   4.736   1.328  0.0197 -0.4487 -0.0935
 4897TIP3    H236183   2.063   4.789   1.463 -0.3512 -0.6326  0.0967
 4898TIP3   OH236184   4.263   0.320   4.099  0.2307  0.7577 -0.0838
 4898TIP3    H136185   4.172   0.333   4.075 -0.2868 -1.5383  0.4233
 4898TIP3    H236186   4.270   0.227   4.118  2.4051  1.0963  1.0887
 4899TIP3   OH236187   4.421   2.126  15.277  0.1187 -0.0883  0.2414
 4899TIP3    H136188   4.487   2.117  15.346  0.2122 -2.8803 -0.1065
 4899TIP3    H236189   4.350   2.069  15.304 -0.2526 -0.5220 -1.5215
 4900TIP3   OH236190   6.640   6.369  10.688 -0.0549  0.2863  0.6941
 4900TIP3    H136191   6.561   6.407  10.649  0.1707  1.0618  0.9753
 4900TIP3    H236192   6.676   6.439  10.743  1.3935  0.2999 -0.2147
 4901TIP3   OH236193   2.563   6.038   2.129 -0.2867 -0.3358  0.1625
 4901TIP3    H136194   2.564   6.131   2.109 -2.5856 -0.1112  0.8356
 4901TIP3    H236195   2.653   6.009   2.115  0.1075  1.6068 -1.7243
 4902TIP3   OH236196   4.887   0.752  15.680 -0.5087 -0.4089  0.7612
 4902TIP3    H136197   4.847   0.667  15.661  0.2945 -1.0938  1.9644
 4902TIP3    H236198   4.952   0.764  15.610 -0.9278 -0.5792  0.3411
 4903TIP3   OH236199   3.512   3.621  13.098 -0.0758 -0.5626  0.0323
 4903TIP3    H136200   3.575   3.613  13.026 -1.4274 -0.5417 -1.1727
 4903TIP3    H236201   3.510   3.715  13.118  1.0270 -0.6779  0.7976
 4904TIP3   OH236202   3.992   3.004   0.923 -0.4238  0.3000  0.0400
 4904TIP3    H136203   3.906   3.011   0.964 -1.1361 -2.8436 -0.6502
 4904TIP3    H236204   4.042   2.948   0.982  0.6401  0.8259 -0.3350
 4905TIP3   OH236205   6.764   1.734  14.029  0.1174 -0.1474  0.5280
 4905TIP3    H136206   6.680   1.777  14.017  0.2734  0.0138  0.0239
 4905TIP3    H236207   6.771   1.722  14.124  1.9285  4.7473  1.2829
 4906TIP3   OH236208   5.823   3.610   1.338 -0.2559 -0.3856  0.1090
 4906TIP3    H136209   5.808   3.515   1.343  0.0823 -0.3724  2.3658
 4906TIP3    H236210   5.904   3.624   1.387  0.3055  0.9923 -1.1287
 4907TIP3   OH236211   4.440   1.521  13.711  0.3084 -0.9839 -0.2396
 4907TIP3    H136212   4.395   1.437  13.716  0.4584 -1.0157  0.7121
 4907TIP3    H236213   4.451   1.549  13.802 -0.3541  0.4112 -0.5571
 4908TIP3   OH236214   4.722   1.601   4.219  0.0864  0.3818  0.4536
 4908TIP3    H136215   4.761   1.525   4.262 -0.8440  0.3787  1.3238
 4908TIP3    H236216   4.780   1.618   4.144 -0.0147 -1.5384 -0.1282
 4909TIP3   OH236217   0.953   6.055   0.907 -0.3191 -0.3660  0.2508
 4909TIP3    H136218   0.910   6.138   0.924  1.1489  0.4289  0.2264
 4909TIP3    H236219   0.917   6.025   0.823 -1.3888 -0.1469  0.6112
 4910TIP3   OH236220   0.927   6.610  16.171 -0.1434 -0.0665  0.0472
 4910TIP3    H136221   0.996   6.619  16.105 -1.7799 -0.6957 -1.8416
 4910TIP3    H236222   0.910   6.516  16.176 -0.5881  0.0404  0.8030
 4911TIP3   OH236223   3.485   3.364   1.658 -0.1674  0.2259 -0.0686
 4911TIP3    H136224   3.456   3.410   1.579 -0.7578 -0.0877 -0.0344
 4911TIP3    H236225   3.411   3.369   1.718 -0.0845 -0.4046  0.0920
 4912TIP3   OH236226   3.361   3.095  12.944  0.4401 -0.2725 -0.1044
 4912TIP3    H136227   3.318   3.176  12.917 -1.6900 -0.8560  1.3005
 4912TIP3    H236228   3.327   3.027  12.886  0.2550 -0.5797  0.3576
 4913TIP3   OH236229   6.429   5.645   5.610 -0.1891  0.5001 -0.3960
 4913TIP3    H136230   6.518   5.635   5.644 -0.1789 -0.2133 -0.6189
 4913TIP3    H236231   6.398   5.728   5.647  0.7988  1.0865 -0.8364
 4914TIP3   OH236232   1.859   1.710  12.583  0.3400 -0.2344  0.2049
 4914TIP3    H136233   1.840   1.796  12.621  3.9707  0.9139 -0.2283
 4914TIP3    H236234   1.845   1.722  12.489  1.6853  0.2293  0.0370
 4915TIP3   OH236235   4.327   1.761   3.670 -0.4748 -0.1132  0.4811
 4915TIP3    H136236   4.380   1.841   3.674  1.4604 -0.4080 -6.1587
 4915TIP3    H236237   4.378   1.696   3.717  0.9062  1.3441  1.0959
 4916TIP3   OH236238   6.374   6.813  11.746 -1.0557  0.0114 -0.2571
 4916TIP3    H136239   6.384   6.879  11.678 -1.3114 -0.2226 -0.5223
 4916TIP3    H236240   6.450   6.756  11.735  0.5670  1.6648  1.5645
 4917TIP3   OH236241   0.310   2.972   3.272  0.2194 -0.2763 -0.1020
 4917TIP3    H136242   0.223   2.932   3.273 -0.4130  1.0323 -0.1311
 4917TIP3    H236243   0.338   2.969   3.363 -1.1837  1.9617  0.4849
 4918TIP3   OH236244   6.250   2.828   2.508  0.1407 -0.0851  0.2329
 4918TIP3    H136245   6.270   2.878   2.428 -0.6521  0.4883  0.3775
 4918TIP3    H236246   6.320   2.763   2.514  0.8969  0.6632 -0.2637
 4919TIP3   OH236247   2.570   2.801  14.750 -0.1723 -0.5552 -0.3270
 4919TIP3    H136248   2.552   2.841  14.836  0.0818  0.0452 -0.5449
 4919TIP3    H236249   2.517   2.852  14.689 -0.8102 -1.3606 -0.4611
 4920TIP3   OH236250   4.456   0.912  12.098 -0.0461 -0.3493 -0.4841
 4920TIP3    H136251   4.446   0.892  12.005  0.1753  0.5180 -0.7031
 4920TIP3    H236252   4.518   0.985  12.100 -2.0057  1.3647  0.1809
 4921TIP3   OH236253   5.987   6.102  16.834  0.6730  0.7635  0.0875
 4921TIP3    H136254   5.917   6.136  16.779  2.2783  2.8240 -0.8562
 4921TIP3    H236255   5.948   6.029  16.882 -2.0032  1.6607 -0.5636
 4922TIP3   OH236256   2.671   6.008  14.323 -0.0640  0.0662 -0.1904
 4922TIP3    H136257   2.763   6.024  14.343  0.1117 -1.9061  0.7935
 4922TIP3    H236258   2.623   6.055  14.392  0.2383  0.1350 -0.0261
 4923TIP3   OH236259   3.850   3.976   0.888 -0.4956  0.4322 -0.2114
 4923TIP3    H136260   3.921   4.009   0.833 -0.1969  0.4362  0.1700
 4923TIP3    H236261   3.869   4.011   0.975 -0.1755 -0.7280  0.2006
 4924TIP3   OH236262   3.106   3.371   2.857 -0.0446  0.0107  0.0073
 4924TIP3    H136263   3.140   3.419   2.782  0.0439 -1.6104 -1.0258
 4924TIP3    H236264   3.035   3.317   2.823 -1.6714  1.0412  1.5699
 4925TIP3   OH236265   3.940   0.933   3.770 -0.0451 -0.2058 -0.0535
 4925TIP3    H136266   3.945   0.859   3.708  1.0048 -0.2722  0.0940
 4925TIP3    H236267   4.030   0.949   3.795 -0.3545  0.5767  0.5927
 4926TIP3   OH236268   6.610   6.482  12.499  1.0488  1.1417  0.0610
 4926TIP3    H136269   6.593   6.483  12.594  1.8976  1.5147  0.2172
 4926TIP3    H236270   6.592   6.572  12.471  1.2515  1.1520 -0.0396
 4927TIP3   OH236271   6.317   6.465  12.204  0.2468 -1.1410 -0.2623
 4927TIP3    H136272   6.264   6.390  12.176  1.0175 -1.6676 -0.3438
 4927TIP3    H236273   6.307   6.465  12.300  0.7681 -1.7578 -0.2007
 4928TIP3   OH236274   0.898   2.493  13.674 -0.1919 -0.3324 -0.0398
 4928TIP3    H136275   0.981   2.531  13.645  0.6647 -1.1750  1.2226
 4928TIP3    H236276   0.859   2.560  13.730 -1.0926  0.6463 -1.7367
 4929TIP3   OH236277   4.407   6.639  15.104 -0.0804 -0.3525  0.4517
 4929TIP3    H136278   4.452   6.635  15.020 -0.5094  3.6379 -0.1784
 4929TIP3    H236279   4.475   6.662  15.167  0.0851 -2.4677  1.0994
 4930TIP3   OH236280   4.196   3.522  12.004  0.1044 -0.0607 -0.0981
 4930TIP3    H136281   4.262   3.458  12.028  0.5523  0.3995 -0.0882
 4930TIP3    H236282   4.212   3.596  12.063  0.5751  0.6746 -1.1233
 4931TIP3   OH236283   2.985   2.558   2.197  0.0644 -0.0830 -0.0409
 4931TIP3    H136284   3.027   2.524   2.118 -1.4423 -1.9154 -0.1085
 4931TIP3    H236285   2.892   2.547   2.181 -0.5122  3.0969  0.4468
 4932TIP3   OH236286   4.003   3.281   3.014 -1.0906 -0.3174  0.7486
 4932TIP3    H136287   4.046   3.293   2.929 -0.1845  3.9431  1.6305
 4932TIP3    H236288   3.913   3.255   2.991  0.1330 -3.4816 -1.2476
 4933TIP3   OH236289   5.968   5.356  15.132 -1.2913  0.1901  0.0010
 4933TIP3    H136290   5.949   5.349  15.039 -2.5381  1.6511  0.0819
 4933TIP3    H236291   5.905   5.297  15.174 -0.0005 -1.2968 -0.1139
 4934TIP3   OH236292   3.049   3.749   2.796 -0.4043 -0.1936  0.8293
 4934TIP3    H136293   3.113   3.790   2.737  0.4528 -1.0760  1.1097
 4934TIP3    H236294   2.968   3.798   2.782  0.1761  0.5642  0.0142
 4935TIP3   OH236295   3.769   1.937   4.480  0.5845 -0.1990  0.2266
 4935TIP3    H136296   3.824   1.880   4.426  0.4329 -1.3668  1.2718
 4935TIP3    H236297   3.729   1.878   4.544  0.8997  1.1749  1.7440
 4936TIP3   OH236298   6.503   1.390  15.723 -0.2593 -0.2496  0.4359
 4936TIP3    H136299   6.500   1.485  15.734  1.5952 -0.3573  2.4761
 4936TIP3    H236300   6.437   1.372  15.656 -0.3310  2.5015 -0.3599
 4937TIP3   OH236301   1.698   1.695  10.445 -0.1134  0.9344 -0.4599
 4937TIP3    H136302   1.667   1.706  10.534 -0.0906  1.4144 -0.5108
 4937TIP3    H236303   1.781   1.647  10.454 -0.0656  1.0640 -0.2185
 4938TIP3   OH236304   6.010   2.361  14.545 -0.3805  0.3063 -0.2455
 4938TIP3    H136305   5.962   2.328  14.620 -0.0005  0.0133 -0.1267
 4938TIP3    H236306   6.088   2.403  14.582 -0.9978  1.6050 -0.3747
 4939TIP3   OH236307   2.889   6.214   2.877  0.0118  0.3132 -0.1346
 4939TIP3    H136308   2.956   6.177   2.935 -1.1281 -1.2586  0.2302
 4939TIP3    H236309   2.831   6.263   2.936 -0.2124  0.1064 -0.1828
 4940TIP3   OH236310   1.791   4.023  16.867 -0.1158  0.1105  0.5932
 4940TIP3    H136311   1.745   4.051  16.788  3.1177  1.8984 -0.8840
 4940TIP3    H236312   1.842   3.946  16.839  1.4651  1.0720  0.6819
 4941TIP3   OH236313   6.736   0.662   0.576  1.1319  0.0930  0.0259
 4941TIP3    H136314   6.740   0.755   0.597  0.9684  0.3720 -1.1410
 4941TIP3    H236315   6.710   0.620   0.658 -1.4411  1.3369 -0.0496
 4942TIP3   OH236316   6.233   2.240   4.581 -0.3523  0.0038  0.7295
 4942TIP3    H136317   6.284   2.187   4.642  0.6407 -0.0140 -0.0975
 4942TIP3    H236318   6.203   2.179   4.514  0.4817  0.4108 -0.0264
 4943TIP3   OH236319   1.164   0.506   6.224 -0.2697  0.2324 -0.2717
 4943TIP3    H136320   1.221   0.574   6.259  0.3879 -0.3732 -0.1405
 4943TIP3    H236321   1.133   0.541   6.140  1.3482  0.0555 -0.9920
 4944TIP3   OH236322   0.840   4.407  16.407  0.0189  0.0446  0.7579
 4944TIP3    H136323   0.755   4.381  16.444 -0.1257 -1.0523 -0.2744
 4944TIP3    H236324   0.819   4.433  16.317  0.6954  0.3416  0.6847
 4945TIP3   OH236325   1.273   5.788   3.111 -0.1001  0.2465  0.0158
 4945TIP3    H136326   1.264   5.736   3.191 -0.2644  2.4971  1.5600
 4945TIP3    H236327   1.196   5.846   3.111 -0.3494 -0.0070 -2.0538
 4946TIP3   OH236328   5.079   1.243   1.572  0.6802 -0.0791  0.1809
 4946TIP3    H136329   5.146   1.205   1.629  0.2529 -0.9935  0.0898
 4946TIP3    H236330   5.009   1.269   1.632 -0.2560 -2.0560  0.0272
 4947TIP3   OH236331   5.156   4.919   0.426  0.5020 -0.3948  0.3674
 4947TIP3    H136332   5.150   4.835   0.382 -0.2549  0.7886 -1.9210
 4947TIP3    H236333   5.224   4.967   0.378 -2.8609  2.2965 -2.1707
 4948TIP3   OH236334   1.018   3.619   1.692 -0.5599  0.5666 -0.2150
 4948TIP3    H136335   0.984   3.540   1.735  0.0382  0.1644 -0.4726
 4948TIP3    H236336   1.090   3.648   1.748 -1.2388  1.3551  0.2697
 4949TIP3   OH236337   4.192   2.220   0.076 -0.1524 -0.4742  0.0202
 4949TIP3    H136338   4.174   2.130   0.053  1.0946 -0.3352 -1.6393
 4949TIP3    H236339   4.286   2.230   0.064 -0.1973  0.9456  0.5982
 4950TIP3   OH236340   3.691   1.305  10.691  0.3258 -0.1451  0.0547
 4950TIP3    H136341   3.762   1.314  10.627 -0.9192  1.4622 -1.1905
 4950TIP3    H236342   3.611   1.306  10.638 -0.7001 -0.1737  1.5486
 4951TIP3   OH236343   1.118   1.533  16.762  0.0522  0.2377  0.6059
 4951TIP3    H136344   1.183   1.463  16.757  1.0700  1.2027 -0.2457
 4951TIP3    H236345   1.144   1.594  16.692 -1.5572  0.8278  0.4904
 4952TIP3   OH236346   6.813   5.198   0.676  0.6484  0.2216 -0.2268
 4952TIP3    H136347   6.779   5.281   0.642  1.1690  0.9430  0.9206
 4952TIP3    H236348   6.812   5.139   0.601 -1.1279  0.8159 -0.7378
 4953TIP3   OH236349   6.078   4.358   2.631 -0.4464 -0.1310 -0.9076
 4953TIP3    H136350   6.129   4.369   2.551 -2.1963  2.2772 -1.7951
 4953TIP3    H236351   6.001   4.306   2.604 -0.1896 -0.8215 -0.3559
 4954TIP3   OH236352   1.035   3.613  15.314  0.5051  0.1192 -0.4176
 4954TIP3    H136353   1.027   3.572  15.227 -0.9113  0.9978 -0.7232
 4954TIP3    H236354   1.098   3.684  15.301 -1.7203  2.0547 -1.4971
 4955TIP3   OH236355   5.168   3.345  15.529  0.0843  0.0568  0.7583
 4955TIP3    H136356   5.113   3.287  15.477 -0.5781 -0.0013  1.4929
 4955TIP3    H236357   5.243   3.365  15.473 -0.9857  0.6659 -0.5210
 4956TIP3   OH236358   1.589   6.518   2.810 -0.8915  0.2403  0.6727
 4956TIP3    H136359   1.662   6.459   2.830 -2.7164 -2.4810 -0.1658
 4956TIP3    H236360   1.575   6.568   2.891  1.2325  0.1793  1.1502
 4957TIP3   OH236361   2.276   6.718  14.871  0.3781  0.1903 -0.4142
 4957TIP3    H136362   2.354   6.685  14.915 -0.1980 -0.6981 -0.0135
 4957TIP3    H236363   2.267   6.663  14.793 -0.7909 -0.9035  0.4451
 4958TIP3   OH236364   6.760   5.015  11.830  0.3427  0.3134  0.2767
 4958TIP3    H136365   6.671   5.044  11.852  0.4653 -0.5194  2.0827
 4958TIP3    H236366   6.777   5.053  11.744 -2.6454 -1.4857 -1.2512
 4959TIP3   OH236367   0.503   6.525  13.655 -0.5228 -0.6524 -0.1629
 4959TIP3    H136368   0.517   6.438  13.616 -0.5594 -0.8560  0.2724
 4959TIP3    H236369   0.577   6.577  13.624  0.3552 -1.2778  0.8239
 4960TIP3   OH236370   0.605   4.876  12.774  0.1130  0.3843  0.1543
 4960TIP3    H136371   0.665   4.843  12.708 -0.1234  0.5227 -0.1314
 4960TIP3    H236372   0.539   4.926  12.725 -1.2987 -1.2735  0.2536
 4961TIP3   OH236373   1.572   0.324   3.202 -0.2765  0.2394 -0.0016
 4961TIP3    H136374   1.607   0.385   3.267 -1.0560  0.2335  0.4322
 4961TIP3    H236375   1.479   0.318   3.222 -0.0456 -2.0145  0.7551
 4962TIP3   OH236376   1.055   0.173  16.178 -0.4628  0.1713  0.1127
 4962TIP3    H136377   1.001   0.167  16.099  0.9664  2.0282 -1.1024
 4962TIP3    H236378   1.042   0.262  16.210  1.8575  0.7231 -0.2717
 4963TIP3   OH236379   1.528   4.934  13.720 -0.1475 -0.0769 -0.1903
 4963TIP3    H136380   1.498   4.884  13.645 -0.6579  0.7360 -0.5404
 4963TIP3    H236381   1.623   4.942  13.707  0.1582 -1.9426  0.4973
 4964TIP3   OH236382   6.112   6.273  13.233 -0.0077 -0.1315  0.0941
 4964TIP3    H136383   6.026   6.313  13.243 -0.8628 -2.2377  2.2554
 4964TIP3    H236384   6.102   6.210  13.161 -1.1510 -2.1679  1.8940
 4965TIP3   OH236385   3.996   3.369   5.172 -0.5264 -0.5967  0.1268
 4965TIP3    H136386   3.912   3.374   5.127 -0.1005  1.4292 -0.5201
 4965TIP3    H236387   4.056   3.423   5.120  1.0410 -1.5109  0.8855
 4966TIP3   OH236388   1.173   0.547   1.392 -0.0394 -0.3488  0.2644
 4966TIP3    H136389   1.262   0.512   1.395  0.4805  0.9813  1.4410
 4966TIP3    H236390   1.185   0.642   1.390 -1.3824 -0.0998 -3.3813
 4967TIP3   OH236391   6.366   5.853   5.774  0.0661 -0.4197 -0.1641
 4967TIP3    H136392   6.272   5.845   5.791 -0.1078  1.9047  0.2252
 4967TIP3    H236393   6.383   5.947   5.776  1.7516 -0.4674 -3.9108
 4968TIP3   OH236394   4.368   6.418   4.414 -0.1879  0.9210 -0.6237
 4968TIP3    H136395   4.313   6.355   4.462 -1.6383  0.2767 -2.9358
 4968TIP3    H236396   4.331   6.503   4.436  0.3641  0.8155  0.8003
 4969TIP3   OH236397   1.291   3.903   2.159  0.0489  0.3447  0.2921
 4969TIP3    H136398   1.325   3.817   2.183  0.1297  0.2588 -0.1200
 4969TIP3    H236399   1.221   3.885   2.097 -0.0807  0.5662  0.3739
 4970TIP3   OH236400   0.755   1.797   1.148 -0.2255 -0.0355 -0.8600
 4970TIP3    H136401   0.743   1.724   1.208  0.6466 -0.2701 -0.9534
 4970TIP3    H236402   0.666   1.821   1.121 -0.6316  0.0787  0.5124
 4971TIP3   OH236403   1.710   0.266  15.554 -0.0281 -0.1416  0.3678
 4971TIP3    H136404   1.798   0.267  15.517 -0.4234 -2.8843 -0.8602
 4971TIP3    H236405   1.704   0.183  15.601 -2.2463 -0.4581 -0.3766
 4972TIP3   OH236406   2.003   2.268  14.475 -0.2022  0.0353 -0.0152
 4972TIP3    H136407   2.018   2.232  14.562  3.0367 -1.9023 -1.2056
 4972TIP3    H236408   2.091   2.282  14.439 -1.4060  1.9403 -2.5588
 4973TIP3   OH236409   1.976   1.489  11.086 -0.2504 -0.2717 -0.3376
 4973TIP3    H136410   1.956   1.403  11.123  0.5600 -0.4078 -0.1999
 4973TIP3    H236411   2.041   1.471  11.018 -1.6667 -0.0254 -1.8279
 4974TIP3   OH236412   3.796   3.873   3.565  0.5077 -0.0180 -0.0801
 4974TIP3    H136413   3.855   3.813   3.609 -0.3308 -1.5724 -1.0160
 4974TIP3    H236414   3.720   3.879   3.624  1.0359  1.0167  0.5307
 4975TIP3   OH236415   3.428   1.269  12.472 -0.2582 -0.8177  0.3858
 4975TIP3    H136416   3.514   1.241  12.440  0.4842  2.7233 -1.1732
 4975TIP3    H236417   3.369   1.253  12.398  0.3908  2.3646 -0.9609
 4976TIP3   OH236418   4.241   5.946  10.870  0.2555 -0.2034  0.6476
 4976TIP3    H136419   4.248   5.939  10.774 -0.1132 -0.3918  0.6323
 4976TIP3    H236420   4.332   5.951  10.900  0.4253 -1.1878  0.3534
 4977TIP3   OH236421   4.105   2.986   4.458 -0.3123 -0.1081  0.0136
 4977TIP3    H136422   4.197   2.983   4.485 -0.7976  1.1920  2.0796
 4977TIP3    H236423   4.095   2.913   4.397  1.7898 -1.0687  0.7267
 4978TIP3   OH236424   1.687   5.890  13.129 -0.5386  0.4405  0.3233
 4978TIP3    H136425   1.693   5.986  13.131  0.1067  0.3977  0.6841
 4978TIP3    H236426   1.763   5.860  13.179 -0.0449 -0.2938 -0.8356
 4979TIP3   OH236427   4.483   4.700  14.927  0.2001  0.1749  0.4338
 4979TIP3    H136428   4.501   4.773  14.868 -0.3314 -0.9798 -1.2383
 4979TIP3    H236429   4.485   4.739  15.015 -1.9537  2.5830 -0.4583
 4980TIP3   OH236430   6.108   2.692  14.902 -0.1155  0.3332 -0.1114
 4980TIP3    H136431   6.135   2.607  14.868  0.4346  0.6776 -0.5558
 4980TIP3    H236432   6.059   2.732  14.830  0.6835  0.8891 -0.3612
 4981TIP3   OH236433   6.399   6.307  12.477 -0.0877  0.2086  0.1976
 4981TIP3    H136434   6.481   6.356  12.470 -0.4454  0.6668 -1.1268
 4981TIP3    H236435   6.335   6.372  12.506 -0.3738  0.3317 -0.6779
 4982TIP3   OH236436   5.040   5.688   2.333  0.1866  0.5440  0.2398
 4982TIP3    H136437   5.097   5.757   2.300  1.0236 -0.0455  0.4411
 4982TIP3    H236438   4.984   5.665   2.258  2.5555 -1.2965 -1.0886
 4983TIP3   OH236439   2.083   4.887  15.222 -0.6961  0.0321  0.2508
 4983TIP3    H136440   2.165   4.914  15.264  0.3937 -0.2410 -1.6054
 4983TIP3    H236441   2.107   4.869  15.131 -1.7271 -4.8619  0.6588
 4984TIP3   OH236442   6.365   6.799   0.872 -0.1490 -0.3524  0.3971
 4984TIP3    H136443   6.414   6.751   0.805  1.0873  2.0323 -0.5437
 4984TIP3    H236444   6.273   6.791   0.845  0.3596  1.1673 -2.1172
 4985TIP3   OH236445   5.243   4.027  15.459 -0.1407  0.1731  0.3817
 4985TIP3    H136446   5.256   3.946  15.509  0.1646  0.8827  1.4778
 4985TIP3    H236447   5.219   4.092  15.524 -0.8831  0.8695 -0.5573
 4986TIP3   OH236448   0.748   6.324   1.433  0.3339 -0.0717  0.0510
 4986TIP3    H136449   0.762   6.239   1.391 -0.6541  0.5119 -1.5738
 4986TIP3    H236450   0.723   6.302   1.523  0.3648 -1.4885 -0.2564
 4987TIP3   OH236451   1.149   3.171  16.887  0.5771  0.3202  0.0645
 4987TIP3    H136452   1.115   3.131  16.806  0.9102 -0.4665  0.3057
 4987TIP3    H236453   1.071   3.198  16.935  0.3432 -0.0890 -0.0811
 4988TIP3   OH236454   4.085   3.698  15.997 -0.3424  0.4223 -0.2133
 4988TIP3    H136455   4.078   3.667  15.907 -0.8729  1.3890 -0.5094
 4988TIP3    H236456   4.004   3.746  16.013  0.3470  1.4458  0.3219
 4989TIP3   OH236457   1.302   4.351   3.124  0.5058 -0.0840 -0.1945
 4989TIP3    H136458   1.277   4.363   3.033 -0.3215 -0.4965 -0.0380
 4989TIP3    H236459   1.286   4.436   3.165 -0.7657 -0.3591 -0.0819
 4990TIP3   OH236460   1.106   4.180   0.647  0.2137  0.2531  0.0675
 4990TIP3    H136461   1.094   4.267   0.685  0.4959  1.0385 -1.5421
 4990TIP3    H236462   1.018   4.142   0.645 -0.1740  1.1459 -0.6449
 4991TIP3   OH236463   4.453   1.124   5.686 -0.5696  0.0088 -0.6149
 4991TIP3    H136464   4.522   1.168   5.635 -1.0859  2.0394  0.3599
 4991TIP3    H236465   4.456   1.166   5.772 -0.4930 -2.5495  0.7143
 4992TIP3   OH236466   5.844   2.553   2.771 -0.1063 -0.5783  0.0089
 4992TIP3    H136467   5.858   2.645   2.752  3.7196 -1.2818 -1.6484
 4992TIP3    H236468   5.843   2.510   2.685  2.9052 -2.4377  0.7376
 4993TIP3   OH236469   4.203   6.027  11.814 -0.0525 -0.2937 -0.2156
 4993TIP3    H136470   4.194   5.980  11.896 -0.4750 -0.5979 -0.4291
 4993TIP3    H236471   4.277   6.087  11.827 -0.6509  0.2680  0.6650
 4994TIP3   OH236472   5.966   0.156   4.036  0.3333 -0.2324 -0.0140
 4994TIP3    H136473   5.964   0.212   3.958  0.6731  0.2870  0.3414
 4994TIP3    H236474   5.899   0.194   4.093  0.2452 -0.4705  0.0396
 4995TIP3   OH236475   2.810   0.500  15.906 -0.3220  0.7475 -0.2504
 4995TIP3    H136476   2.826   0.558  15.831  1.9777  0.4566 -0.0465
 4995TIP3    H236477   2.887   0.444  15.910 -1.6614 -1.1541  0.6714
 4996TIP3   OH236478   1.707   5.890   4.341 -0.1402  0.3616 -0.1547
 4996TIP3    H136479   1.619   5.923   4.325 -1.1000 -1.9231 -0.1034
 4996TIP3    H236480   1.723   5.910   4.433 -0.8487  0.3233 -0.0125
 4997TIP3   OH236481   3.789   1.370   4.852 -0.6791  0.7774 -0.0321
 4997TIP3    H136482   3.767   1.423   4.775 -2.6832  0.1582  0.0466
 4997TIP3    H236483   3.856   1.309   4.821 -1.7442  0.2626 -1.4447
 4998TIP3   OH236484   4.670   4.534   4.110 -0.0110  0.1241  0.6227
 4998TIP3    H136485   4.596   4.476   4.091  1.1516 -1.4761  0.8091
 4998TIP3    H236486   4.675   4.536   4.205  0.9447 -0.8122  0.6066
 4999TIP3   OH236487   3.369   2.487  15.026  0.1502  0.1727  0.1855
 4999TIP3    H136488   3.437   2.493  15.093  2.2813 -1.7660 -1.6082
 4999TIP3    H236489   3.403   2.541  14.954  0.0721 -1.2334 -0.9379
 5000TIP3   OH236490   2.155   2.644  11.965 -0.2120  0.2839  0.2050
 5000TIP3    H136491   2.090   2.673  12.030 -1.3172  0.1062 -0.7788
 5000TIP3    H236492   2.114   2.663  11.880  0.3320 -1.3172 -0.4603
 5001TIP3   OH236493   1.555   0.286  12.212 -0.1985 -0.3417 -0.3948
 5001TIP3    H136494   1.477   0.275  12.159  0.1122  1.2228 -1.2218
 5001TIP3    H236495   1.625   0.303  12.149  0.3178  0.7981  0.4592
 5002TIP3   OH236496   1.176   4.693   4.596  0.0785 -0.3092 -0.0076
 5002TIP3    H136497   1.258   4.662   4.557  1.3914  2.0199  0.6852
 5002TIP3    H236498   1.190   4.685   4.690 -0.7066 -0.3842  0.1074
 5003TIP3   OH236499   0.637   3.168   1.806 -0.2664  0.3675  0.0336
 5003TIP3    H136500   0.546   3.196   1.816 -0.5991 -1.2048  2.1290
 5003TIP3    H236501   0.637   3.077   1.837  2.0015  0.2691 -0.1045
 5004TIP3   OH236502   5.580   0.770   1.751 -0.1089  0.0720  0.0051
 5004TIP3    H136503   5.663   0.754   1.795 -0.4154 -3.1338 -0.3075
 5004TIP3    H236504   5.544   0.682   1.735 -3.2360  1.2931 -0.4933
 5005TIP3   OH236505   0.170   2.399   6.049 -0.5645 -0.3905  0.5433
 5005TIP3    H136506   0.163   2.490   6.078 -0.4768 -0.6917  1.5437
 5005TIP3    H236507   0.080   2.370   6.039 -0.6065 -0.4073  0.9423
 5006TIP3   OH236508   2.532   6.211   5.446 -0.0711 -0.2385  0.5168
 5006TIP3    H136509   2.535   6.116   5.455  2.3302 -0.4906 -1.8100
 5006TIP3    H236510   2.467   6.228   5.379  0.3987 -0.3497  0.0309
 5007TIP3   OH236511   0.360   6.200  13.652  0.4613 -0.4530 -0.3723
 5007TIP3    H136512   0.291   6.170  13.593 -0.8383 -1.7145  1.6730
 5007TIP3    H236513   0.329   6.285  13.684  0.8951 -0.0405 -1.0044
 5008TIP3   OH236514   5.856   1.296  14.963 -0.0254  0.1633 -0.1891
 5008TIP3    H136515   5.876   1.383  14.928  1.7228 -0.5743 -1.1675
 5008TIP3    H236516   5.769   1.305  15.002 -0.7478  1.8427 -2.0094
 5009TIP3   OH236517   4.809   2.765   0.651 -0.0032 -0.3056  0.0202
 5009TIP3    H136518   4.748   2.764   0.724 -0.0136 -2.0603  0.0280
 5009TIP3    H236519   4.895   2.773   0.692  0.0026 -1.4354  0.2752
 5010TIP3   OH236520   0.334   3.709  13.013  0.3708  0.1024 -0.2816
 5010TIP3    H136521   0.316   3.738  12.923  1.5423 -1.3413 -1.0128
 5010TIP3    H236522   0.250   3.720  13.058 -0.4924 -0.0119 -1.7779
 5011TIP3   OH236523   2.669   6.119  14.954  0.0210  0.2021  0.4057
 5011TIP3    H136524   2.646   6.155  15.040 -2.5912  0.5232 -0.3297
 5011TIP3    H236525   2.659   6.025  14.964  0.2154  0.1984  0.5771
 5012TIP3   OH236526   3.564   2.719  13.068 -0.1518 -0.1241 -0.6593
 5012TIP3    H136527   3.477   2.680  13.076  1.1380 -3.5965 -1.7214
 5012TIP3    H236528   3.580   2.758  13.153 -1.8906 -1.3798  0.3218
 5013TIP3   OH236529   3.176   6.476   3.161  0.4501  0.5533 -0.1752
 5013TIP3    H136530   3.258   6.474   3.112  0.2817  0.4027 -0.4554
 5013TIP3    H236531   3.109   6.485   3.094  0.2097  0.2206  0.0202
 5014TIP3   OH236532   3.903   6.651   2.464  0.2011  0.1667  0.8048
 5014TIP3    H136533   3.941   6.646   2.376 -1.8448  2.5114 -0.3218
 5014TIP3    H236534   3.901   6.561   2.494  1.0502 -0.7121 -1.5250
 5015TIP3   OH236535   0.177   6.630  12.961 -0.4959 -0.4490  0.3295
 5015TIP3    H136536   0.156   6.651  13.052  1.7492 -0.2499  0.8492
 5015TIP3    H236537   0.198   6.537  12.962 -0.2692 -0.4010  0.0332
 5016TIP3   OH236538   3.501   2.298  13.156  0.1348 -0.4880 -0.1644
 5016TIP3    H136539   3.595   2.318  13.150  0.1401 -0.8485 -1.5381
 5016TIP3    H236540   3.495   2.204  13.139 -0.5770 -0.2564 -1.2654
 5017TIP3   OH236541   5.233   2.237  17.198  0.4738 -0.8581 -0.0002
 5017TIP3    H136542   5.266   2.150  17.173 -1.5290 -1.1981 -1.7236
 5017TIP3    H236543   5.164   2.219  17.261 -0.2488 -0.5688 -0.6987
 5018TIP3   OH236544   2.379   2.816  15.177  0.9381 -0.3394 -0.2890
 5018TIP3    H136545   2.389   2.749  15.244 -1.5545 -0.4144  0.1288
 5018TIP3    H236546   2.360   2.896  15.226  0.4442 -0.0970 -0.8587
 5019TIP3   OH236547   2.170   6.279  15.292 -0.0039 -0.2397 -0.1059
 5019TIP3    H136548   2.222   6.305  15.368 -0.7530 -0.5519  0.5314
 5019TIP3    H236549   2.101   6.346  15.287  0.1549 -0.1165 -0.6272
 5020TIP3   OH236550   5.630   5.959  15.628  0.0714  0.0515 -0.2631
 5020TIP3    H136551   5.628   5.995  15.540 -1.1909 -0.7627 -0.5895
 5020TIP3    H236552   5.553   5.904  15.633 -0.3477  0.7363  1.6354
 5021TIP3   OH236553   2.334   0.135  11.855  0.4079  0.2064  0.6011
 5021TIP3    H136554   2.254   0.083  11.859  0.7897 -0.4505 -0.0867
 5021TIP3    H236555   2.317   0.201  11.787  0.2407  0.4401  0.8678
 5022TIP3   OH236556   2.689   2.867  15.294 -0.7899 -0.2125 -0.4184
 5022TIP3    H136557   2.680   2.778  15.259  1.4328 -0.2149 -1.1407
 5022TIP3    H236558   2.729   2.917  15.222 -0.3589  0.9286  0.5842
 5023TIP3   OH236559   2.163   3.543   0.602 -0.0633 -0.2766 -0.4967
 5023TIP3    H136560   2.165   3.597   0.523  0.1513 -0.6241 -0.7341
 5023TIP3    H236561   2.224   3.586   0.662 -0.4904  0.1854 -0.3885
 5024TIP3   OH236562   3.507   6.668  16.005 -0.2700  0.1640  0.0146
 5024TIP3    H136563   3.433   6.674  16.066  0.2728 -0.7907  0.7990
 5024TIP3    H236564   3.478   6.607  15.937 -0.2536 -0.1114  0.2541
 5025TIP3   OH236565   1.169   4.929  12.719  0.5923  0.1148 -0.2982
 5025TIP3    H136566   1.254   4.932  12.764 -0.1952  1.1096  1.1802
 5025TIP3    H236567   1.124   4.854  12.758 -0.1974  1.1390  0.8327
 5026TIP3   OH236568   1.692   6.717   5.322  0.6096  0.3269 -0.0651
 5026TIP3    H136569   1.764   6.778   5.340  0.0532  0.8961  0.2783
 5026TIP3    H236570   1.665   6.685   5.408 -0.3479  1.0634 -0.0712
 5027TIP3   OH236571   3.621   4.518  13.658  0.3852  0.8380  0.0633
 5027TIP3    H136572   3.585   4.519  13.569  0.4442  0.6960  0.0385
 5027TIP3    H236573   3.549   4.485  13.713 -0.9747  4.2644  0.6355
 5028TIP3   OH236574   2.852   5.355   3.368  0.1630 -0.1115 -0.4053
 5028TIP3    H136575   2.817   5.322   3.451 -0.0242 -0.5579 -0.6559
 5028TIP3    H236576   2.942   5.323   3.366  0.6511  1.1460  0.2990
 5029TIP3   OH236577   2.264   1.431   4.653 -0.2886  0.3500 -0.1825
 5029TIP3    H136578   2.179   1.438   4.696 -1.2772  2.5709 -2.2219
 5029TIP3    H236579   2.296   1.344   4.677 -3.3768 -0.8023  0.2671
 5030TIP3   OH236580   5.597   4.711  12.428  0.0669 -0.2391 -0.5725
 5030TIP3    H136581   5.613   4.639  12.367 -0.1758 -0.1705 -0.7179
 5030TIP3    H236582   5.508   4.740  12.408  0.1833  0.1381 -0.5550
 5031TIP3   OH236583   5.181   3.118  12.815  0.4319  0.1835 -0.2311
 5031TIP3    H136584   5.103   3.121  12.759 -0.2413  0.5123  0.7126
 5031TIP3    H236585   5.250   3.156  12.761 -0.5642  2.0402 -0.2976
 5032TIP3   OH236586   2.608   6.545  15.347 -0.2112  0.0171 -0.4481
 5032TIP3    H136587   2.537   6.610  15.342 -2.6294 -2.4854 -0.9147
 5032TIP3    H236588   2.616   6.512  15.258  0.9577 -0.3824 -0.2122
 5033TIP3   OH236589   5.303   4.472  12.455  0.0318 -0.4026 -0.6539
 5033TIP3    H136590   5.292   4.566  12.444  2.9677  0.2863  1.1653
 5033TIP3    H236591   5.246   4.449  12.528  0.0460  0.2020 -0.4460
 5034TIP3   OH236592   6.249   2.962   0.257 -0.2564  0.1362 -0.3109
 5034TIP3    H136593   6.173   2.910   0.232  0.3139 -0.4817 -0.7659
 5034TIP3    H236594   6.313   2.948   0.188  0.6804 -0.2041  0.5944
 5035TIP3   OH236595   2.864   2.403  12.354 -0.0931 -0.2156  0.3605
 5035TIP3    H136596   2.890   2.365  12.438  1.6642 -0.2271 -0.1517
 5035TIP3    H236597   2.924   2.476  12.341 -0.3241 -0.2257 -0.9037
 5036TIP3   OH236598   0.805   4.507   2.646 -0.2788  0.2362 -0.0871
 5036TIP3    H136599   0.741   4.575   2.627 -0.1621 -0.1396 -1.9904
 5036TIP3    H236600   0.752   4.429   2.662 -0.3407  0.2082 -0.4224
 5037TIP3   OH236601   2.089   4.086  16.386 -0.3529  0.4848  0.2298
 5037TIP3    H136602   2.077   4.165  16.332 -0.0314  1.1735  1.1318
 5037TIP3    H236603   2.036   4.102  16.464 -1.4520 -0.8561 -0.2194
 5038TIP3   OH236604   2.884   5.905  11.646 -0.4033  0.2646 -0.0852
 5038TIP3    H136605   2.969   5.884  11.685 -0.5135 -0.7915 -0.3730
 5038TIP3    H236606   2.898   5.989  11.602  0.3832  0.2860  0.1870
 5039TIP3   OH236607   6.809   0.012  15.440  0.1250 -0.1781  0.1842
 5039TIP3    H136608   6.731   0.049  15.400  0.2360 -0.3263 -0.1686
 5039TIP3    H236609   6.807  -0.081  15.418 -0.2329 -0.4176  1.2065
 5040TIP3   OH236610   4.774   1.845   5.098  0.0087 -1.2623 -0.2004
 5040TIP3    H136611   4.793   1.822   5.189  1.0382  0.4304  0.0457
 5040TIP3    H236612   4.678   1.847   5.094 -0.0534 -1.0889  0.9216
 5041TIP3   OH236613   5.684   5.977  14.722  0.0453 -0.3778  0.4950
 5041TIP3    H136614   5.654   6.027  14.798 -2.6862 -2.2359  0.7721
 5041TIP3    H236615   5.736   5.906  14.760 -0.4756 -0.7280  0.5621
 5042TIP3   OH236616   0.385   6.672  11.012 -0.1687 -0.2264 -0.0546
 5042TIP3    H136617   0.429   6.748  11.052  2.6095 -1.1039 -1.1556
 5042TIP3    H236618   0.312   6.710  10.964  0.0780  1.5506  0.8813
 5043TIP3   OH236619   3.018   3.835   1.438  0.2907  0.6467  0.8921
 5043TIP3    H136620   3.064   3.860   1.358 -1.1388 -0.4193 -0.3274
 5043TIP3    H236621   2.926   3.827   1.411 -0.0057 -1.2383  2.2586
 5044TIP3   OH236622   3.718   6.031   5.732  0.6620 -0.3635  0.3698
 5044TIP3    H136623   3.687   6.011   5.821  2.0404  0.2884  1.0272
 5044TIP3    H236624   3.802   6.075   5.746  1.7294 -1.7764 -1.3191
 5045TIP3   OH236625   1.443   0.008  15.413 -0.0645 -0.2457 -0.2753
 5045TIP3    H136626   1.536   0.000  15.434  0.0205 -0.4784 -0.7251
 5045TIP3    H236627   1.437  -0.017  15.321 -0.5291  0.0777 -0.3355
 5046TIP3   OH236628   2.242   6.083   2.420 -0.4399  0.1589 -0.3465
 5046TIP3    H136629   2.302   6.085   2.495 -1.4842 -2.2021  0.6350
 5046TIP3    H236630   2.169   6.139   2.447 -1.9728 -2.5252  1.5877
 5047TIP3   OH236631   5.964   4.186  14.465  0.5117 -0.0719  0.4090
 5047TIP3    H136632   6.008   4.244  14.527 -1.7284  2.0920  0.1411
 5047TIP3    H236633   5.924   4.245  14.401 -2.1190 -1.8473  0.2309
 5048TIP3   OH236634   5.128   6.168  13.906  0.3873  0.3381  0.0478
 5048TIP3    H136635   5.159   6.105  13.970  0.6831  0.8156  0.3789
 5048TIP3    H236636   5.084   6.236  13.958 -0.4053  0.1343 -0.3437
 5049TIP3   OH236637   2.184   5.571   1.583  0.2056  0.0188 -0.1700
 5049TIP3    H136638   2.186   5.475   1.580  0.4812  0.0318 -0.4905
 5049TIP3    H236639   2.199   5.593   1.675  0.7388 -0.2328 -0.1968
 5050TIP3   OH236640   0.559   5.796   1.078 -0.4819 -0.0533  0.5252
 5050TIP3    H136641   0.650   5.813   1.054 -0.9098  0.5857 -0.6779
 5050TIP3    H236642   0.547   5.702   1.063 -0.4683  0.1583 -0.8620
 5051TIP3   OH236643   0.857   2.771   1.117 -0.5202 -0.4566  0.4423
 5051TIP3    H136644   0.940   2.736   1.149  0.2871  0.9584 -0.0591
 5051TIP3    H236645   0.805   2.786   1.196  0.0300 -0.5150  0.8170
 5052TIP3   OH236646   2.810   2.603   1.839  0.4349 -0.2746 -0.7858
 5052TIP3    H136647   2.728   2.646   1.862  1.8300  2.2285 -0.1510
 5052TIP3    H236648   2.796   2.511   1.862 -1.9418  0.1816 -0.1304
 5053TIP3   OH236649   1.227   6.579  12.955  0.1800 -0.4163  0.5432
 5053TIP3    H136650   1.230   6.488  12.986 -1.5362 -0.4641  0.6602
 5053TIP3    H236651   1.244   6.572  12.860  0.8437 -0.7524  0.6751
 5054TIP3   OH236652   0.812   3.139   5.516  0.4518 -0.6118 -0.4541
 5054TIP3    H136653   0.891   3.189   5.537 -0.4770  0.8301 -0.2702
 5054TIP3    H236654   0.752   3.155   5.589  0.6116 -3.2169  0.3723
 5055TIP3   OH236655   5.613   5.772   4.703 -0.3942 -0.0621 -0.2970
 5055TIP3    H136656   5.562   5.837   4.752  0.1585 -1.4470  2.3046
 5055TIP3    H236657   5.551   5.700   4.689 -0.8158  0.6770 -2.5868
 5056TIP3   OH236658   4.554   0.659  14.078  0.4743 -0.4009 -0.2819
 5056TIP3    H136659   4.478   0.675  14.022  1.4847  1.6112 -1.2032
 5056TIP3    H236660   4.620   0.623  14.020  0.9129 -0.1206  0.0379
 5057TIP3   OH236661   2.191   0.089  11.584  0.3898  0.0856 -0.2886
 5057TIP3    H136662   2.221   0.011  11.538  0.5806  0.6348 -1.1090
 5057TIP3    H236663   2.109   0.062  11.625  0.7276 -0.6986 -0.1072
 5058TIP3   OH236664   3.243   6.628  16.168 -0.1766 -0.0674  0.1935
 5058TIP3    H136665   3.148   6.625  16.154 -0.1314 -0.8051  0.0015
 5058TIP3    H236666   3.272   6.539  16.151  0.7147  0.4071 -0.9049
 5059TIP3   OH236667   3.648   4.335   4.897  0.3820 -0.2657 -0.3674
 5059TIP3    H136668   3.708   4.263   4.881 -0.3209 -0.8339 -0.4987
 5059TIP3    H236669   3.587   4.332   4.824 -0.3805 -0.3006  0.2556
 5060TIP3   OH236670   5.551   2.417   5.071 -0.5384  0.8100  0.2974
 5060TIP3    H136671   5.610   2.436   4.997  0.9992  1.2474  1.5675
 5060TIP3    H236672   5.469   2.391   5.030  0.6739 -0.3415 -1.5888
 5061TIP3   OH236673   6.818   1.572   2.071 -0.1292 -0.0321  0.5137
 5061TIP3    H136674   6.863   1.564   1.986 -0.7437  1.0489  0.0680
 5061TIP3    H236675   6.734   1.528   2.058 -0.4942  0.6988  0.3416
 5062TIP3   OH236676   3.801   0.888   2.829  0.4103  0.2661 -0.2133
 5062TIP3    H136677   3.741   0.907   2.757 -1.1972 -0.4253  0.8877
 5062TIP3    H236678   3.843   0.972   2.849 -0.4489  0.8416 -0.7877
 5063TIP3   OH236679   1.025   4.367  10.669 -0.1183 -0.7738  0.5921
 5063TIP3    H136680   1.003   4.452  10.708  1.3982 -2.3916  5.8256
 5063TIP3    H236681   0.941   4.330  10.644 -0.9727  1.5145 -0.1640
 5064TIP3   OH236682   3.963   6.675   1.373 -0.0354 -0.5303  0.8463
 5064TIP3    H136683   3.907   6.607   1.411  0.6733 -1.6305 -0.0057
 5064TIP3    H236684   4.052   6.647   1.394  0.2691  0.0558  0.3604
 5065TIP3   OH236685   0.539   1.388  14.652  0.3626 -0.1136 -0.1569
 5065TIP3    H136686   0.453   1.426  14.672  0.9213  1.4183 -0.5109
 5065TIP3    H236687   0.568   1.436  14.575  1.7631 -0.2269  0.2791
 5066TIP3   OH236688   3.015   2.414   0.950 -0.3919 -0.0508  0.1929
 5066TIP3    H136689   3.039   2.381   1.037  1.0587  1.4587  0.4032
 5066TIP3    H236690   2.973   2.498   0.968  1.2883  0.9869 -0.6306
 5067TIP3   OH236691   1.950   2.618  12.596 -0.1435 -0.1777 -0.2719
 5067TIP3    H136692   1.854   2.616  12.596 -0.2616  2.1615  1.3269
 5067TIP3    H236693   1.973   2.674  12.522 -0.0437  0.1983  0.0470
 5068TIP3   OH236694   0.997   1.130  14.076 -0.2752  0.1124 -0.1013
 5068TIP3    H136695   1.083   1.168  14.058 -0.3643 -0.2414 -1.3740
 5068TIP3    H236696   0.942   1.204  14.100  0.1030  0.4967 -0.4012
 5069TIP3   OH236697   5.934   3.223   5.367  0.2888 -0.5930 -0.0306
 5069TIP3    H136698   5.841   3.210   5.387 -0.0869  0.5906 -0.8855
 5069TIP3    H236699   5.980   3.179   5.438 -0.9446  0.2970  1.3875
 5070TIP3   OH236700   2.396   5.084  11.548  0.1949  0.2400 -0.5004
 5070TIP3    H136701   2.366   5.155  11.606 -0.5615  0.6323 -1.3482
 5070TIP3    H236702   2.342   5.093  11.470  2.3409  0.8060 -2.0070
 5071TIP3   OH236703   3.870   6.310  12.390 -0.6349 -0.3110 -0.0259
 5071TIP3    H136704   3.813   6.292  12.314  1.2328 -0.2534 -1.5251
 5071TIP3    H236705   3.893   6.403  12.380 -0.4036 -0.2960  0.6450
 5072TIP3   OH236706   3.306   1.999   1.615 -0.1278  0.3513 -0.4048
 5072TIP3    H136707   3.321   1.978   1.522  0.0187 -0.9804 -0.0978
 5072TIP3    H236708   3.394   2.012   1.650 -0.0337 -1.0701 -0.0436
 5073TIP3   OH236709   5.743   6.368  11.239 -0.0412 -0.1400  0.8262
 5073TIP3    H136710   5.669   6.311  11.219 -0.1970  0.6111 -0.8586
 5073TIP3    H236711   5.788   6.381  11.156 -0.3580  2.6502  0.9870
 5074TIP3   OH236712   4.956   1.607   2.228  0.2158  0.7883 -0.2344
 5074TIP3    H136713   4.997   1.531   2.187  1.3921  1.4064 -0.2504
 5074TIP3    H236714   4.894   1.639   2.163  0.9400  0.8336 -0.9202
 5075TIP3   OH236715   1.416   0.702   0.038  0.2550  0.4130 -0.4633
 5075TIP3    H136716   1.453   0.740  -0.042  1.5447  2.4630  1.0159
 5075TIP3    H236717   1.323   0.728   0.036 -0.2148 -1.1703 -2.1407
 5076TIP3   OH236718   1.654   2.274  14.129  1.0578 -0.2126 -0.5363
 5076TIP3    H136719   1.650   2.184  14.163  0.4508 -0.1879 -0.5166
 5076TIP3    H236720   1.723   2.316  14.180 -0.9853  0.3479  2.0246
 5077TIP3   OH236721   2.601   6.420  16.110  0.1339 -0.4053 -0.5623
 5077TIP3    H136722   2.591   6.454  16.021  0.4744 -0.0274 -0.4592
 5077TIP3    H236723   2.597   6.498  16.166 -1.0962 -0.7399 -0.1637
 5078TIP3   OH236724   2.546   5.406   5.845  0.3122 -0.5417  0.0782
 5078TIP3    H136725   2.516   5.320   5.816  0.7335 -1.1382  1.3594
 5078TIP3    H236726   2.639   5.408   5.823  0.1520 -0.1071 -0.6119
 5079TIP3   OH236727   4.298   4.410  16.087 -0.1247 -0.0223  0.3406
 5079TIP3    H136728   4.281   4.491  16.134 -0.9185 -0.8880  1.6132
 5079TIP3    H236729   4.331   4.438  16.002  0.0290  1.6169  0.9056
 5080TIP3   OH236730   4.035   0.168   5.490 -0.2081  0.0505 -0.2285
 5080TIP3    H136731   4.063   0.084   5.455 -0.1798 -0.1073  0.1697
 5080TIP3    H236732   3.942   0.158   5.508 -0.1225 -0.0290  0.1918
 5081TIP3   OH236733   3.404   6.236   5.594  0.7053  0.3918  0.1899
 5081TIP3    H136734   3.399   6.226   5.689  0.6194 -1.3070  0.0413
 5081TIP3    H236735   3.428   6.149   5.562 -1.4429  0.3362 -1.5174
 5082TIP3   OH236736   2.655   0.889   2.617  0.1973  0.3881  0.6604
 5082TIP3    H136737   2.749   0.907   2.619  0.2209  0.2035  1.1683
 5082TIP3    H236738   2.649   0.794   2.628 -0.0774  0.4736  1.2445
 5083TIP3   OH236739   0.917   2.319   1.963  0.2498 -0.4853  0.0523
 5083TIP3    H136740   0.929   2.330   2.057  2.0545 -0.0908 -0.1818
 5083TIP3    H236741   0.881   2.403   1.934  0.0651 -0.4627  0.3436
 5084TIP3   OH236742   5.528   3.797  14.435 -0.1540 -0.2674  0.0337
 5084TIP3    H136743   5.601   3.796  14.374 -0.7724 -1.0149 -0.7191
 5084TIP3    H236744   5.475   3.721  14.411 -0.5631 -0.4129  1.3225
 5085TIP3   OH236745   2.477   3.024   2.430 -0.6399  0.8265 -0.2731
 5085TIP3    H136746   2.567   2.995   2.438 -0.7619 -0.9235 -3.4600
 5085TIP3    H236747   2.480   3.119   2.446  2.0294  1.0465 -1.5979
 5086TIP3   OH236748   4.343   3.804   1.401 -0.1311  0.5028 -0.1298
 5086TIP3    H136749   4.401   3.754   1.343  0.6665 -1.3400  2.1329
 5086TIP3    H236750   4.373   3.895   1.392  1.7233 -0.1198 -0.5809
 5087TIP3   OH236751   2.806   0.866   4.742  0.0826  0.0791  0.2643
 5087TIP3    H136752   2.754   0.808   4.798  0.0043  0.4035  0.5291
 5087TIP3    H236753   2.894   0.830   4.745  0.3962  0.8778  1.7129
 5088TIP3   OH236754   0.640   1.296  14.933 -0.0885 -0.0311 -0.2559
 5088TIP3    H136755   0.571   1.321  14.994  0.4735  0.7910  0.0755
 5088TIP3    H236756   0.602   1.307  14.846 -0.5503 -0.1293 -0.0646
 5089TIP3   OH236757   1.809   4.645  14.340  1.5459 -0.4978  0.8372
 5089TIP3    H136758   1.874   4.595  14.291  1.3323  0.1055 -0.0903
 5089TIP3    H236759   1.860   4.705  14.395  1.7870 -1.2171  1.4169
 5090TIP3   OH236760   4.542   4.442  15.840  0.0772 -0.0861  0.6145
 5090TIP3    H136761   4.597   4.371  15.872  2.0209  1.8156  1.7479
 5090TIP3    H236762   4.604   4.510  15.814 -1.6920  1.0471 -0.9129
 5091TIP3   OH236763   2.835   1.968  13.403  0.1959  0.0669 -0.2451
 5091TIP3    H136764   2.782   2.038  13.441  2.0190  0.0402  2.7286
 5091TIP3    H236765   2.772   1.898  13.386 -0.9887  0.4214  2.1218
 5092TIP3   OH236766   3.553   1.445   3.827 -0.1600  0.4738  0.0484
 5092TIP3    H136767   3.492   1.420   3.757 -0.0301 -0.6173  0.3040
 5092TIP3    H236768   3.522   1.530   3.857 -2.8170 -0.8810  1.5329
 5093TIP3   OH236769   3.047   6.225  14.233  0.0494  0.4567 -0.0591
 5093TIP3    H136770   2.979   6.226  14.300  0.5541  1.7843  0.4627
 5093TIP3    H236771   3.117   6.171  14.271 -0.3604 -0.2343 -0.2631
 5094TIP3   OH236772   5.448   2.755   3.098  0.1061 -0.2475 -0.1171
 5094TIP3    H136773   5.381   2.807   3.143  0.5923 -0.7724  1.2715
 5094TIP3    H236774   5.398   2.691   3.047 -0.4776  0.9560 -1.0987
 5095TIP3   OH236775   3.182   0.740  14.233  0.3881 -0.3134  0.2333
 5095TIP3    H136776   3.216   0.789  14.308  0.5064 -0.1576  0.0818
 5095TIP3    H236777   3.222   0.783  14.157  0.0986 -0.3299  0.0697
 5096TIP3   OH236778   3.417   4.908  13.864 -0.0752  0.1457  0.3395
 5096TIP3    H136779   3.386   4.836  13.919  3.0425 -1.7454 -0.1633
 5096TIP3    H236780   3.364   4.902  13.784 -0.1838 -1.3252  0.4936
 5097TIP3   OH236781   4.789   5.442   4.077 -0.2321  0.0928  0.2962
 5097TIP3    H136782   4.831   5.392   4.148 -0.3810 -0.3864  0.0431
 5097TIP3    H236783   4.734   5.505   4.123 -0.7488 -0.5740  0.6049
 5098TIP3   OH236784   4.403   5.717   5.444  0.1044  0.1561  0.0211
 5098TIP3    H136785   4.345   5.660   5.393 -0.2037  0.7013 -0.2436
 5098TIP3    H236786   4.417   5.670   5.526 -0.3520 -0.1828 -0.0924
 5099TIP3   OH236787   1.554   6.126   0.058 -0.3947 -0.1323  0.1465
 5099TIP3    H136788   1.476   6.072   0.068 -0.5574 -0.0073 -0.4226
 5099TIP3    H236789   1.554   6.152  -0.034 -0.4762  1.0800  0.4717
 5100TIP3   OH236790   5.911   0.435  10.377 -0.4828  0.2601 -0.7806
 5100TIP3    H136791   6.001   0.467  10.387 -0.8445  1.2324 -0.4885
 5100TIP3    H236792   5.861   0.513  10.352 -1.1441 -0.3950 -1.5470
 5101TIP3   OH236793   5.639   3.317  16.750 -0.3453  0.1285  0.3650
 5101TIP3    H136794   5.724   3.302  16.791  0.7664 -0.0412 -1.8503
 5101TIP3    H236795   5.629   3.413  16.751 -0.2173  0.1428  0.7597
 5102TIP3   OH236796   4.565   0.103  11.637 -0.0448  0.6389 -0.2234
 5102TIP3    H136797   4.478   0.138  11.618 -0.1576  1.5006  1.6405
 5102TIP3    H236798   4.582   0.130  11.727  0.6784 -2.5256  0.6985
 5103TIP3   OH236799   1.153   1.749  11.835  0.3692 -0.3281  0.1330
 5103TIP3    H136800   1.119   1.796  11.759 -0.1709  2.7736  2.0987
 5103TIP3    H236801   1.243   1.780  11.844 -0.6007  2.2155  2.6260
 5104TIP3   OH236802   1.131   0.954   2.948  0.2741  0.1778  0.4219
 5104TIP3    H136803   1.203   0.982   2.891  0.5186 -1.2029  0.0281
 5104TIP3    H236804   1.167   0.882   2.999 -0.9832 -0.9283 -0.1898
 5105TIP3   OH236805   1.199   0.646  13.127  0.4711  0.3899  0.4781
 5105TIP3    H136806   1.151   0.703  13.067 -2.2562 -1.5166  0.6792
 5105TIP3    H236807   1.273   0.614  13.076 -0.8745  0.0701 -1.3666
 5106TIP3   OH236808   2.269   4.428  15.509 -0.4500 -0.3392  0.1907
 5106TIP3    H136809   2.356   4.464  15.491 -0.9651  0.5114 -0.6988
 5106TIP3    H236810   2.286   4.340  15.542  0.7842  0.1712  0.9869
 5107TIP3   OH236811   3.629   1.067  14.296 -0.5269 -0.7527 -0.4889
 5107TIP3    H136812   3.706   1.107  14.337 -0.0407 -2.4160  0.3224
 5107TIP3    H236813   3.595   1.008  14.363 -1.0387 -1.8919 -1.7172
 5108TIP3   OH236814   0.850   5.496  13.017 -0.7740 -0.2841  0.3199
 5108TIP3    H136815   0.848   5.535  13.105 -0.1495 -0.4876  0.4290
 5108TIP3    H236816   0.764   5.517  12.980 -1.1246 -0.3793  1.0575
 5109TIP3   OH236817   2.810   6.105  13.488 -0.8263 -0.6285  0.0883
 5109TIP3    H136818   2.899   6.131  13.468 -0.4274 -1.5675  0.5593
 5109TIP3    H236819   2.770   6.085  13.404 -0.7777  0.3417 -0.1719
 5110TIP3   OH236820   0.737   0.339  14.471 -0.1600  0.0319 -0.3840
 5110TIP3    H136821   0.791   0.289  14.531 -0.8906  0.3129  0.5324
 5110TIP3    H236822   0.729   0.283  14.394  1.7629  0.1628 -0.7376
 5111TIP3   OH236823   1.568   0.921  13.816 -0.0011  0.3519 -0.1767
 5111TIP3    H136824   1.541   0.975  13.890 -0.6161  0.0059 -0.1422
 5111TIP3    H236825   1.546   0.974  13.739  1.4394  1.0854 -0.1155
 5112TIP3   OH236826   4.066   5.274  14.875  0.3842  0.4457  0.3322
 5112TIP3    H136827   4.033   5.310  14.793  1.6896 -0.3960 -0.5963
 5112TIP3    H236828   4.064   5.179  14.862 -0.8894  0.2074  1.8924
 5113TIP3   OH236829   4.169   2.800  14.860 -0.0383 -0.2686 -0.2172
 5113TIP3    H136830   4.208   2.867  14.803 -2.6337  0.7077 -1.0058
 5113TIP3    H236831   4.231   2.727  14.857  1.6473  1.1092 -1.4045
 5114TIP3   OH236832   1.979   5.898  11.050  0.6319 -0.2819 -0.6044
 5114TIP3    H136833   1.905   5.930  11.101  0.2354 -0.4688 -1.0557
 5114TIP3    H236834   2.028   5.843  11.111  2.0939  2.1680  0.6417
 5115TIP3   OH236835   4.985   3.275  13.910  1.0319 -0.3965 -0.5164
 5115TIP3    H136836   4.934   3.209  13.957  2.1668 -1.1918 -0.3488
 5115TIP3    H236837   4.993   3.239  13.821  2.0134 -0.7146 -0.3117
 5116TIP3   OH236838   3.794   4.455  14.489  0.3247 -1.0317 -0.5525
 5116TIP3    H136839   3.870   4.405  14.519  1.1771  1.1694  1.2820
 5116TIP3    H236840   3.722   4.424  14.543  0.7569 -0.6277  0.2837
 5117TIP3   OH236841   2.013   4.608   0.030 -0.5076  0.3842  0.2402
 5117TIP3    H136842   2.101   4.590  -0.004 -0.6507  0.2434 -0.0617
 5117TIP3    H236843   1.992   4.532   0.084 -0.7715  0.0211 -0.3542
 5118TIP3   OH236844   6.825   5.054   5.752 -0.0284  0.2107 -0.2783
 5118TIP3    H136845   6.899   5.111   5.734  1.4808 -1.6941 -0.3660
 5118TIP3    H236846   6.821   5.049   5.848 -0.3102  0.6286 -0.2660
 5119TIP3   OH236847   1.221   5.790   5.190  0.3483 -0.8793 -0.3280
 5119TIP3    H136848   1.138   5.831   5.165 -0.3203 -1.2280  1.1900
 5119TIP3    H236849   1.231   5.811   5.283  1.7400 -1.2390 -0.3760
 5120TIP3   OH236850   3.560   2.387  16.599 -0.6315 -0.2097  0.4188
 5120TIP3    H136851   3.654   2.370  16.604 -0.3044  0.4511 -2.0508
 5120TIP3    H236852   3.519   2.303  16.624  0.6707 -1.1698 -0.5303
 5121TIP3   OH236853   1.213   0.649  16.738 -0.5547 -0.1923  0.0706
 5121TIP3    H136854   1.285   0.647  16.801 -0.5357  2.4431  0.2505
 5121TIP3    H236855   1.256   0.667  16.654 -0.9106  0.3846  0.0113
 5122TIP3   OH236856   2.119   2.279   4.115 -1.0707 -0.0575 -0.6372
 5122TIP3    H136857   2.197   2.287   4.169 -1.4155 -0.0850 -0.1335
 5122TIP3    H236858   2.144   2.218   4.045 -0.4131  0.5006 -0.9056
 5123TIP3   OH236859   0.693   5.463   4.703  0.2429  0.0010  0.4165
 5123TIP3    H136860   0.786   5.484   4.705  0.3548 -0.2704 -1.0539
 5123TIP3    H236861   0.654   5.534   4.653  0.1210 -1.4182 -1.6022
 5124TIP3   OH236862   0.722   3.675  15.222 -0.3453 -0.5674  0.3607
 5124TIP3    H136863   0.652   3.741  15.221 -0.4795 -0.6596  1.9426
 5124TIP3    H236864   0.780   3.702  15.293  0.9505 -0.8059 -0.5696
 5125TIP3   OH236865   6.358   2.338  11.851 -0.0404 -0.1348 -0.4951
 5125TIP3    H136866   6.431   2.307  11.797 -0.8640 -1.1135 -1.0806
 5125TIP3    H236867   6.389   2.326  11.941  1.4724  1.8191 -0.6911
 5126TIP3   OH236868   0.083   0.660   2.388 -0.3389 -0.9478 -0.0333
 5126TIP3    H136869   0.012   0.710   2.429  1.0838  0.7062  0.5318
 5126TIP3    H236870   0.054   0.648   2.297 -0.9794  0.4800 -0.0464
 5127TIP3   OH236871   6.780   1.610   6.788  0.0576  0.0985  0.1840
 5127TIP3    H136872   6.752   1.594   6.878  0.2161 -1.8956 -0.0805
 5127TIP3    H236873   6.811   1.701   6.788 -0.8924  0.4574  1.8792
 5128TIP3   OH236874   0.777   0.043  13.891  0.0258 -0.6993  0.6264
 5128TIP3    H136875   0.830  -0.027  13.852  1.0756  0.1046  0.5628
 5128TIP3    H236876   0.838   0.091  13.947 -0.2089  1.2009 -0.6536
 5129TIP3   OH236877   6.494   0.961   5.000 -0.3610  0.4461  0.7273
 5129TIP3    H136878   6.406   0.940   4.969 -0.8931 -0.0013  2.4328
 5129TIP3    H236879   6.485   1.045   5.043 -0.2494 -0.1667  1.9924
 5130TIP3   OH236880   4.463   5.409   4.406  0.1778  0.3282  0.0656
 5130TIP3    H136881   4.369   5.420   4.392  0.2152  2.0838  0.9362
 5130TIP3    H236882   4.504   5.480   4.356  0.9139  0.6552  1.1055
 5131TIP3   OH236883   2.433   5.157  12.020 -0.7863  0.3498 -0.3298
 5131TIP3    H136884   2.370   5.168  12.092  0.6431 -0.8144  1.1616
 5131TIP3    H236885   2.519   5.166  12.061  0.0721 -0.1706 -1.9339
 5132TIP3   OH236886   3.275   2.915  13.185  0.6745  0.6342 -0.0654
 5132TIP3    H136887   3.215   2.985  13.210  1.6939  1.2641  0.7242
 5132TIP3    H236888   3.290   2.928  13.091 -0.5733  0.3253 -0.3221
 5133TIP3   OH236889   5.142   6.518   0.040  0.1211 -0.1618  0.2361
 5133TIP3    H136890   5.131   6.599   0.090 -2.2282 -0.7154  0.7638
 5133TIP3    H236891   5.176   6.455   0.104  0.6216  0.0389  0.1751
 5134TIP3   OH236892   3.111   4.026   2.904  0.0030 -0.0313  0.4607
 5134TIP3    H136893   3.176   4.009   2.835  1.4824 -0.2040  1.8481
 5134TIP3    H236894   3.036   3.971   2.880 -0.6627  1.9336 -2.4733
 5135TIP3   OH236895   0.238   0.170   2.772  0.8284  0.3638 -0.0166
 5135TIP3    H136896   0.262   0.085   2.735  1.9021 -0.3656  2.1966
 5135TIP3    H236897   0.317   0.223   2.763  0.7049  0.5759  0.1545
 5136TIP3   OH236898   2.732   3.266   6.598  0.6859  0.3984 -0.3323
 5136TIP3    H136899   2.700   3.178   6.617 -0.5333  0.5647 -1.4912
 5136TIP3    H236900   2.667   3.324   6.637  1.0832  0.7945 -0.2473
 5137TIP3   OH236901   4.206   2.656   1.401 -0.1492  0.1733 -0.0167
 5137TIP3    H136902   4.237   2.646   1.311 -1.2138 -1.8705 -0.2179
 5137TIP3    H236903   4.273   2.614   1.455  0.8586  2.0434  0.2779
 5138TIP3   OH236904   2.005   5.531  12.217 -0.6756 -0.0412  0.3022
 5138TIP3    H136905   2.047   5.608  12.179 -0.5597  0.2616  1.0281
 5138TIP3    H236906   2.036   5.458  12.163 -0.2434  0.3385  0.0290
 5139TIP3   OH236907   4.755   1.149  12.923 -0.3060  0.4893 -0.1720
 5139TIP3    H136908   4.700   1.174  12.849 -1.3506 -2.0402 -0.3650
 5139TIP3    H236909   4.766   1.054  12.913  2.4676  0.5889  0.9989
 5140TIP3   OH236910   1.886   5.170  13.284 -0.2590  0.0952 -0.2503
 5140TIP3    H136911   1.919   5.084  13.259 -1.1247 -0.4325  0.3705
 5140TIP3    H236912   1.890   5.171  13.380 -1.3861  0.2704 -0.1931
 5141TIP3   OH236913   5.256   5.730  11.514  0.5018 -0.0308  0.0815
 5141TIP3    H136914   5.201   5.744  11.437 -0.2457 -0.5904  0.5103
 5141TIP3    H236915   5.267   5.817  11.552  0.8329  0.2439 -0.6181
 5142TIP3   OH236916   4.451   5.921   0.689 -0.2481 -0.0317 -0.2019
 5142TIP3    H136917   4.419   5.929   0.599 -1.1264 -1.8498 -0.0924
 5142TIP3    H236918   4.373   5.926   0.743  0.1526 -0.0475  0.3940
 5143TIP3   OH236919   4.591   2.921  13.432 -0.0293 -0.3309  0.1958
 5143TIP3    H136920   4.629   3.002  13.399 -0.6393  0.1169  0.5683
 5143TIP3    H236921   4.581   2.866  13.355 -1.7760  0.8383 -0.4879
 5144TIP3   OH236922   5.302   3.256  17.025 -0.5390  0.0508 -1.0994
 5144TIP3    H136923   5.319   3.173  17.070 -3.7070  0.2789  0.8915
 5144TIP3    H236924   5.339   3.245  16.938  3.0194 -1.7125  0.4219
 5145TIP3   OH236925   1.560   1.471   1.754 -0.1322  0.1639 -0.1699
 5145TIP3    H136926   1.547   1.545   1.814 -1.0427  0.3969 -0.6434
 5145TIP3    H236927   1.641   1.493   1.707  0.1489  0.3686  0.3878
 5146TIP3   OH236928   3.732   0.356   6.332  0.3690 -0.0542 -0.1961
 5146TIP3    H136929   3.813   0.407   6.325 -0.4094  1.1222 -1.1383
 5146TIP3    H236930   3.739   0.311   6.416  2.3436 -0.6209 -0.6032
 5147TIP3   OH236931   1.188   6.321  14.457  0.3592 -0.1697 -0.1898
 5147TIP3    H136932   1.245   6.272  14.398 -0.3978 -0.6517 -0.5434
 5147TIP3    H236933   1.132   6.373  14.400 -0.9939 -1.3262  0.0277
 5148TIP3   OH236934   0.359   4.524   1.410  0.2173  0.3206 -0.0188
 5148TIP3    H136935   0.291   4.502   1.474 -0.3553 -0.8680 -1.0135
 5148TIP3    H236936   0.340   4.470   1.334  2.2214  0.0171 -0.3724
 5149TIP3   OH236937   6.815   0.698   5.483 -0.2722  0.4252  0.1567
 5149TIP3    H136938   6.906   0.702   5.513 -0.2481  2.7569 -0.0148
 5149TIP3    H236939   6.798   0.605   5.468  1.5253 -0.2315  1.8374
 5150TIP3   OH236940   4.313   0.735  16.836  0.0285 -0.0440 -0.1240
 5150TIP3    H136941   4.355   0.649  16.847 -0.8350 -0.2987  1.3774
 5150TIP3    H236942   4.362   0.776  16.764  0.7647 -1.5897 -0.5501
 5151TIP3   OH236943   3.552   4.623   2.533 -0.4622  0.1466 -0.1364
 5151TIP3    H136944   3.613   4.550   2.543  1.0415  1.3455 -0.2264
 5151TIP3    H236945   3.576   4.684   2.602 -1.5752  0.6622 -0.1811
 5152TIP3   OH236946   5.230   4.940  16.787  0.0926 -0.0103 -0.0600
 5152TIP3    H136947   5.263   4.912  16.702  1.5714 -1.2489  0.8420
 5152TIP3    H236948   5.303   4.990  16.825 -0.4154  0.2297  0.6113
 5153TIP3   OH236949   6.285   2.904   4.521  0.0459  0.3339 -0.1732
 5153TIP3    H136950   6.328   2.865   4.597  2.5168  1.1407 -1.0776
 5153TIP3    H236951   6.252   2.988   4.553  1.6616  0.9760 -0.0836
 5154TIP3   OH236952   6.303   5.402  15.099 -0.3740 -0.2178  0.1857
 5154TIP3    H136953   6.279   5.332  15.039 -0.6053  0.5079 -0.6027
 5154TIP3    H236954   6.392   5.383  15.125 -1.3717 -2.4047  2.3349
 5155TIP3   OH236955   4.005   0.369  13.129 -0.6988  0.2815  0.0802
 5155TIP3    H136956   4.016   0.390  13.036 -1.3791  0.3719  0.0156
 5155TIP3    H236957   3.961   0.284  13.130 -1.9091  0.8899  0.2969
 5156TIP3   OH236958   6.615   3.482   1.874 -0.3501  0.6920 -0.1747
 5156TIP3    H136959   6.653   3.461   1.960  0.0784 -1.5025 -0.8314
 5156TIP3    H236960   6.551   3.413   1.859 -0.8139  1.3656 -1.3911
 5157TIP3   OH236961   2.311   1.656  14.469 -0.5764  0.6435 -0.0035
 5157TIP3    H136962   2.331   1.598  14.543 -1.9854 -1.8197 -1.4287
 5157TIP3    H236963   2.217   1.673  14.477 -1.1863 -1.2580 -2.1811
 5158TIP3   OH236964   4.322   0.846  15.106  0.5172 -0.6732  1.3832
 5158TIP3    H136965   4.333   0.773  15.046 -0.0201  0.2512  0.1281
 5158TIP3    H236966   4.246   0.894  15.073  1.2188  0.7912  1.8071
 5159TIP3   OH236967   0.110   0.268   5.366  0.1299  0.1922 -0.2870
 5159TIP3    H136968   0.181   0.224   5.412  0.6679  1.9691  0.6785
 5159TIP3    H236969   0.147   0.353   5.340 -0.8099  0.0640 -2.2043
 5160TIP3   OH236970   1.936   3.378  15.599  0.6646  0.2408 -0.8102
 5160TIP3    H136971   1.887   3.296  15.598 -0.1661  0.7324 -1.3964
 5160TIP3    H236972   2.027   3.351  15.588  0.4777 -0.6391 -0.3455
 5161TIP3   OH236973   2.993   0.229  12.383  0.8684  0.3013 -0.1429
 5161TIP3    H136974   3.053   0.280  12.328 -1.3091  1.5213 -1.5512
 5161TIP3    H236975   2.914   0.222  12.331 -0.9438  0.5232  2.4180
 5162TIP3   OH236976   0.821   1.253  16.098 -0.5787 -0.3276  0.8969
 5162TIP3    H136977   0.913   1.267  16.078 -0.7508  0.3476  0.5301
 5162TIP3    H236978   0.805   1.304  16.177 -1.6095  3.3003 -1.3702
 5163TIP3   OH236979   0.841   1.323  15.325 -0.2756 -0.0680 -0.2607
 5163TIP3    H136980   0.833   1.228  15.321 -2.0577  0.0911 -1.5291
 5163TIP3    H236981   0.859   1.349  15.235 -0.0518  0.8257  0.0347
 5164TIP3   OH236982   5.767   3.495  12.414  0.5119  0.0080  0.0800
 5164TIP3    H136983   5.856   3.463  12.403  0.1747 -0.8915 -0.1405
 5164TIP3    H236984   5.718   3.454  12.342 -0.2428 -0.1518  0.6722
 5165TIP3   OH236985   5.788   6.591   5.700  0.4623  0.0072 -0.1234
 5165TIP3    H136986   5.707   6.609   5.654  0.9660 -0.6158 -1.3179
 5165TIP3    H236987   5.774   6.622   5.789  0.2453  3.3703 -1.2199
 5166TIP3   OH236988   2.983   4.811   3.215  0.1826 -0.3767 -0.9647
 5166TIP3    H136989   2.991   4.716   3.207  2.8836 -0.1649 -1.7273
 5166TIP3    H236990   2.991   4.844   3.126  1.2909  0.6334 -0.5243
 5167TIP3   OH236991   2.131   1.167   4.577  0.4228  0.7701 -0.0148
 5167TIP3    H136992   2.122   1.073   4.562 -1.7980  1.0329 -0.7724
 5167TIP3    H236993   2.166   1.174   4.665 -1.3799 -0.7955  0.9126
 5168TIP3   OH236994   2.370   5.675   6.088 -0.0941 -0.4282 -0.1717
 5168TIP3    H136995   2.301   5.741   6.083  0.1138 -0.2548 -0.9316
 5168TIP3    H236996   2.343   5.617   6.159 -0.8275 -0.1412 -0.2107
 5169TIP3   OH236997   3.235   1.691   2.626 -0.0876 -0.1985 -0.8396
 5169TIP3    H136998   3.153   1.720   2.667 -0.0608 -1.9791  0.5800
 5169TIP3    H236999   3.304   1.735   2.678 -0.0912 -1.4340  0.2660
 5170TIP3   OH237000   2.890   5.828  16.331 -0.0426  0.0321  0.2251
 5170TIP3    H137001   2.890   5.866  16.243 -0.5406  0.3005  0.3379
 5170TIP3    H237002   2.798   5.810  16.349  0.1332 -0.7259  0.3968
 5171TIP3   OH237003   4.892   0.474  15.937  0.2618  0.2258 -0.6368
 5171TIP3    H137004   4.949   0.546  15.908 -1.7169  1.3027 -2.1126
 5171TIP3    H237005   4.900   0.408  15.868 -0.7408  0.6875 -1.2258
 5172TIP3   OH237006   2.348   2.337   2.299 -0.1651 -0.5142  0.3665
 5172TIP3    H137007   2.283   2.366   2.235  1.1017 -0.0512 -0.7511
 5172TIP3    H237008   2.298   2.285   2.362 -1.7704  0.6046  0.0700
 5173TIP3   OH237009   6.038   4.065   2.909 -0.2440  0.4775  0.2223
 5173TIP3    H137010   5.996   4.152   2.910  0.2108  0.7049 -0.0040
 5173TIP3    H237011   5.992   4.017   2.840  1.2441  1.4356 -1.5112
 5174TIP3   OH237012   2.996   3.035  12.815 -0.0878 -0.5270 -0.1189
 5174TIP3    H137013   3.050   2.964  12.781  1.6085  0.7220 -0.1422
 5174TIP3    H237014   2.966   3.082  12.737 -1.0466 -1.0631 -0.0934
 5175TIP3   OH237015   4.239   3.071   4.085 -0.1539 -0.1693 -0.0128
 5175TIP3    H137016   4.177   3.136   4.117  0.6198  0.7982 -0.4128
 5175TIP3    H237017   4.248   3.090   3.992 -0.3215 -1.2036 -0.2519
 5176TIP3   OH237018   3.652   4.548   4.436 -0.2941  0.3382  0.2475
 5176TIP3    H137019   3.574   4.601   4.451 -0.9132 -0.3921 -0.2647
 5176TIP3    H237020   3.622   4.479   4.376  0.6910 -0.0843  0.2260
 5177TIP3   OH237021   3.685   1.619  16.146 -0.1077  0.0845 -0.7874
 5177TIP3    H137022   3.597   1.607  16.182  0.6732 -0.4716  1.0700
 5177TIP3    H237023   3.704   1.712  16.158 -0.3165  0.1443 -0.9149
 5178TIP3   OH237024   5.765   5.656  14.182  0.1745 -0.3895  0.1810
 5178TIP3    H137025   5.725   5.736  14.149 -0.7343 -0.1636  1.7599
 5178TIP3    H237026   5.855   5.681  14.204  0.9208 -0.6146 -2.2590
 5179TIP3   OH237027   3.263   1.174  11.437  0.0645 -0.4554  0.0892
 5179TIP3    H137028   3.180   1.213  11.464 -0.8755 -1.0005 -1.8437
 5179TIP3    H237029   3.292   1.227  11.362  0.2279 -1.6900 -0.7528
 5180TIP3   OH237030   3.695   1.246  11.406  0.2030 -0.3932  0.3544
 5180TIP3    H137031   3.603   1.262  11.385  0.4335 -0.9865 -1.2105
 5180TIP3    H237032   3.708   1.153  11.389  1.2364 -0.1942  0.0028
 5181TIP3   OH237033   3.961   4.136  12.525 -0.6848 -0.9522 -0.1448
 5181TIP3    H137034   3.934   4.100  12.440  1.4896 -1.5178 -0.6632
 5181TIP3    H237035   3.975   4.059  12.580  3.1485 -1.0787 -0.9990
 5182TIP3   OH237036   2.118   6.753  10.668  0.2989 -0.1518 -0.3361
 5182TIP3    H137037   2.125   6.820  10.599 -1.4962  2.8406  2.1333
 5182TIP3    H237038   2.051   6.693  10.636  1.5624 -0.5603 -2.3957
 5183TIP3   OH237039   5.795   4.157  13.103 -0.0201 -0.4343 -0.1794
 5183TIP3    H137040   5.761   4.096  13.169  0.7286 -2.5081 -1.6102
 5183TIP3    H237041   5.717   4.201  13.069 -0.5745 -0.5169  0.9240
 5184TIP3   OH237042   3.843   0.877  16.311  0.3057  0.7375  0.3709
 5184TIP3    H137043   3.905   0.902  16.380  0.6612 -0.1443  0.3824
 5184TIP3    H237044   3.776   0.945  16.313  1.1544  1.5811  0.5096
 5185TIP3   OH237045   1.808   2.665   4.018 -0.0287  0.3696  0.1206
 5185TIP3    H137046   1.725   2.647   3.975 -0.4504 -1.7242  1.6724
 5185TIP3    H237047   1.843   2.579   4.041  2.6668  1.1814 -0.5872
 5186TIP3   OH237048   0.860   0.325  11.920  0.2193  0.3099 -0.2063
 5186TIP3    H137049   0.911   0.396  11.881  0.3108  0.5349  0.3046
 5186TIP3    H237050   0.925   0.263  11.952  0.1374 -0.0282 -0.6894
 5187TIP3   OH237051   4.225   4.661   5.781  0.0111 -0.0275  0.0977
 5187TIP3    H137052   4.318   4.646   5.762 -0.2302 -0.1553 -1.0522
 5187TIP3    H237053   4.221   4.671   5.877  1.5725  2.6702 -0.0271
 5188TIP3   OH237054   3.633   1.172   0.790  0.4253  0.1593  0.4056
 5188TIP3    H137055   3.640   1.115   0.714 -0.4335  0.1749  0.2994
 5188TIP3    H237056   3.634   1.261   0.754 -1.3296  0.1469  0.2657
 5189TIP3   OH237057   5.609   2.452   3.153  0.5405  0.1450 -0.0969
 5189TIP3    H137058   5.581   2.370   3.112  0.4645  0.0621  0.1196
 5189TIP3    H237059   5.529   2.503   3.162  0.1644 -0.6874  1.8902
 5190TIP3   OH237060   3.436   3.517  14.182  0.0322  0.8634  0.3196
 5190TIP3    H137061   3.428   3.505  14.087  1.3458 -0.8082  0.3712
 5190TIP3    H237062   3.466   3.432  14.214  1.5053  1.9522  2.0001
 5191TIP3   OH237063   2.526   5.123  11.224  0.1030  0.3288 -0.9524
 5191TIP3    H137064   2.520   5.216  11.244  2.9053  0.2351  0.8699
 5191TIP3    H237065   2.581   5.119  11.145  2.6482  0.2284  0.7165
 5192TIP3   OH237066   5.905   2.333  15.359 -0.1550  0.0517 -0.2134
 5192TIP3    H137067   5.888   2.241  15.340  0.0326  0.0198 -0.2282
 5192TIP3    H237068   5.826   2.379  15.331  0.3512  0.0890 -1.6735
 5193TIP3   OH237069   5.279   6.776   4.711 -0.0256 -0.1372 -0.6540
 5193TIP3    H137070   5.331   6.812   4.639  0.0088 -0.5777 -0.8583
 5193TIP3    H237071   5.258   6.851   4.766  1.6939 -0.0784 -0.0115
 5194TIP3   OH237072   6.678   1.012   0.094  0.3256 -0.0073  0.4048
 5194TIP3    H137073   6.680   0.917   0.079 -0.0541 -0.1061  0.9483
 5194TIP3    H237074   6.585   1.034   0.093  0.4563  0.9162 -2.9723
 5195TIP3   OH237075   3.664   4.371  11.326  0.1223  0.0494  0.0447
 5195TIP3    H137076   3.584   4.366  11.274 -0.8602 -0.8830  1.5494
 5195TIP3    H237077   3.717   4.437  11.282 -1.0287 -0.0511 -1.5854
 5196TIP3   OH237078   4.845   4.368   2.948 -0.5159  0.3209 -0.5628
 5196TIP3    H137079   4.852   4.277   2.920 -0.6067  0.6299 -1.6467
 5196TIP3    H237080   4.923   4.410   2.913 -0.5884  0.7078 -0.2641
 5197TIP3   OH237081   1.725   3.056   1.257  0.1048 -0.3122 -0.2354
 5197TIP3    H137082   1.745   3.109   1.180  0.2121 -0.9568 -0.6603
 5197TIP3    H237083   1.656   3.104   1.302  0.7906  0.6207 -0.1487
 5198TIP3   OH237084   6.611   4.309  12.722 -0.0833 -0.0536 -0.5539
 5198TIP3    H137085   6.593   4.215  12.717 -0.3684  0.0534 -1.7023
 5198TIP3    H237086   6.593   4.342  12.634 -1.3895  1.3202  0.1714
 5199TIP3   OH237087   2.919   6.211  15.098  0.5145  0.0665 -0.3737
 5199TIP3    H137088   2.868   6.157  15.039 -0.3818 -0.7795  1.1244
 5199TIP3    H237089   3.005   6.169  15.101  0.0609 -0.8476  0.1699
 5200TIP3   OH237090   6.161   0.560  14.817  0.2406 -0.5238  0.3432
 5200TIP3    H137091   6.219   0.496  14.859  1.1112  0.8393  1.2930
 5200TIP3    H237092   6.213   0.593  14.743  0.2390 -0.0960  0.5339
 5201TIP3   OH237093   4.977   3.430  14.197 -0.2216  0.0238  0.2422
 5201TIP3    H137094   4.979   3.374  14.120  1.0477  1.8063 -1.0859
 5201TIP3    H237095   4.900   3.486  14.184  0.9230  1.4521 -0.6164
 5202TIP3   OH237096   3.576   1.649  12.802  0.6769 -0.0535 -0.3568
 5202TIP3    H137097   3.590   1.555  12.818  0.7105  0.1903  1.1880
 5202TIP3    H237098   3.541   1.653  12.713 -0.5098 -1.6541 -0.0045
 5203TIP3   OH237099   3.116   5.165   1.049 -0.1082  0.3796  0.0230
 5203TIP3    H137100   3.097   5.140   0.959  1.3007 -1.1605  0.1084
 5203TIP3    H237101   3.109   5.084   1.099 -0.8464  1.2046  1.3208
 5204TIP3   OH237102   0.287   2.941  14.475 -0.2586 -0.4166 -0.7454
 5204TIP3    H137103   0.192   2.953  14.471 -0.0478  1.4161 -1.1683
 5204TIP3    H237104   0.306   2.884  14.400 -1.0404 -1.0339 -0.4914
 5205TIP3   OH237105   4.983   3.184   0.562  0.4153  0.1539  0.2415
 5205TIP3    H137106   5.025   3.198   0.647 -0.2158  0.0312  0.5727
 5205TIP3    H237107   4.944   3.269   0.541 -0.7425 -0.2273  0.7966
 5206TIP3   OH237108   3.859   5.844  15.363 -0.6529 -0.4192  0.0952
 5206TIP3    H137109   3.765   5.849  15.349 -0.4434  0.6536 -1.0743
 5206TIP3    H237110   3.884   5.758  15.331 -1.2388 -0.7411  0.4899
 5207TIP3   OH237111   3.261   3.584  13.171  0.3063  0.1252  0.0698
 5207TIP3    H137112   3.282   3.497  13.206 -1.0251 -1.0953 -1.9585
 5207TIP3    H237113   3.339   3.609  13.121  0.0528 -0.7099 -0.7637
 5208TIP3   OH237114   0.156   2.747  12.763 -0.2253 -0.6522 -0.2118
 5208TIP3    H137115   0.098   2.823  12.768  0.9907  0.2234  1.4558
 5208TIP3    H237116   0.226   2.774  12.703 -0.1853 -0.7367 -0.2031
 5209TIP3   OH237117   3.370   3.984   2.150 -0.3739 -0.0011  0.2442
 5209TIP3    H137118   3.373   4.080   2.148 -0.6886  0.0101  0.1264
 5209TIP3    H237119   3.461   3.956   2.146 -0.1909  0.3158  1.7253
 5210TIP3   OH237120   6.665   6.240  11.746  0.1153 -0.6842 -0.3404
 5210TIP3    H137121   6.685   6.198  11.662  0.1567  0.3021 -0.8370
 5210TIP3    H237122   6.727   6.313  11.751  2.4066 -2.6063  2.0784
 5211TIP3   OH237123   6.690   5.484  17.209 -0.2446  0.0949 -0.6071
 5211TIP3    H137124   6.643   5.400  17.206  1.4659 -0.8925 -1.1917
 5211TIP3    H237125   6.767   5.470  17.154  0.5737  1.7639  0.0529
 5212TIP3   OH237126   3.765   6.348  11.080  0.2934  0.1645 -0.3661
 5212TIP3    H137127   3.850   6.360  11.121 -0.5803  1.1452  1.2804
 5212TIP3    H237128   3.731   6.267  11.117  0.2214  0.1265 -0.5124
 5213TIP3   OH237129   3.958   1.309   0.773 -0.7265 -0.4605  0.0723
 5213TIP3    H137130   3.915   1.270   0.849 -0.2399 -0.1621  0.5027
 5213TIP3    H237131   3.956   1.403   0.789  1.2480 -0.4893  0.7531
 5214TIP3   OH237132   5.931   4.766  11.549 -0.6196 -0.0090 -0.2028
 5214TIP3    H137133   5.889   4.757  11.463  0.4896  1.6697 -0.9640
 5214TIP3    H237134   5.860   4.749  11.611 -2.2264  1.7575 -1.4498
 5215TIP3   OH237135   5.051   6.211   5.681  0.3901 -0.1830  0.0715
 5215TIP3    H137136   5.028   6.302   5.700 -1.3626 -0.5075 -0.3260
 5215TIP3    H237137   5.083   6.176   5.765 -0.2418  0.4208  0.5742
 5216TIP3   OH237138   6.445   5.278  11.940  0.4855  0.4081  0.0498
 5216TIP3    H137139   6.418   5.194  11.904 -0.6240  0.5926  0.3929
 5216TIP3    H237140   6.540   5.279  11.931  0.6075 -1.2236  0.7730
 5217TIP3   OH237141   3.744   4.249   4.328  0.4227  0.4696  0.1283
 5217TIP3    H137142   3.710   4.323   4.278 -0.8159 -0.5926 -0.6728
 5217TIP3    H237143   3.723   4.269   4.419 -1.5709  0.2851 -0.2530
 5218TIP3   OH237144   0.566   3.535   4.323 -0.1906 -0.1332  0.1755
 5218TIP3    H137145   0.640   3.499   4.274 -0.0413  0.1577  0.1848
 5218TIP3    H237146   0.586   3.629   4.332 -0.6566 -0.0171  0.0048
 5219TIP3   OH237147   6.259   5.503  15.358  0.4802 -0.2261 -0.1688
 5219TIP3    H137148   6.253   5.596  15.337 -0.2681 -0.4581 -1.0526
 5219TIP3    H237149   6.260   5.459  15.273 -2.4001 -1.2024  0.2164
 5220TIP3   OH237150   5.778   6.057  11.819  0.4550  0.0343  0.1098
 5220TIP3    H137151   5.719   5.984  11.801  0.3381  0.1230  0.1335
 5220TIP3    H237152   5.853   6.017  11.862 -0.4512  0.1644  1.9460
 5221TIP3   OH237153   5.097   2.995   2.863 -0.2825 -0.2727  0.3226
 5221TIP3    H137154   5.121   2.904   2.883  0.6890  0.1100  0.9728
 5221TIP3    H237155   5.002   2.993   2.856 -0.3758 -1.1327  1.4742
 5222TIP3   OH237156   3.859   5.351   4.531  0.3476 -0.4685  0.3000
 5222TIP3    H137157   3.858   5.262   4.565 -0.5432 -0.5756  0.0306
 5222TIP3    H237158   3.811   5.402   4.597  1.9516  0.0841  1.1000
 5223TIP3   OH237159   2.273   6.282  14.614  0.0252  0.1283  0.2430
 5223TIP3    H137160   2.216   6.224  14.565  0.3013 -0.0037  0.0761
 5223TIP3    H237161   2.289   6.236  14.697 -0.8592  0.5846  0.6744
 5224TIP3   OH237162   2.270   6.296  12.268 -0.5724  0.2724 -0.0830
 5224TIP3    H137163   2.316   6.227  12.316 -0.9152  1.2365  1.7174
 5224TIP3    H237164   2.230   6.251  12.194 -0.8829 -1.5026  1.0964
 5225TIP3   OH237165   0.142   2.057   5.994 -0.4644 -0.4333  0.4881
 5225TIP3    H137166   0.189   2.049   6.077 -1.8196  1.4355  1.5206
 5225TIP3    H237167   0.050   2.050   6.018 -0.8470 -1.0616 -1.0539
 5226TIP3   OH237168   2.409   5.368  10.383 -0.2638  0.2190  0.2779
 5226TIP3    H137169   2.426   5.430  10.311 -2.7852 -1.3391 -1.8249
 5226TIP3    H237170   2.463   5.292  10.363 -0.0745  0.2382  0.7050
 5227TIP3   OH237171   5.572   5.055   0.595  0.3719 -0.0322 -0.6478
 5227TIP3    H137172   5.611   5.086   0.677  0.0564 -0.5640 -0.2945
 5227TIP3    H237173   5.640   5.000   0.556  0.6209  0.4267 -0.8782
 5228TIP3   OH237174   1.643   6.141   3.916 -0.4139 -0.5528  0.3265
 5228TIP3    H137175   1.604   6.211   3.865 -3.5866 -1.9089  0.6462
 5228TIP3    H237176   1.708   6.102   3.858 -1.0542  0.5002 -1.1528
 5229TIP3   OH237177   2.083   5.251   4.515 -0.4593  0.2163 -0.3622
 5229TIP3    H137178   2.089   5.311   4.589  0.2009  1.6382 -1.5360
 5229TIP3    H237179   2.005   5.199   4.533 -1.7414  2.2065  0.1295
 5230TIP3   OH237180   4.813   5.061   0.083  0.1455 -0.2564  0.0785
 5230TIP3    H137181   4.905   5.086   0.074  0.1336  0.0397  0.7274
 5230TIP3    H237182   4.808   5.018   0.168 -0.2683 -0.4842 -0.0616
 5231TIP3   OH237183   5.408   0.855  16.796  0.9976 -0.1009  0.3373
 5231TIP3    H137184   5.492   0.860  16.751  1.5058  1.5983  1.3774
 5231TIP3    H237185   5.387   0.946  16.817 -0.5107 -0.6084  1.1915
 5232TIP3   OH237186   0.162   3.805  16.474 -0.6668  0.4482  0.3407
 5232TIP3    H137187   0.147   3.898  16.488 -1.9640  0.2301  0.5449
 5232TIP3    H237188   0.139   3.765  16.558 -1.0112 -0.1338 -0.0240
 5233TIP3   OH237189   2.311   1.303  13.274  0.1781  0.0346 -0.0178
 5233TIP3    H137190   2.382   1.329  13.214 -0.8997  0.3410 -1.1924
 5233TIP3    H237191   2.349   1.230  13.324  1.0875 -0.3085 -1.1381
 5234TIP3   OH237192   3.482   0.730   3.480  0.1186  0.2545 -0.2965
 5234TIP3    H137193   3.445   0.704   3.564 -0.1783 -0.9849 -0.7800
 5234TIP3    H237194   3.483   0.649   3.428  1.1693  0.7907 -1.1641
 5235TIP3   OH237195   3.280   2.904   1.711 -0.3319  0.2075  0.6478
 5235TIP3    H137196   3.308   2.822   1.752  1.8877  0.1799 -0.7642
 5235TIP3    H237197   3.332   2.972   1.754 -2.1249  0.9675  1.7793
 5236TIP3   OH237198   0.725   2.150   4.068  0.0524  0.2614  0.0623
 5236TIP3    H137199   0.751   2.106   3.987  0.6617 -1.1336  0.9927
 5236TIP3    H237200   0.633   2.174   4.054 -0.6751 -2.2956 -0.1024
 5237TIP3   OH237201   1.712   0.415   5.368  0.6749  0.0316  0.2384
 5237TIP3    H137202   1.738   0.343   5.426  1.1300  1.5938  2.0804
 5237TIP3    H237203   1.618   0.405   5.358  0.5663 -0.2243  1.3661
 5238TIP3   OH237204   4.887   6.768  14.546 -0.2200 -0.0169 -0.5037
 5238TIP3    H137205   4.881   6.832  14.475  1.7722 -0.7809 -1.4098
 5238TIP3    H237206   4.926   6.816  14.619 -2.1043  0.7197  0.0861
 5239TIP3   OH237207   4.182   1.392   4.515 -0.5407  0.0674  0.2026
 5239TIP3    H137208   4.265   1.347   4.533 -1.5412 -1.4561  1.1673
 5239TIP3    H237209   4.154   1.357   4.430 -0.4601  0.1914  0.1243
 5240TIP3   OH237210   2.312   5.630   2.198 -0.3138  0.3311 -0.0862
 5240TIP3    H137211   2.317   5.698   2.264 -0.5015  1.1206 -0.8698
 5240TIP3    H237212   2.361   5.665   2.123  0.4905 -0.8289 -0.1315
 5241TIP3   OH237213   1.327   6.749   3.942 -0.6846 -0.6649  0.1032
 5241TIP3    H137214   1.342   6.771   4.034 -1.2680  0.4536 -0.0556
 5241TIP3    H237215   1.243   6.790   3.921 -0.9958 -1.6781 -0.6835
 5242TIP3   OH237216   1.622   5.911  16.967  0.1560  0.1151 -0.6041
 5242TIP3    H137217   1.569   5.859  17.028 -2.4131  1.9972 -1.0338
 5242TIP3    H237218   1.709   5.872  16.971 -1.0221 -2.6394  0.8512
 5243TIP3   OH237219   4.365   5.860  13.422 -0.4067 -1.0206  0.1082
 5243TIP3    H137220   4.295   5.801  13.451 -0.5595 -1.5150 -1.1879
 5243TIP3    H237221   4.387   5.829  13.334  0.0586  0.3735 -0.2846
 5244TIP3   OH237222   0.020   6.264  17.142  0.0841  0.0373 -0.5410
 5244TIP3    H137223   0.079   6.301  17.077  1.2491  2.5371  1.7563
 5244TIP3    H237224   0.066   6.187  17.175  0.7837  0.3838 -0.6960
 5245TIP3   OH237225   4.946   2.806   1.199 -0.0632  0.1370  0.1648
 5245TIP3    H137226   5.000   2.872   1.244  0.1225 -0.6119  1.0715
 5245TIP3    H237227   4.863   2.807   1.248  0.0685 -0.5452  0.4087
 5246TIP3   OH237228   2.646   2.608  14.152 -0.1550 -0.1492  0.2338
 5246TIP3    H137229   2.589   2.657  14.092  0.3568 -0.5842 -0.6378
 5246TIP3    H237230   2.626   2.516  14.133 -0.7306 -0.2986  1.4803
 5247TIP3   OH237231   5.530   2.619  15.631 -0.1135  0.1087 -0.0274
 5247TIP3    H137232   5.598   2.653  15.572  0.1374  0.1056  0.2572
 5247TIP3    H237233   5.467   2.691  15.637 -1.1721 -0.5907 -1.8613
 5248TIP3   OH237234   1.537   6.082  11.504  0.2761  0.3859 -0.6976
 5248TIP3    H137235   1.512   5.996  11.472  0.2937  0.5613 -1.1833
 5248TIP3    H237236   1.455   6.124  11.529  0.1161  0.7764 -1.8302
 5249TIP3   OH237237   1.055   2.413  15.654  0.0201 -0.4391  0.0304
 5249TIP3    H137238   1.020   2.430  15.741  1.3072 -0.2737  0.5430
 5249TIP3    H237239   1.019   2.484  15.600  1.4956  1.2070  1.0842
 5250TIP3   OH237240   0.662   5.175   5.174  0.1126  0.1009 -0.3393
 5250TIP3    H137241   0.642   5.263   5.204  0.6087  0.1314 -0.0962
 5250TIP3    H237242   0.730   5.186   5.108 -0.7110  0.0020 -1.2134
 5251TIP3   OH237243   2.493   0.694  14.661  0.1021 -0.1964  0.4146
 5251TIP3    H137244   2.407   0.654  14.675 -0.7200  0.9022 -1.2270
 5251TIP3    H237245   2.537   0.635  14.600  0.4615 -0.6398  1.0818
 5252TIP3   OH237246   4.193   6.015  13.902  0.4945  0.4728 -0.3062
 5252TIP3    H137247   4.170   5.945  13.963 -0.8638 -0.3544 -1.7118
 5252TIP3    H237248   4.248   6.074  13.954 -0.1421 -0.4758  1.5473
 5253TIP3   OH237249   1.967   6.718   1.513 -0.4072 -0.5391  0.1867
 5253TIP3    H137250   2.014   6.800   1.529  0.4315 -1.0631  0.5106
 5253TIP3    H237251   1.887   6.725   1.564 -0.1334 -0.0956  0.5602
 5254TIP3   OH237252   5.943   4.920  16.682 -0.0153  0.5113  0.5153
 5254TIP3    H137253   5.893   4.987  16.635  0.0618 -1.3823 -2.5858
 5254TIP3    H237254   6.033   4.953  16.683  0.1352  0.2936 -1.5253
 5255TIP3   OH237255   1.692   3.615  12.234  1.0113 -0.7075 -0.4586
 5255TIP3    H137256   1.600   3.638  12.248  0.6500 -2.6449  0.6095
 5255TIP3    H237257   1.695   3.582  12.144  0.5066 -1.2998 -0.2644
 5256TIP3   OH237258   1.628   2.228  11.211  0.3575  0.3240 -0.3450
 5256TIP3    H137259   1.632   2.145  11.162 -1.5667 -1.1422  1.8032
 5256TIP3    H237260   1.544   2.267  11.186 -0.5196 -0.3061  1.4822
 5257TIP3   OH237261   2.088   0.843  13.841 -0.2505  0.0135 -0.0519
 5257TIP3    H137262   2.002   0.864  13.804  0.2333  0.4997 -0.9154
 5257TIP3    H237263   2.138   0.924  13.834 -0.2971  0.3213  2.1948
 5258TIP3   OH237264   3.549   4.623  15.106 -0.0682  0.4522  0.1577
 5258TIP3    H137265   3.629   4.572  15.111 -0.5924 -0.2761  1.5504
 5258TIP3    H237266   3.481   4.559  15.084 -0.3488  0.9925 -0.5961
 5259TIP3   OH237267   4.469   3.844  13.944 -0.0336  0.1696 -0.2186
 5259TIP3    H137268   4.523   3.765  13.941 -0.1420  0.1297 -1.6749
 5259TIP3    H237269   4.431   3.850  13.857  1.5716  2.9686 -0.8210
 5260TIP3   OH237270   2.234   6.072   2.769 -0.3615 -0.5219 -0.1227
 5260TIP3    H137271   2.302   6.120   2.722  0.3840  0.4706  1.8558
 5260TIP3    H237272   2.254   5.980   2.754  1.7407 -0.2608  0.8172
 5261TIP3   OH237273   6.029   3.636   1.516 -0.1093  0.7276  0.3378
 5261TIP3    H137274   6.096   3.585   1.562 -1.1737  0.8064  2.0450
 5261TIP3    H237275   6.049   3.727   1.539 -1.7013  0.6761  2.2750
 5262TIP3   OH237276   6.493   3.989  13.344 -0.8097  0.2104 -0.4128
 5262TIP3    H137277   6.479   3.939  13.264 -0.4169  2.7933 -2.2067
 5262TIP3    H237278   6.579   3.960  13.376 -1.3232 -1.4153 -0.4029
 5263TIP3   OH237279   1.191   0.814   5.827  0.0414  0.2578 -0.2903
 5263TIP3    H137280   1.243   0.795   5.906 -0.0328 -0.3567 -0.3809
 5263TIP3    H237281   1.188   0.909   5.822 -1.3939  0.3614  1.4234
 5264TIP3   OH237282   4.112   5.993  10.499  0.4760 -0.0503 -0.2246
 5264TIP3    H137283   4.093   6.086  10.503 -0.4662 -0.2837  2.1326
 5264TIP3    H237284   4.026   5.950  10.498  0.8265 -0.9124  1.6614
 5265TIP3   OH237285   0.642   4.122   3.634  0.3100  0.0319 -0.0676
 5265TIP3    H137286   0.599   4.116   3.719 -2.0102  0.3901 -1.1496
 5265TIP3    H237287   0.581   4.170   3.579  2.1304  0.5863 -1.7285
 5266TIP3   OH237288   2.288   0.339  11.666  0.1206  0.2775 -0.0756
 5266TIP3    H137289   2.217   0.398  11.691 -0.0629  0.7979 -1.7173
 5266TIP3    H237290   2.244   0.260  11.635  0.3006  0.1293  0.0440
 5267TIP3   OH237291   4.397   3.559  13.369  0.0757 -0.7715 -0.0824
 5267TIP3    H137292   4.361   3.484  13.321 -3.3518 -0.0766  1.1289
 5267TIP3    H237293   4.417   3.624  13.301 -1.6073 -1.0063 -0.8354
 5268TIP3   OH237294   0.577   5.439  13.354 -0.1524  0.1884  0.6372
 5268TIP3    H137295   0.482   5.424  13.352 -0.0889 -0.1738  0.3702
 5268TIP3    H237296   0.589   5.502  13.425 -0.6492  0.6461  0.3234
 5269TIP3   OH237297   2.707   6.776   1.244 -0.5203 -0.2405  0.8957
 5269TIP3    H137298   2.759   6.799   1.321  1.2308 -2.3325  0.4363
 5269TIP3    H237299   2.757   6.812   1.170 -1.0402 -0.1110  0.6063
 5270TIP3   OH237300   4.907   1.366  12.171 -0.3467 -0.1442 -0.5952
 5270TIP3    H137301   4.977   1.426  12.145  0.5199 -0.7281  0.2980
 5270TIP3    H237302   4.833   1.390  12.116 -0.3247  2.3331  0.3344
 5271TIP3   OH237303   4.208   0.539  14.193 -0.0699 -0.0858  0.0913
 5271TIP3    H137304   4.240   0.556  14.104  2.1093  0.0116  0.8341
 5271TIP3    H237305   4.120   0.577  14.194  0.1832  0.6885 -1.7568
 5272TIP3   OH237306   3.837   2.842  16.539  0.1098 -0.3286  0.0348
 5272TIP3    H137307   3.778   2.812  16.470 -0.4582  0.8222 -0.0014
 5272TIP3    H237308   3.875   2.761  16.574 -0.5392 -1.0108 -0.7768
 5273TIP3   OH237309   5.837   6.521  13.539  0.2118 -0.3597 -0.1081
 5273TIP3    H137310   5.799   6.532  13.626  1.3368  1.8541  0.1696
 5273TIP3    H237311   5.911   6.462  13.552  0.6511  0.3185  0.5471
 5274TIP3   OH237312   2.972   6.527  16.811  0.5675 -0.7087  0.1452
 5274TIP3    H137313   2.910   6.597  16.787  0.9810 -0.2696  0.3391
 5274TIP3    H237314   2.922   6.446  16.801  0.4481 -0.4850 -1.3603
 5275TIP3   OH237315   0.161   6.440  16.047  0.1951  0.0691  0.1451
 5275TIP3    H137316   0.231   6.500  16.072  1.2466 -1.3587  0.7676
 5275TIP3    H237317   0.180   6.418  15.955 -0.2336  0.7195 -0.1063
 5276TIP3   OH237318   4.820   6.693   1.729 -0.5533  0.2860 -0.3435
 5276TIP3    H137319   4.807   6.725   1.818  0.9094 -1.6824  0.6421
 5276TIP3    H237320   4.838   6.600   1.739 -0.8829 -0.0989 -2.7609
 5277TIP3   OH237321   6.515   3.373   5.148 -0.0730 -0.6303 -0.0604
 5277TIP3    H137322   6.607   3.348   5.155  0.3843 -0.1012 -3.0745
 5277TIP3    H237323   6.502   3.439   5.216  2.3920  0.8694 -0.9489
 5278TIP3   OH237324   1.628   3.309   1.031  0.0484 -0.2440 -0.5796
 5278TIP3    H137325   1.652   3.336   1.119 -0.1097  0.7040 -0.8198
 5278TIP3    H237326   1.700   3.253   1.002 -0.0571 -0.8434  0.2645
 5279TIP3   OH237327   0.093   5.966   1.577  0.4191  0.1815 -0.4184
 5279TIP3    H137328   0.031   6.039   1.567  0.9875  0.7746  0.2419
 5279TIP3    H237329   0.167   5.990   1.522  2.6736  2.4789  3.1691
 5280TIP3   OH237330   1.625   5.469  12.129  0.2241 -0.0971 -0.9170
 5280TIP3    H137331   1.609   5.445  12.037  1.8269 -1.7969 -0.8235
 5280TIP3    H237332   1.610   5.388  12.178 -1.3851  0.9819  0.4723
 5281TIP3   OH237333   2.115   2.565   5.094  0.2949 -0.2896 -0.0910
 5281TIP3    H137334   2.084   2.644   5.136 -1.2192 -0.5056 -0.7246
 5281TIP3    H237335   2.193   2.592   5.046 -0.1396  0.8090 -0.2097
 5282TIP3   OH237336   1.233   2.162   0.743  0.0064 -0.4496 -0.0708
 5282TIP3    H137337   1.239   2.120   0.828 -0.3077 -0.7364 -0.1881
 5282TIP3    H237338   1.305   2.124   0.692 -0.4749 -1.0958 -0.2810
 5283TIP3   OH237339   2.063   4.968  12.140 -0.9370 -0.1373 -0.4859
 5283TIP3    H137340   2.119   4.920  12.079 -1.0105 -0.2619 -0.4564
 5283TIP3    H237341   2.077   4.926  12.225  0.7718  1.3786  0.0386
 5284TIP3   OH237342   6.276   3.884   2.954  0.0679  0.1576  0.4616
 5284TIP3    H137343   6.262   3.838   3.037  0.2004  1.8670  1.4650
 5284TIP3    H237344   6.195   3.932   2.939  0.4217  0.6475  0.1059
 5285TIP3   OH237345   1.625   1.379   0.577 -0.1419 -0.0373 -0.1942
 5285TIP3    H137346   1.677   1.427   0.512  0.5321 -0.5790 -0.0706
 5285TIP3    H237347   1.564   1.443   0.612 -0.3299  0.3296 -1.1738
 5286TIP3   OH237348   4.839   5.518  11.143 -0.0745  0.1705 -0.6520
 5286TIP3    H137349   4.873   5.588  11.087  0.5654 -0.1111 -0.6201
 5286TIP3    H237350   4.891   5.441  11.120 -0.2086 -0.0945 -0.0907
 5287TIP3   OH237351   5.600   6.455  17.202  0.2659 -0.5141 -0.2026
 5287TIP3    H137352   5.516   6.427  17.239  0.0523 -0.5694 -0.7217
 5287TIP3    H237353   5.620   6.536  17.248 -0.8550  0.3482 -1.1678
 5288TIP3   OH237354   1.186   0.059  15.811 -0.7917 -0.1173 -0.5544
 5288TIP3    H137355   1.201  -0.034  15.830  1.6177  0.0228 -1.4912
 5288TIP3    H237356   1.254   0.105  15.860 -2.6186  1.3219  0.7811
 5289TIP3   OH237357   4.508   3.684   1.211  0.3363  0.0289 -0.6466
 5289TIP3    H137358   4.569   3.646   1.274  0.7045 -1.3935 -1.7814
 5289TIP3    H237359   4.538   3.650   1.126 -2.3929 -1.2726 -1.1987
 5290TIP3   OH237360   5.959   2.886   0.414  0.3708  0.4716  0.0110
 5290TIP3    H137361   5.988   2.805   0.454  1.8510 -0.4175 -2.6276
 5290TIP3    H237362   5.959   2.868   0.320  0.2385  3.3617 -0.6396
 5291TIP3   OH237363   4.920   5.513   4.982  0.3264 -0.3965 -0.0779
 5291TIP3    H137364   4.964   5.593   4.954  1.6068 -0.5260  1.3952
 5291TIP3    H237365   4.859   5.542   5.050 -2.3539 -0.1529 -2.4333
 5292TIP3   OH237366   4.027   3.943  11.342 -0.2023 -0.3228 -0.1405
 5292TIP3    H137367   4.025   3.853  11.310  0.3890 -0.2330 -0.4424
 5292TIP3    H237368   4.038   3.935  11.436 -2.1758 -0.5942  0.1029
 5293TIP3   OH237369   2.982   4.430   2.528  0.7723  0.4735 -0.4151
 5293TIP3    H137370   2.956   4.453   2.438 -2.9769 -0.4816  0.2442
 5293TIP3    H237371   3.057   4.372   2.517  0.0228 -0.1486 -3.0260
 5294TIP3   OH237372   0.483   0.007  14.978 -0.0107  0.4217  0.6646
 5294TIP3    H137373   0.412   0.071  14.972 -1.3413 -1.1144 -1.1665
 5294TIP3    H237374   0.538   0.024  14.901  0.3548  0.2183  0.8783
 5295TIP3   OH237375   4.054   0.709  13.254  0.0369 -0.3526  0.0247
 5295TIP3    H137376   4.061   0.713  13.159  1.6583 -0.5599  0.1057
 5295TIP3    H237377   4.120   0.645  13.281 -1.0870 -1.0546  1.2284
 5296TIP3   OH237378   5.574   6.110  16.572 -0.0936 -0.5345 -0.2138
 5296TIP3    H137379   5.541   6.110  16.482  1.2435 -0.1408 -0.7276
 5296TIP3    H237380   5.538   6.190  16.610 -0.6510 -0.6909 -0.3956
 5297TIP3   OH237381   6.204   0.224   5.789 -0.4167  0.1097  0.4805
 5297TIP3    H137382   6.193   0.311   5.828 -0.1062 -0.4239  1.8424
 5297TIP3    H237383   6.280   0.187   5.835 -0.3201 -0.7487 -0.3396
 5298TIP3   OH237384   4.629   6.588   3.416  0.0266 -0.2455 -0.7421
 5298TIP3    H137385   4.579   6.665   3.388  1.0148  0.4034 -0.7864
 5298TIP3    H237386   4.579   6.552   3.489 -0.1368  0.8145 -0.3086
 5299TIP3   OH237387   1.056   3.478   5.370 -0.0046  0.1374  0.0077
 5299TIP3    H137388   1.131   3.520   5.328 -0.1611  0.1957 -0.2152
 5299TIP3    H237389   0.988   3.477   5.302  0.8182 -2.8666 -0.9352
 5300TIP3   OH237390   3.836   5.940   4.392 -0.5262 -0.4299  0.1203
 5300TIP3    H137391   3.880   5.982   4.466  0.0771 -1.3454  0.3027
 5300TIP3    H237392   3.882   5.972   4.315 -1.4470  0.8819  0.0767
 5301TIP3   OH237393   0.362   5.187   1.123 -0.6831 -0.2902  0.3829
 5301TIP3    H137394   0.449   5.216   1.093 -0.2217 -2.5250 -0.7038
 5301TIP3    H237395   0.301   5.221   1.058 -0.3637 -0.3650  0.0417
 5302TIP3   OH237396   2.100   2.802   0.654 -0.2172  0.1396  0.3603
 5302TIP3    H137397   2.138   2.888   0.640  2.6754 -1.3599 -2.2682
 5302TIP3    H237398   2.007   2.813   0.635  0.2306  2.5003 -0.7760
 5303TIP3   OH237399   0.416   0.018   2.020  0.1175 -0.4977 -0.2409
 5303TIP3    H137400   0.410   0.065   1.938 -0.0516 -2.3377 -1.3392
 5303TIP3    H237401   0.489   0.059   2.066 -1.5071  2.3555 -0.0372
 5304TIP3   OH237402   2.680   2.890  14.415  0.1456 -0.2937 -0.0660
 5304TIP3    H137403   2.645   2.961  14.469 -1.2383  0.1494 -1.4659
 5304TIP3    H237404   2.607   2.829  14.404 -0.4107  0.7185 -3.1629
 5305TIP3   OH237405   3.756   6.008  16.636 -0.3094 -0.3280  0.2120
 5305TIP3    H137406   3.677   6.012  16.689 -0.3257 -2.2359  0.4127
 5305TIP3    H237407   3.731   6.049  16.553 -1.5244 -0.8843  0.2743
 5306TIP3   OH237408   2.709   6.374  12.802  0.4994 -0.6879  0.4429
 5306TIP3    H137409   2.792   6.419  12.815 -0.1838  0.7432  0.1294
 5306TIP3    H237410   2.703   6.313  12.875  1.4884 -0.2913  0.8787
 5307TIP3   OH237411   3.410   5.750   4.699  0.1805  0.5745 -0.4325
 5307TIP3    H137412   3.380   5.660   4.685 -1.6519  1.0466  0.1272
 5307TIP3    H237413   3.501   5.741   4.727 -0.2880 -1.1954  0.7018
 5308TIP3   OH237414   3.531   3.743  15.679 -0.2706  0.7267  0.7616
 5308TIP3    H137415   3.619   3.731  15.714 -0.4445 -0.4904  0.8492
 5308TIP3    H237416   3.537   3.821  15.623  1.0680  0.2147  0.1443
 5309TIP3   OH237417   4.895   3.570  14.891 -0.4373 -0.1021 -0.4819
 5309TIP3    H137418   4.908   3.527  14.806 -1.0251 -0.0072 -0.6193
 5309TIP3    H237419   4.825   3.520  14.933  0.1980 -0.4658  0.1649
 5310TIP3   OH237420   1.676   6.554   2.483  0.1230 -0.1754  0.1997
 5310TIP3    H137421   1.725   6.599   2.552 -0.1260 -0.2752  0.4431
 5310TIP3    H237422   1.641   6.624   2.430  1.6215 -0.1028 -0.7656
 5311TIP3   OH237423   3.674   5.106   3.083 -0.2788 -0.4562 -0.5838
 5311TIP3    H137424   3.628   5.170   3.028  0.5407 -0.3497 -1.1575
 5311TIP3    H237425   3.640   5.021   3.055 -1.4089 -0.2906  0.2155
 5312TIP3   OH237426   1.537   6.798  16.525  1.1373 -0.2373 -0.0959
 5312TIP3    H137427   1.594   6.840  16.590  0.6094  0.9744 -0.3761
 5312TIP3    H237428   1.594   6.783  16.450  1.0315  1.3266 -0.5208
 5313TIP3   OH237429   2.082   5.717   0.930  0.0913  0.8263  0.3755
 5313TIP3    H137430   2.062   5.783   0.996 -0.9158  0.7690  0.1481
 5313TIP3    H237431   2.093   5.767   0.849  0.1962  0.7905  0.3670
 5314TIP3   OH237432   6.150   4.481   0.756 -0.8322  0.8110  0.2006
 5314TIP3    H137433   6.069   4.430   0.747 -0.7242  0.9327 -1.9894
 5314TIP3    H237434   6.181   4.461   0.844 -3.1965  0.7052  1.0785
 5315TIP3   OH237435   6.454   6.265   4.324  0.1285  0.2430 -0.4397
 5315TIP3    H137436   6.502   6.273   4.242  0.6701 -1.2959 -0.3046
 5315TIP3    H237437   6.393   6.339   4.323 -0.4706 -0.1999 -2.6187
 5316TIP3   OH237438   1.565   0.479   2.448  0.2811 -0.1231 -0.3519
 5316TIP3    H137439   1.617   0.488   2.369  1.1181  1.7895  0.3654
 5316TIP3    H237440   1.625   0.440   2.512  0.1746  0.0888 -0.1221
 5317TIP3   OH237441   5.436   6.178  14.687 -0.0723  0.0897 -0.1992
 5317TIP3    H137442   5.481   6.206  14.767  0.2144  0.1127 -0.3655
 5317TIP3    H237443   5.364   6.240  14.677 -0.0609  0.1344 -0.0012
 5318TIP3   OH237444   4.280   3.140   1.830  0.0246  0.4587  0.1286
 5318TIP3    H137445   4.361   3.110   1.789  0.1869 -0.3959  1.0379
 5318TIP3    H237446   4.235   3.188   1.761  1.1567  0.6809 -0.4881
 5319TIP3   OH237447   2.263   6.573  13.042 -0.5421 -0.6598 -0.2908
 5319TIP3    H137448   2.192   6.557  13.105 -0.4542 -1.8663 -0.4815
 5319TIP3    H237449   2.227   6.542  12.959 -0.1519 -0.3484 -0.5733
 5320TIP3   OH237450   2.315   3.850  14.077  0.5418 -0.0588 -0.3335
 5320TIP3    H137451   2.255   3.924  14.069  1.0001  0.1248 -3.0208
 5320TIP3    H237452   2.402   3.889  14.068  0.8503 -0.7926 -0.5916
 5321TIP3   OH237453   1.497   4.853  16.518  0.5560  0.1566  0.2294
 5321TIP3    H137454   1.556   4.788  16.557 -1.4206 -1.1924  1.1393
 5321TIP3    H237455   1.506   4.840  16.424 -1.6398 -3.3986  0.3318
 5322TIP3   OH237456   3.225   5.807   5.534  0.0220  0.7451 -0.1853
 5322TIP3    H137457   3.281   5.866   5.484  0.1134  0.0998 -0.8700
 5322TIP3    H237458   3.171   5.764   5.467 -0.7376  0.7877  0.3943
 5323TIP3   OH237459   6.178   2.960   5.407  0.0338  0.0792  0.3830
 5323TIP3    H137460   6.182   3.024   5.335 -1.4292  0.8574  0.9504
 5323TIP3    H237461   6.189   3.013   5.486 -1.1806 -0.3627  0.8602
 5324TIP3   OH237462   0.401   0.532  16.588  0.1698 -0.3797 -0.0058
 5324TIP3    H137463   0.346   0.570  16.520  0.5916  0.7052  0.2278
 5324TIP3    H237464   0.340   0.494  16.651 -0.2070 -2.7125 -1.6622
 5325TIP3   OH237465   0.148   3.960  12.101  0.5752 -0.0080 -0.8185
 5325TIP3    H137466   0.197   4.008  12.167  1.0784 -1.2547 -0.2434
 5325TIP3    H237467   0.063   3.942  12.141  1.5871 -2.5951  0.4361
 5326TIP3   OH237468   4.165   2.230  13.426  0.2633 -0.1648 -0.5183
 5326TIP3    H137469   4.183   2.163  13.493 -0.9686 -0.0052 -0.0109
 5326TIP3    H237470   4.190   2.188  13.344  1.4794 -0.4880 -0.0160
 5327TIP3   OH237471   3.718   2.346  15.498 -0.0944  0.4045  0.4957
 5327TIP3    H137472   3.628   2.314  15.499  0.0210  0.0292  1.8606
 5327TIP3    H237473   3.753   2.318  15.414 -0.4959 -1.6878  0.9693
 5328TIP3   OH237474   6.245   5.583   6.061 -0.2278  0.4650  0.5138
 5328TIP3    H137475   6.197   5.584   5.978  0.6851 -0.7755 -0.0647
 5328TIP3    H237476   6.215   5.504   6.105 -0.8026  1.1909  1.4415
 5329TIP3   OH237477   1.433   0.317   5.577 -0.0183 -0.2104 -0.6787
 5329TIP3    H137478   1.360   0.263   5.609 -1.7018  1.2107 -1.9250
 5329TIP3    H237479   1.454   0.280   5.491  0.5086 -0.3966 -0.4729
 5330TIP3   OH237480   5.089   4.429   2.570  0.3987 -0.1094  0.1775
 5330TIP3    H137481   5.133   4.345   2.559 -0.3105 -0.2500 -2.0919
 5330TIP3    H237482   4.996   4.409   2.570  0.2422  0.5441  1.1323
 5331TIP3   OH237483   6.119   1.872   3.065 -0.3928 -0.2104 -0.3733
 5331TIP3    H137484   6.092   1.799   3.010  0.0255 -1.3311  0.8663
 5331TIP3    H237485   6.198   1.842   3.110 -0.3290  0.9139  0.3322
 5332TIP3   OH237486   3.151   0.065  12.592  0.1292  0.0392  0.2023
 5332TIP3    H137487   3.231   0.057  12.540  0.0880 -0.9824  0.2765
 5332TIP3    H237488   3.105   0.141  12.555 -0.5804 -1.4485 -2.2032
 5333TIP3   OH237489   0.362   4.986  16.827 -0.0725  0.0259 -0.2619
 5333TIP3    H137490   0.383   4.962  16.917  0.9698 -1.6473 -0.8992
 5333TIP3    H237491   0.277   4.945  16.811 -0.3721  0.5265  0.0191
 5334TIP3   OH237492   0.849   5.338  14.426 -0.2641 -0.0609  0.1204
 5334TIP3    H137493   0.803   5.258  14.452 -1.6374  1.0464  1.2406
 5334TIP3    H237494   0.879   5.375  14.509 -0.0207  0.8258 -0.3568
 5335TIP3   OH237495   6.065   1.038  15.561 -0.4933  0.1582  0.1886
 5335TIP3    H137496   5.985   1.047  15.614 -0.9280 -0.7216 -0.2879
 5335TIP3    H237497   6.045   1.081  15.479  0.2049  1.5768  0.7323
 5336TIP3   OH237498   2.953   1.838   1.458  0.1043 -0.2214  0.1190
 5336TIP3    H137499   2.880   1.776   1.456  1.1670 -1.6035  1.8662
 5336TIP3    H237500   3.023   1.792   1.503  2.0678  1.1001 -1.3914
 5337TIP3   OH237501   3.904   5.011  12.305  0.5367 -0.1939  0.3176
 5337TIP3    H137502   3.970   5.074  12.276 -0.6813  0.2667 -1.6515
 5337TIP3    H237503   3.944   4.968  12.381  2.1532  1.6242  0.5845
 5338TIP3   OH237504   1.072   1.084  14.547  0.0277 -0.1514 -1.0922
 5338TIP3    H137505   1.045   1.160  14.494  2.3520  1.1120 -0.5764
 5338TIP3    H237506   1.143   1.117  14.601 -0.2148 -2.2338  0.6075
 5339TIP3   OH237507   6.193   4.432   0.445  0.0864  0.6402 -0.0864
 5339TIP3    H137508   6.164   4.461   0.358  0.6234  1.1308 -0.1067
 5339TIP3    H237509   6.125   4.370   0.473  0.1152  0.1497 -1.0317
 5340TIP3   OH237510   5.100   6.371   1.354  0.1603 -0.1403  0.8741
 5340TIP3    H137511   5.104   6.431   1.428  1.4582  1.0758 -0.1222
 5340TIP3    H237512   5.051   6.420   1.287  2.6164  0.5601 -0.5296
 5341TIP3   OH237513   1.678   4.221  14.857  0.5052  0.2867 -0.4419
 5341TIP3    H137514   1.656   4.142  14.906  0.3668  0.4757 -0.1952
 5341TIP3    H237515   1.744   4.193  14.794  1.1035  0.1618  0.2397
 5342TIP3   OH237516   6.726   1.448   4.884 -0.3299 -0.2601 -0.6177
 5342TIP3    H137517   6.644   1.400   4.896 -0.7698  1.1147  2.7851
 5342TIP3    H237518   6.701   1.540   4.888  1.3497  0.1828  0.4569
 5343TIP3   OH237519   6.712   0.636  11.290 -0.1325 -0.1298  0.2167
 5343TIP3    H137520   6.793   0.645  11.340 -0.3253  1.6427  0.2940
 5343TIP3    H237521   6.656   0.582  11.344  0.3692  0.1025  0.9833
 5344TIP3   OH237522   4.822   5.329  14.032 -0.0483  0.5006  0.2338
 5344TIP3    H137523   4.843   5.344  13.940  2.8690 -1.7634  0.3766
 5344TIP3    H237524   4.760   5.256  14.031 -0.1560  0.5916  0.0853
 5345TIP3   OH237525   2.216   2.382  17.089 -0.7452  0.8403 -0.5280
 5345TIP3    H137526   2.176   2.435  17.158 -1.0965 -3.4486  2.9964
 5345TIP3    H237527   2.302   2.358  17.124 -0.5703 -0.8001 -1.9582
 5346TIP3   OH237528   2.271   0.164  17.067 -0.0810  0.0068  0.9394
 5346TIP3    H137529   2.268   0.259  17.079  0.0768  0.0759  0.4380
 5346TIP3    H237530   2.183   0.135  17.089  0.0041  0.2076  1.5820
 5347TIP3   OH237531   0.113   5.743   4.309 -0.0421  0.0234  0.5239
 5347TIP3    H137532   0.088   5.656   4.278  0.2385 -0.4334  1.5367
 5347TIP3    H237533   0.112   5.797   4.231 -1.5896 -0.5647  0.0837
 5348TIP3   OH237534   0.369   6.116  11.008 -0.3162  0.4219 -0.0297
 5348TIP3    H137535   0.281   6.153  11.016  0.5823  2.4075  1.5869
 5348TIP3    H237536   0.385   6.112  10.914 -2.0033  0.2793 -0.3457
 5349TIP3   OH237537   1.041   0.944  14.247 -0.0464 -0.2619  0.4480
 5349TIP3    H137538   0.991   1.003  14.303  1.9979  0.3122  1.7701
 5349TIP3    H237539   1.034   0.982  14.159 -1.9653 -0.2779  0.5522
 5350TIP3   OH237540   4.741   5.057  17.030  0.3472  0.5919 -0.4320
 5350TIP3    H137541   4.745   5.063  17.125 -0.0372 -0.5962 -0.3376
 5350TIP3    H237542   4.833   5.059  17.002  0.4554  1.1290 -0.0650
 5351TIP3   OH237543   4.668   4.240   6.137  0.2260 -0.7080  0.4524
 5351TIP3    H137544   4.726   4.183   6.086  2.2936  0.7255  1.0637
 5351TIP3    H237545   4.690   4.328   6.109 -1.8766 -0.0902  0.5677
 5352TIP3   OH237546   5.824   6.244   3.131 -0.0704 -0.7258 -0.1072
 5352TIP3    H137547   5.794   6.306   3.064 -0.6073  0.7651  1.4538
 5352TIP3    H237548   5.917   6.233   3.114 -0.1343 -0.1108 -0.8909
 5353TIP3   OH237549   1.528   1.690  14.463 -0.0801 -0.1389 -0.6373
 5353TIP3    H137550   1.476   1.758  14.421  3.1344  4.6731  2.2782
 5353TIP3    H237551   1.474   1.660  14.536 -0.9168  0.5386 -0.9607
 5354TIP3   OH237552   3.627   2.481   1.673  0.0234  0.0877 -0.3244
 5354TIP3    H137553   3.631   2.558   1.616  2.5344  0.1121 -0.2280
 5354TIP3    H237554   3.664   2.410   1.620 -0.8256 -0.7089  0.1185
 5355TIP3   OH237555   1.974   2.367   3.196  0.4994 -0.0808 -0.5687
 5355TIP3    H137556   1.894   2.315   3.200  1.5238 -1.6296  2.0752
 5355TIP3    H237557   2.009   2.351   3.108 -1.0668 -0.9644 -1.0602
 5356TIP3   OH237558   4.166   5.245  12.563 -0.0770 -0.3192  0.4367
 5356TIP3    H137559   4.107   5.310  12.525  1.0354  0.2918 -0.2987
 5356TIP3    H237560   4.220   5.296  12.624  0.3461 -0.6828  0.3659
 5357TIP3   OH237561   6.741   1.967  16.390  0.1668 -0.0218  0.3852
 5357TIP3    H137562   6.738   1.995  16.298  0.0095  1.0408  0.6954
 5357TIP3    H237563   6.697   1.882  16.391  0.8536 -0.3997 -0.6407
 5358TIP3   OH237564   0.249   6.031   4.805 -0.0985  0.5165  0.2456
 5358TIP3    H137565   0.291   5.967   4.747  0.0773  0.0345  0.8917
 5358TIP3    H237566   0.274   6.004   4.893 -0.9458  0.8195  0.5911
 5359TIP3   OH237567   6.826   6.344   1.190  0.2600 -0.1917  0.1242
 5359TIP3    H137568   6.819   6.313   1.100  0.6432  0.0578  0.0070
 5359TIP3    H237569   6.748   6.399   1.202  0.4420  0.1469 -0.2045
 5360TIP3   OH237570   2.428   1.476   5.772  0.0992  0.5904 -0.4502
 5360TIP3    H137571   2.374   1.428   5.709  0.4886 -0.1183 -0.2575
 5360TIP3    H237572   2.480   1.408   5.815  0.4118  1.1555  0.0749
 5361TIP3   OH237573   3.315   5.876   4.206  0.2809  0.1635 -0.3344
 5361TIP3    H137574   3.286   5.967   4.205  1.0667  0.4585  0.7668
 5361TIP3    H237575   3.391   5.876   4.265  0.5373 -1.1314 -0.6274
 5362TIP3   OH237576   0.339   4.831   1.595 -0.2212 -0.3709  0.2234
 5362TIP3    H137577   0.344   4.736   1.602  0.6711 -0.3717 -0.2827
 5362TIP3    H237578   0.349   4.849   1.501 -0.4791  0.2163  0.3031
 5363TIP3   OH237579   6.378   2.925   1.061 -0.6546  0.4621 -0.3609
 5363TIP3    H137580   6.305   2.886   1.108 -2.2921  2.5475 -0.9799
 5363TIP3    H237581   6.448   2.931   1.125 -1.1750 -1.1221  0.3986
 5364TIP3   OH237582   5.853   5.205  12.371  0.3597  0.0636 -0.7476
 5364TIP3    H137583   5.914   5.156  12.425  1.4560  1.1883 -0.9227
 5364TIP3    H237584   5.889   5.200  12.283 -1.2195 -1.4492 -1.3432
 5365TIP3   OH237585   0.540   3.928   3.387 -0.6332  0.9612  0.3090
 5365TIP3    H137586   0.495   3.904   3.305 -0.8294 -0.9113  0.9247
 5365TIP3    H237587   0.628   3.952   3.360 -0.5242 -0.1913 -0.4090
 5366TIP3   OH237588   3.440   4.218   4.745  0.2707 -0.4657 -0.0887
 5366TIP3    H137589   3.366   4.271   4.713 -0.3552 -0.5085  1.2253
 5366TIP3    H237590   3.426   4.132   4.706 -1.3207 -0.9416  1.4277
 5367TIP3   OH237591   2.552   2.866  11.286 -0.0727 -0.2088 -0.7249
 5367TIP3    H137592   2.483   2.871  11.352 -0.5382 -1.4845 -1.0635
 5367TIP3    H237593   2.587   2.954  11.280  0.3259 -0.1600  1.5586
 5368TIP3   OH237594   4.793   0.018   0.419  0.0648 -0.6359  0.0841
 5368TIP3    H137595   4.872  -0.033   0.401  0.0008 -0.6768 -0.0817
 5368TIP3    H237596   4.825   0.106   0.439  0.1802 -0.7606  0.4537
 5369TIP3   OH237597   3.550   3.495  10.710 -0.2616  0.0237 -0.4908
 5369TIP3    H137598   3.634   3.536  10.692 -0.0193 -0.4505 -0.4547
 5369TIP3    H237599   3.486   3.552  10.668 -0.0449  1.1412  0.6393
 5370TIP3   OH237600   5.473   5.370  13.667 -0.1802 -0.4778  0.3497
 5370TIP3    H137601   5.406   5.334  13.610 -0.2883 -2.2291  1.5114
 5370TIP3    H237602   5.545   5.393  13.608 -1.0988 -0.2137 -0.7070
 5371TIP3   OH237603   0.231   6.128  13.908 -0.0218 -0.6834  0.0911
 5371TIP3    H137604   0.259   6.127  13.816 -0.4889 -2.5908 -0.0717
 5371TIP3    H237605   0.146   6.171  13.906  0.3013 -0.0391 -0.2462
 5372TIP3   OH237606   2.045   6.735   4.104  0.1270  0.1449  0.1998
 5372TIP3    H137607   2.069   6.797   4.173  2.9967 -1.0038  0.3949
 5372TIP3    H237608   2.051   6.649   4.144 -0.2438 -0.4461 -0.9519
 5373TIP3   OH237609   5.560   1.093  14.809  0.0711 -0.7432  0.2213
 5373TIP3    H137610   5.629   1.029  14.824 -0.3235 -1.3521 -0.4266
 5373TIP3    H237611   5.568   1.114  14.716 -0.6313 -0.8580  0.1284
 5374TIP3   OH237612   1.151   6.426  16.691 -0.0701  0.2566  0.1501
 5374TIP3    H137613   1.229   6.399  16.739 -0.6575  1.5314  1.9456
 5374TIP3    H237614   1.178   6.503  16.641  0.5883 -1.1758 -1.8157
 5375TIP3   OH237615   0.668   1.396   1.948 -0.3702  0.0724  0.1419
 5375TIP3    H137616   0.672   1.450   2.027  0.6181 -0.8040  0.7092
 5375TIP3    H237617   0.710   1.314   1.973  2.1569  0.5932 -1.9648
 5376TIP3   OH237618   6.639   1.106   4.285  0.2291  0.1582  0.8293
 5376TIP3    H137619   6.671   1.031   4.235  1.8239 -0.5209  2.7374
 5376TIP3    H237620   6.662   1.086   4.375 -1.7369  1.7517  1.7587
 5377TIP3   OH237621   1.810   6.185   6.361  0.0823  0.4836  0.2482
 5377TIP3    H137622   1.791   6.239   6.437  0.3196  0.7342  0.1311
 5377TIP3    H237623   1.724   6.164   6.324  0.0065  1.2540 -0.0331
 5378TIP3   OH237624   1.399   2.981   0.449  0.5227 -0.3032  0.6662
 5378TIP3    H137625   1.472   2.941   0.495  1.0592 -0.2630 -0.1285
 5378TIP3    H237626   1.435   3.061   0.411 -0.2319  0.3241  1.2330
 5379TIP3   OH237627   6.719   0.732   1.409  0.6177  0.7260 -0.6519
 5379TIP3    H137628   6.715   0.823   1.438 -0.4649 -0.1165  2.2319
 5379TIP3    H237629   6.627   0.705   1.402  0.9183 -0.3205 -0.7369
 5380TIP3   OH237630   2.118   3.408  11.350 -0.6897  0.2741  0.3763
 5380TIP3    H137631   2.049   3.343  11.359  0.3278 -0.9344 -0.2916
 5380TIP3    H237632   2.102   3.450  11.266  0.1858 -1.0224 -0.4735
 5381TIP3   OH237633   2.192   0.530  11.951 -0.0378  0.1849  0.7897
 5381TIP3    H137634   2.162   0.440  11.965 -1.2868 -0.1847 -3.2153
 5381TIP3    H237635   2.116   0.576  11.915  0.9651  2.5463  1.4784
 5382TIP3   OH237636   5.969   4.649  13.427  0.6540  0.1266  0.1965
 5382TIP3    H137637   6.040   4.701  13.465  1.8525  0.3182 -2.1334
 5382TIP3    H237638   6.007   4.609  13.349 -1.9633  0.8839 -1.6222
 5383TIP3   OH237639   5.425   1.686   0.746  0.0503  0.4156 -0.4708
 5383TIP3    H137640   5.406   1.761   0.690 -1.5422  2.0370  2.0561
 5383TIP3    H237641   5.344   1.634   0.743  0.4656 -0.2352 -0.7080
 5384TIP3   OH237642   2.517   3.700   5.026 -0.4562 -0.3334 -0.1500
 5384TIP3    H137643   2.432   3.742   5.016 -0.5039 -0.1667  0.8393
 5384TIP3    H237644   2.554   3.699   4.938 -0.5238  1.6213 -0.2371
 5385TIP3   OH237645   5.500   4.708  14.515 -0.1939  0.7477  0.2572
 5385TIP3    H137646   5.493   4.614  14.496 -1.2292  0.3934  2.1439
 5385TIP3    H237647   5.565   4.713  14.585 -1.7858  1.1545  1.7644
 5386TIP3   OH237648   4.851   6.307  13.281 -0.3254 -0.1938 -0.4250
 5386TIP3    H137649   4.943   6.326  13.263  0.0657 -0.7785  0.8565
 5386TIP3    H237650   4.832   6.229  13.229 -0.1676  0.0429 -0.8461
 5387TIP3   OH237651   4.539   4.773   4.183 -0.4428  0.4667  0.1373
 5387TIP3    H137652   4.502   4.791   4.270 -0.2842 -1.1116  0.5678
 5387TIP3    H237653   4.634   4.772   4.198 -0.3418  1.4462 -0.3375
 5388TIP3   OH237654   0.117   4.862  13.132 -0.1069 -0.0014  0.1837
 5388TIP3    H137655   0.022   4.859  13.141 -0.0910 -2.3489  0.2435
 5388TIP3    H237656   0.132   4.882  13.040 -0.6956 -0.8559 -0.1075
 5389TIP3   OH237657   1.614   3.581  12.630  0.1077  0.9293 -0.2495
 5389TIP3    H137658   1.592   3.645  12.563  2.3443  1.4402 -0.5965
 5389TIP3    H237659   1.671   3.629  12.691  1.0571 -0.4468  0.0064
 5390TIP3   OH237660   6.760   5.611  16.604  0.2591 -0.0069  0.2356
 5390TIP3    H137661   6.730   5.657  16.682  0.6319 -0.9668  0.9644
 5390TIP3    H237662   6.685   5.559  16.576  0.7927 -1.3508  1.2530
 5391TIP3   OH237663   1.904   0.691   4.456 -0.0272 -0.2557  0.1390
 5391TIP3    H137664   1.835   0.711   4.519 -0.8542 -1.1584 -0.4544
 5391TIP3    H237665   1.959   0.626   4.500 -0.5533 -0.8194 -0.0281
 5392TIP3   OH237666   5.462   4.246   1.737  0.0069  0.1069 -0.2909
 5392TIP3    H137667   5.534   4.191   1.706 -0.3584  0.0486 -1.0404
 5392TIP3    H237668   5.470   4.327   1.687 -1.9346 -0.8316 -2.2788
 5393TIP3   OH237669   0.048   3.115   0.824 -0.0685  0.0572  0.1483
 5393TIP3    H137670   0.064   3.132   0.731  0.6109 -1.2508  0.0029
 5393TIP3    H237671  -0.034   3.160   0.843  0.0012  0.6941 -0.9765
 5394TIP3   OH237672   5.319   6.715  15.598  0.2375 -0.4067 -0.7067
 5394TIP3    H137673   5.248   6.726  15.661 -0.5622  0.1889 -1.6866
 5394TIP3    H237674   5.307   6.626  15.564 -0.4243 -0.0827 -1.3269
 5395TIP3   OH237675   5.544   3.774  13.382 -0.4046  0.2805 -0.0262
 5395TIP3    H137676   5.454   3.749  13.361 -0.3006 -0.2440  0.1379
 5395TIP3    H237677   5.591   3.690  13.390 -0.0312  0.5300  0.4500
 5396TIP3   OH237678   4.598   2.378  16.131  0.4037  0.2049  0.3041
 5396TIP3    H137679   4.505   2.378  16.107  0.1343  0.3318  1.3087
 5396TIP3    H237680   4.628   2.465  16.108  0.3926  0.0250 -0.4286
 5397TIP3   OH237681   3.616   2.150  15.721 -0.5928 -0.6048 -0.4180
 5397TIP3    H137682   3.697   2.146  15.671  0.0854 -2.3218  0.7360
 5397TIP3    H237683   3.617   2.237  15.762 -0.0219 -0.0952 -1.4612
 5398TIP3   OH237684   4.098   2.338   2.569  0.1066  0.2970 -0.3422
 5398TIP3    H137685   4.154   2.415   2.556 -1.2382  1.8591  2.3650
 5398TIP3    H237686   4.014   2.362   2.530  0.0437 -0.3346 -0.6143
 5399TIP3   OH237687   6.809   4.077   1.995 -0.5009 -0.5695  0.0026
 5399TIP3    H137688   6.825   4.029   2.076  1.0522 -0.1813 -0.0492
 5399TIP3    H237689   6.853   4.161   2.007  0.6211 -0.8636 -1.5819
 5400TIP3   OH237690   2.648   4.787   3.966 -0.5029  0.2823 -1.0652
 5400TIP3    H137691   2.637   4.854   4.033 -0.2806 -0.9364  0.2284
 5400TIP3    H237692   2.564   4.741   3.964  0.1699 -1.0545 -0.0580
 5401TIP3   OH237693   3.967   6.374  16.266 -0.0530 -0.5072 -0.1630
 5401TIP3    H137694   3.994   6.355  16.177 -0.0516 -1.3862  0.0165
 5401TIP3    H237695   3.882   6.417  16.257 -0.5956 -1.6410 -0.5384
 5402TIP3   OH237696   3.822   4.093  12.260  0.1547 -0.0758 -0.2414
 5402TIP3    H137697   3.746   4.149  12.247  0.7852  0.9619  0.4397
 5402TIP3    H237698   3.897   4.151  12.250  0.8149 -0.6927  0.9087
 5403TIP3   OH237699   1.950   5.177  15.512 -0.0074 -0.5384  0.1007
 5403TIP3    H137700   1.856   5.192  15.524  0.2904  1.5935  0.2370
 5403TIP3    H237701   1.961   5.082  15.519 -2.1701 -0.8460 -0.1442
 5404TIP3   OH237702   5.964   4.193  14.898  0.2607  0.0523 -0.5137
 5404TIP3    H137703   5.926   4.126  14.955  0.4695  0.2468 -0.1453
 5404TIP3    H237704   5.914   4.272  14.916  0.4945  0.1777 -0.4126
 5405TIP3   OH237705   5.165   5.460  16.120 -0.6176 -0.1704  0.2510
 5405TIP3    H137706   5.129   5.494  16.202  1.3410  1.1297  0.6653
 5405TIP3    H237707   5.248   5.508  16.109 -0.6956 -0.4696 -2.3701
 5406TIP3   OH237708   2.717   2.128   0.368  0.0609 -0.1027 -0.0401
 5406TIP3    H137709   2.744   2.178   0.291  0.1599  0.5438  0.4060
 5406TIP3    H237710   2.699   2.040   0.335 -0.1902  0.2499 -0.8497
 5407TIP3   OH237711   3.051   0.766  14.719 -0.0495 -0.0822 -0.2962
 5407TIP3    H137712   2.992   0.836  14.690  0.1383  0.2867  0.2039
 5407TIP3    H237713   3.005   0.685  14.694 -1.1324  0.1811  0.7635
 5408TIP3   OH237714   1.065   0.262   3.105 -0.4101  0.0946 -0.0963
 5408TIP3    H137715   1.076   0.248   3.012 -0.8574 -1.9367  0.1173
 5408TIP3    H237716   1.006   0.338   3.111 -0.7803 -0.0722 -1.4518
 5409TIP3   OH237717   6.818   5.561   2.965 -0.0320 -0.1319  0.4913
 5409TIP3    H137718   6.738   5.515   2.989 -0.3755  0.0039 -0.3618
 5409TIP3    H237719   6.799   5.653   2.986 -0.6846  0.1277 -1.1192
 5410TIP3   OH237720   2.691   2.023   3.725 -0.2803  0.1701 -0.0279
 5410TIP3    H137721   2.783   2.049   3.739  0.4901 -2.2719  0.0006
 5410TIP3    H237722   2.657   2.086   3.662  2.2378 -0.3195 -2.0534
 5411TIP3   OH237723   1.197   3.331   5.828 -0.0703 -0.0371 -0.4550
 5411TIP3    H137724   1.244   3.399   5.876 -1.5479  0.3351  0.5551
 5411TIP3    H237725   1.233   3.249   5.860 -0.8658  0.2132  1.1756
 5412TIP3   OH237726   1.719   2.534  16.867  0.3144 -0.1012 -0.5619
 5412TIP3    H137727   1.635   2.530  16.821  0.9977 -0.5412 -1.8159
 5412TIP3    H237728   1.783   2.549  16.798  1.3271 -0.3219  0.3166
 5413TIP3   OH237729   3.137   5.463   5.166  0.2791 -0.3588 -0.1094
 5413TIP3    H137730   3.183   5.480   5.248 -0.4730 -1.9521  0.6983
 5413TIP3    H237731   3.190   5.398   5.122 -0.5561 -1.3437  0.2914
 5414TIP3   OH237732   4.985   0.917  15.230  0.7323  0.2916 -0.0220
 5414TIP3    H137733   5.048   0.946  15.296  0.6867 -2.1198  1.1900
 5414TIP3    H237734   4.904   0.961  15.253  1.2784  1.2380  0.1308
 5415TIP3   OH237735   2.094   5.337  15.715 -0.3805 -0.0799 -0.2355
 5415TIP3    H137736   2.081   5.250  15.678  0.2642 -0.6151  0.7588
 5415TIP3    H237737   2.175   5.330  15.765  0.8817  1.6851 -1.8706
 5416TIP3   OH237738   0.191   6.821  16.959  0.2692 -0.4503  0.1746
 5416TIP3    H137739   0.183   6.741  17.011  1.4277 -0.3895  0.4837
 5416TIP3    H237740   0.210   6.790  16.871 -1.0825 -0.5375 -0.1139
 5417TIP3   OH237741   0.994   0.968   1.945  0.2041  0.3524 -0.0226
 5417TIP3    H137742   1.028   0.979   2.034  1.3996  3.3491 -0.6957
 5417TIP3    H237743   1.044   0.895   1.908 -0.9467 -1.5343  1.9594
 5418TIP3   OH237744   0.766   0.067  14.392 -0.2479  0.0900 -0.7265
 5418TIP3    H137745   0.724   0.074  14.306  0.4442 -1.8327 -1.2677
 5418TIP3    H237746   0.840   0.008  14.377 -0.1254 -0.2879  1.2072
 5419TIP3   OH237747   5.284   1.341   5.808 -0.5346  0.3385  0.1235
 5419TIP3    H137748   5.302   1.434   5.816 -0.3355  0.4685 -1.4836
 5419TIP3    H237749   5.214   1.324   5.870  0.6343  1.1738  1.7382
 5420TIP3   OH237750   4.420   6.608  11.003  0.4517  0.1190  0.4680
 5420TIP3    H137751   4.387   6.675  10.943  0.1455  1.3971  2.0068
 5420TIP3    H237752   4.496   6.648  11.045  1.1522 -1.0558  0.3659
 5421TIP3   OH237753   2.925   5.158  12.051  0.5578 -0.2239 -0.0059
 5421TIP3    H137754   2.937   5.177  11.958  1.5308  2.6098  0.6055
 5421TIP3    H237755   3.000   5.104  12.075  0.7600 -0.2440 -0.6795
 5422TIP3   OH237756   1.479   3.991   5.258  0.2511  0.1652  0.1713
 5422TIP3    H137757   1.537   3.924   5.222 -0.5220 -0.2178 -0.3887
 5422TIP3    H237758   1.485   4.064   5.196 -0.5045 -0.2058 -0.3584
 5423TIP3   OH237759   5.299   3.752  12.118  0.5872  0.0331 -0.1796
 5423TIP3    H137760   5.347   3.834  12.130 -0.9177  0.8701  0.5497
 5423TIP3    H237761   5.218   3.779  12.074  0.4711 -1.2192 -0.7688
 5424TIP3   OH237762   0.778   1.365  16.360 -0.1746 -0.3374 -0.3821
 5424TIP3    H137763   0.816   1.439  16.408 -0.4733 -0.2723 -0.2445
 5424TIP3    H237764   0.733   1.314  16.427  1.1992 -1.4029 -0.2381
 5425TIP3   OH237765   3.784   3.738   1.930  0.5809  0.7693  0.1030
 5425TIP3    H137766   3.770   3.647   1.907 -0.3767  1.0567 -0.5167
 5425TIP3    H237767   3.879   3.746   1.942  0.4970 -0.7212  2.0550
 5426TIP3   OH237768   3.947   1.043  13.921  0.2755 -0.6537 -0.1237
 5426TIP3    H137769   4.006   1.110  13.955  1.2336 -1.5009 -0.0905
 5426TIP3    H237770   4.000   0.993  13.860 -0.0213 -2.2145  0.8357
 5427TIP3   OH237771   0.347   1.075   3.163 -0.1758  0.1998  0.0727
 5427TIP3    H137772   0.302   0.996   3.193  1.7959 -0.6718  0.9429
 5427TIP3    H237773   0.394   1.047   3.085 -1.7596  1.3187 -1.3377
 5428TIP3   OH237774   6.610   0.929   3.086 -0.0459  0.6075 -0.0900
 5428TIP3    H137775   6.573   0.866   3.148  0.9159 -0.5311 -0.6161
 5428TIP3    H237776   6.701   0.938   3.113  0.2289  0.5440 -0.9623
 5429TIP3   OH237777   0.100   3.331   2.482  0.1698 -0.9127  1.1953
 5429TIP3    H137778   0.157   3.393   2.436 -1.0951  0.6678  1.6906
 5429TIP3    H237779   0.161   3.270   2.524  1.5114  0.5684  1.4886
 5430TIP3   OH237780   6.028   0.482  16.851 -0.1133 -0.0038 -0.2613
 5430TIP3    H137781   5.970   0.418  16.810 -1.0948 -0.2281  1.3896
 5430TIP3    H237782   6.011   0.473  16.945  0.2920  2.1318  0.0619
 5431TIP3   OH237783   5.861   6.069  13.515 -0.2764  0.3794 -0.1107
 5431TIP3    H137784   5.783   6.122  13.497  1.1814  2.3688 -0.9473
 5431TIP3    H237785   5.893   6.103  13.599  1.0989  1.4405 -1.0277
 5432TIP3   OH237786   5.933   0.790   2.648 -0.5257 -0.6182  0.5168
 5432TIP3    H137787   5.985   0.792   2.567  0.2872  0.3517  1.0401
 5432TIP3    H237788   5.902   0.700   2.654 -0.4674 -0.7431 -0.7978
 5433TIP3   OH237789   6.641   5.370  15.366 -0.2307 -0.2413 -0.7152
 5433TIP3    H137790   6.721   5.420  15.384 -0.6614  0.7602 -1.5066
 5433TIP3    H237791   6.640   5.359  15.271 -1.5311  0.6484 -0.8357
 5434TIP3   OH237792   1.027   5.901  15.310 -0.4111  0.5002 -0.4569
 5434TIP3    H137793   1.115   5.903  15.348 -1.4673  1.8343  2.1597
 5434TIP3    H237794   1.039   5.858  15.225  2.2309 -2.4039  1.1653
 5435TIP3   OH237795   5.973   6.321  12.396  0.4393  0.3200  0.3633
 5435TIP3    H137796   5.885   6.342  12.428  0.2202  0.9663 -0.6061
 5435TIP3    H237797   6.003   6.251  12.453  0.3469  1.8623  2.3993
 5436TIP3   OH237798   1.387   6.002   3.971 -0.0357 -0.3025 -0.1179
 5436TIP3    H137799   1.428   5.954   3.899  1.6448 -1.4864  1.5502
 5436TIP3    H237800   1.452   6.067   3.997  0.6131 -1.7398  2.1165
 5437TIP3   OH237801   6.593   0.152  16.707 -0.5804 -0.0182 -0.4578
 5437TIP3    H137802   6.589   0.072  16.653  1.4516  0.7954 -1.9533
 5437TIP3    H237803   6.636   0.124  16.788  0.7206 -0.3505 -1.2347
 5438TIP3   OH237804   0.056   5.066  11.216 -0.3618  0.2040  0.6162
 5438TIP3    H137805   0.020   5.115  11.141 -0.2763 -1.1664 -0.3493
 5438TIP3    H237806   0.040   5.123  11.291 -4.5301 -0.1930  0.2938
 5439TIP3   OH237807   1.354   0.300  15.551 -0.2390  0.0493 -0.2504
 5439TIP3    H137808   1.431   0.305  15.608 -1.1544  1.3712  0.9520
 5439TIP3    H237809   1.358   0.213  15.513 -0.1026 -1.3289  2.6522
 5440TIP3   OH237810   5.715   0.807  15.622 -0.0523  0.5343  0.1187
 5440TIP3    H137811   5.776   0.734  15.610  0.0542  0.6599 -0.1148
 5440TIP3    H237812   5.686   0.828  15.533 -0.3356  0.5609  0.2162
 5441TIP3   OH237813   0.175   1.953  14.832  0.6104 -0.3473  0.1518
 5441TIP3    H137814   0.084   1.925  14.835  0.3318  0.4042 -0.7489
 5441TIP3    H237815   0.224   1.881  14.871 -0.0359 -2.1350 -2.1248
 5442TIP3   OH237816   3.952   0.254   0.196 -0.3266 -0.1739  0.6713
 5442TIP3    H137817   3.935   0.301   0.277 -1.3033  2.1846 -0.8049
 5442TIP3    H237818   3.964   0.322   0.130  0.7389 -1.9974 -1.1406
 5443TIP3   OH237819   5.518   4.098   6.117 -0.6401 -0.0509 -0.3472
 5443TIP3    H137820   5.500   4.039   6.191  2.3104 -0.3235  0.2874
 5443TIP3    H237821   5.436   4.100   6.068 -2.1803 -1.2660  1.9569
 5444TIP3   OH237822   3.894   4.918   4.190 -0.1779 -0.0091  0.1882
 5444TIP3    H137823   3.899   4.838   4.242 -1.0435 -0.1664  0.0425
 5444TIP3    H237824   3.867   4.985   4.252  0.2730  0.1127  0.2523
 5445TIP3   OH237825   4.230   5.457  17.176 -0.6719 -0.4767 -0.3742
 5445TIP3    H137826   4.324   5.444  17.165 -0.3575  0.7365  0.6322
 5445TIP3    H237827   4.223   5.529  17.239 -2.2752 -0.5174 -0.4648
 5446TIP3   OH237828   6.237   0.430  16.158  0.2981  0.1185 -0.1495
 5446TIP3    H137829   6.167   0.421  16.094 -0.4101  0.4694  0.5662
 5446TIP3    H237830   6.279   0.343  16.159  0.1490  0.0256 -0.8709
 5447TIP3   OH237831   6.157   3.517   2.405  0.1916 -0.4276 -0.9440
 5447TIP3    H137832   6.172   3.470   2.323  4.8411 -0.1784 -0.5371
 5447TIP3    H237833   6.179   3.608   2.384 -0.3221 -0.0333  0.1590
 5448TIP3   OH237834   2.767   4.080  12.104 -0.1510 -0.1614  0.8755
 5448TIP3    H137835   2.791   4.075  12.012  0.0665 -0.4245  0.9439
 5448TIP3    H237836   2.672   4.085  12.104 -0.2154 -1.1656  0.6702
 5449TIP3   OH237837   6.347   2.828   1.337 -0.2532  0.1381  0.1085
 5449TIP3    H137838   6.377   2.739   1.322 -0.3371  0.1897 -0.3807
 5449TIP3    H237839   6.341   2.836   1.433  1.5832  0.2314  0.2423
 5450TIP3   OH237840   0.598   5.521  14.427  0.4749 -0.0032 -0.7276
 5450TIP3    H137841   0.689   5.534  14.399  0.7082  1.3197  0.5185
 5450TIP3    H237842   0.548   5.519  14.346  1.4224  0.9782 -1.3716
 5451TIP3   OH237843   0.253   5.687   5.508  0.4587 -0.1398  0.1037
 5451TIP3    H137844   0.191   5.742   5.460 -1.6729 -1.1568  1.5615
 5451TIP3    H237845   0.320   5.748   5.540  0.3046  0.9683 -1.5724
 5452TIP3   OH237846   5.546   3.339  11.900  0.5124 -0.9745 -0.0133
 5452TIP3    H137847   5.534   3.317  11.993 -1.6483  0.1872  0.0554
 5452TIP3    H237848   5.533   3.257  11.854  1.9523 -1.6411  0.6868
 5453TIP3   OH237849   4.601   4.742  15.498  0.2170 -0.5172 -0.3637
 5453TIP3    H137850   4.634   4.771  15.413  1.6661  0.6827  0.5561
 5453TIP3    H237851   4.506   4.739  15.486  0.3940 -0.5954 -2.0722
 5454TIP3   OH237852   5.676   5.762  12.916 -1.1081 -0.1472  0.6372
 5454TIP3    H137853   5.585   5.777  12.942 -1.4195 -1.8292  0.6316
 5454TIP3    H237854   5.670   5.716  12.832 -0.2274  0.2512  0.3354
 5455TIP3   OH237855   2.832   0.065  16.606  0.0973 -0.3840  0.6160
 5455TIP3    H137856   2.879   0.098  16.682 -1.0239  1.4483  0.5825
 5455TIP3    H237857   2.810  -0.025  16.628  0.8279 -0.2620  1.9454
 5456TIP3   OH237858   1.446   0.572   0.507  0.0238  0.2030 -1.1221
 5456TIP3    H137859   1.409   0.644   0.558  0.1115 -1.2716  1.1084
 5456TIP3    H237860   1.529   0.552   0.549  0.0473 -1.1592 -1.7668
 5457TIP3   OH237861   3.697   2.226   0.782 -0.3035  0.1305 -0.1850
 5457TIP3    H137862   3.614   2.247   0.825 -0.4874  0.0379 -0.4913
 5457TIP3    H237863   3.679   2.144   0.735  0.3892 -0.7149  0.9767
 5458TIP3   OH237864   0.570   6.725   3.421  0.0076 -0.0201 -0.1568
 5458TIP3    H137865   0.622   6.730   3.502 -0.7832 -1.1259  0.4429
 5458TIP3    H237866   0.621   6.668   3.364  0.2000  0.1481 -0.1542
 5459TIP3   OH237867   4.635   6.175  14.233  0.6469 -0.7616  0.5694
 5459TIP3    H137868   4.729   6.162  14.219  0.8978  0.7093  0.7011
 5459TIP3    H237869   4.621   6.267  14.211 -1.1217 -1.4062 -1.2555
 5460TIP3   OH237870   3.409   4.305  11.192 -0.4461  0.9303 -0.5819
 5460TIP3    H137871   3.442   4.380  11.142 -1.2384  0.9214 -1.1428
 5460TIP3    H237872   3.324   4.285  11.152  0.3802 -1.2017 -1.4166
 5461TIP3   OH237873   4.753   2.323   2.071  0.2875 -0.0284 -0.1797
 5461TIP3    H137874   4.699   2.249   2.045 -0.1424  1.1900 -3.0935
 5461TIP3    H237875   4.717   2.351   2.155 -0.8878 -1.7941 -0.0584
 5462TIP3   OH237876   0.070   2.233   2.237  0.1618 -0.5063 -0.5390
 5462TIP3    H137877   0.126   2.155   2.238 -1.2404 -1.5943  1.5380
 5462TIP3    H237878   0.022   2.227   2.155 -0.2468 -2.1454 -0.2274
 5463TIP3   OH237879   5.568   1.305  15.009 -0.3488 -0.3951  0.1200
 5463TIP3    H137880   5.482   1.296  15.052 -0.6319 -0.8956 -0.5352
 5463TIP3    H237881   5.556   1.264  14.924  0.9743 -1.9022  0.6048
 5464TIP3   OH237882   5.253   5.100   1.637 -0.2979 -0.3719  0.0885
 5464TIP3    H137883   5.319   5.032   1.654  0.2509  0.1991  0.2731
 5464TIP3    H237884   5.205   5.068   1.560  0.2165 -0.7809 -0.0673
 5465TIP3   OH237885   2.413   4.082  11.427  0.2126 -0.6801 -0.4917
 5465TIP3    H137886   2.496   4.110  11.389  0.7888  1.6884  2.1546
 5465TIP3    H237887   2.347   4.129  11.376  0.8738  1.4101  0.4727
 5466TIP3   OH237888   3.230   3.563  16.035  0.1553 -0.0580  0.3848
 5466TIP3    H137889   3.167   3.634  16.049  0.6305  0.3433  0.5232
 5466TIP3    H237890   3.222   3.541  15.942  1.9846  2.1379 -0.4010
 5467TIP3   OH237891   0.861   2.678   5.960 -0.3325  0.4406  0.3253
 5467TIP3    H137892   0.953   2.674   5.935  0.0326 -0.4984  1.6887
 5467TIP3    H237893   0.825   2.749   5.907  0.7420 -0.3437 -1.5416
 5468TIP3   OH237894   2.212   3.000   4.460 -0.2694 -0.2412  0.2053
 5468TIP3    H137895   2.169   3.085   4.465  1.2738  0.5763  0.2169
 5468TIP3    H237896   2.289   3.008   4.517  0.4386 -1.2956 -0.5535
 5469TIP3   OH237897   3.912   0.603   6.328  0.2351 -0.0207 -0.2315
 5469TIP3    H137898   3.996   0.594   6.372 -0.2520  1.4366  1.0521
 5469TIP3    H237899   3.854   0.641   6.393 -0.7526  1.4182 -1.8558
 5470TIP3   OH237900   6.465   1.061  12.569  0.3182 -0.4489  0.0470
 5470TIP3    H137901   6.444   1.097  12.484 -0.7536  0.0710  0.5174
 5470TIP3    H237902   6.393   1.088  12.626 -0.5177 -3.2183  0.4616
 5471TIP3   OH237903   2.619   2.191   5.950  0.2049 -0.0918  0.0619
 5471TIP3    H137904   2.712   2.168   5.949  0.1248 -0.5306  1.0900
 5471TIP3    H237905   2.575   2.112   5.919  0.2186  0.5341 -1.6787
 5472TIP3   OH237906   5.425   1.141  12.339 -0.2151  0.0148 -0.2478
 5472TIP3    H137907   5.352   1.203  12.337 -2.0022 -1.9983 -0.9967
 5472TIP3    H237908   5.464   1.153  12.426 -2.7238 -0.2389  1.0076
 5473TIP3   OH237909   0.918   4.612  12.436 -0.1276  0.3961  0.0034
 5473TIP3    H137910   1.001   4.567  12.420  0.1820  1.2796 -0.9269
 5473TIP3    H237911   0.857   4.542  12.458  0.9577 -0.2292  1.1530
 5474TIP3   OH237912   4.110   2.197  12.050 -0.1486 -0.1069  0.0985
 5474TIP3    H137913   4.037   2.260  12.045  0.4014  0.6023  0.7357
 5474TIP3    H237914   4.183   2.248  12.085  0.7699 -0.7160 -0.8631
 5475TIP3   OH237915   0.156   5.946   0.329  0.4755 -0.0283  0.3746
 5475TIP3    H137916   0.154   5.863   0.377  1.4200 -0.2944 -0.0186
 5475TIP3    H237917   0.236   5.989   0.360  1.7191 -0.6877 -1.7101
 5476TIP3   OH237918   3.718   2.721   2.693  0.1288  0.1618 -0.7044
 5476TIP3    H137919   3.698   2.634   2.658  0.8408 -0.6468  0.8401
 5476TIP3    H237920   3.721   2.777   2.615  0.0305 -1.2513 -1.7689
 5477TIP3   OH237921   4.029   0.527  13.622  0.3117 -0.4289  0.0472
 5477TIP3    H137922   3.989   0.492  13.543 -1.6858 -0.0411  0.7983
 5477TIP3    H237923   4.110   0.568  13.593 -0.9141  0.7162 -2.0230
 5478TIP3   OH237924   1.565   6.201   6.191 -0.1861  0.3111 -0.0528
 5478TIP3    H137925   1.546   6.219   6.099 -2.5617  2.0798  0.6639
 5478TIP3    H237926   1.503   6.133   6.216  2.4783 -2.4778 -0.3697
 5479TIP3   OH237927   2.613   1.145  15.595 -0.4313 -0.7034 -0.0587
 5479TIP3    H137928   2.675   1.125  15.525  0.2821 -1.2541  0.7008
 5479TIP3    H237929   2.592   1.060  15.632  1.1213 -0.2959  1.9650
 5480TIP3   OH237930   1.366   5.358  11.702 -0.1024 -0.9195  0.6579
 5480TIP3    H137931   1.372   5.440  11.751 -1.8024 -0.9129  0.9144
 5480TIP3    H237932   1.433   5.302  11.742  1.4297  0.4727  0.1425
 5481TIP3   OH237933   1.493   5.642   4.361  0.1342 -0.6727  0.9492
 5481TIP3    H137934   1.423   5.610   4.304 -0.3821  0.9439  0.6063
 5481TIP3    H237935   1.464   5.730   4.387  2.0221  0.0425  0.7922
 5482TIP3   OH237936   6.179   1.168   2.323  0.4269 -0.4385  0.2049
 5482TIP3    H137937   6.114   1.233   2.346 -0.4547 -1.6301  1.2316
 5482TIP3    H237938   6.212   1.136   2.407  1.2568 -0.9068 -0.2829
 5483TIP3   OH237939   1.252   4.764   5.963 -0.0757  0.3576 -0.7168
 5483TIP3    H137940   1.274   4.813   5.884 -2.7691  1.0061 -1.1720
 5483TIP3    H237941   1.227   4.831   6.026  1.8898 -0.1636  0.7084
 5484TIP3   OH237942   2.761   3.504   4.325 -1.5197 -0.5221 -0.2984
 5484TIP3    H137943   2.822   3.439   4.290 -0.2182  0.5224 -0.0566
 5484TIP3    H237944   2.769   3.496   4.420  0.4932  1.5697 -0.2178
 5485TIP3   OH237945   2.977   2.869  10.455  0.5756  0.1954  0.2284
 5485TIP3    H137946   2.925   2.925  10.513  0.0543  0.3923 -0.4118
 5485TIP3    H237947   2.988   2.787  10.503  0.0537  0.3143  0.5526
 5486TIP3   OH237948   5.262   5.918  14.365  0.3725 -0.1053 -0.0390
 5486TIP3    H137949   5.260   5.823  14.359 -0.1966 -0.1264  0.4366
 5486TIP3    H237950   5.341   5.938  14.415  0.1454 -0.3583  0.4241
 5487TIP3   OH237951   1.465   5.237   4.545 -0.3012  0.3010 -0.1751
 5487TIP3    H137952   1.410   5.232   4.467 -0.0490 -1.8450 -0.2756
 5487TIP3    H237953   1.521   5.313   4.530 -0.3070 -0.0084 -2.0716
 5488TIP3   OH237954   0.611   5.546   5.306  0.3326  0.0356  0.3972
 5488TIP3    H137955   0.638   5.460   5.337 -0.5928 -0.3876  0.0368
 5488TIP3    H237956   0.694   5.592   5.289  0.8476 -1.4281 -1.2331
 5489TIP3   OH237957   6.268   3.697   6.148 -0.5408 -0.2608  0.3997
 5489TIP3    H137958   6.209   3.718   6.076 -0.2967  0.2477  0.3441
 5489TIP3    H237959   6.221   3.728   6.226 -1.6217 -2.4411  0.6818
 5490TIP3   OH237960   0.869   1.831   1.962  0.0379 -0.0372  0.1884
 5490TIP3    H137961   0.955   1.872   1.949 -0.6802  1.1676 -1.0917
 5490TIP3    H237962   0.807   1.896   1.929 -1.2714 -1.4943 -0.3178
 5491TIP3   OH237963   4.136   5.456   1.187  0.2600  0.3721 -0.0183
 5491TIP3    H137964   4.145   5.375   1.237 -3.6438 -0.2465  0.0218
 5491TIP3    H237965   4.210   5.455   1.127  1.3867 -2.2673  1.2264
 5492TIP3   OH237966   4.512   1.955  13.252 -0.2283 -0.2436  0.3012
 5492TIP3    H137967   4.605   1.973  13.242  0.1464 -2.3239 -0.2314
 5492TIP3    H237968   4.498   1.956  13.347 -0.1140  1.9798  0.3460
 5493TIP3   OH237969   4.965   1.769   4.619  0.1154 -0.5731 -0.4286
 5493TIP3    H137970   5.029   1.759   4.548 -0.2524 -0.7288 -0.7413
 5493TIP3    H237971   5.000   1.716   4.690 -0.4588 -1.9598 -1.1455
 5494TIP3   OH237972   2.401   4.775   1.420 -0.1140  0.1374 -0.5059
 5494TIP3    H137973   2.352   4.703   1.380 -0.9571  1.1662 -1.3642
 5494TIP3    H237974   2.339   4.847   1.424 -0.4351 -0.0871  3.4819
 5495TIP3   OH237975   5.729   2.203   1.249  0.4643 -0.4630 -0.5457
 5495TIP3    H137976   5.797   2.263   1.279  0.3026 -0.9427  0.8533
 5495TIP3    H237977   5.776   2.121   1.232  0.0993 -1.2605  1.8743
 5496TIP3   OH237978   4.736   1.329  14.714  0.4052 -0.4883  0.2443
 5496TIP3    H137979   4.776   1.318  14.628  0.4350 -0.4722  0.2560
 5496TIP3    H237980   4.644   1.308  14.700  0.2932  0.0930  0.0795
 5497TIP3   OH237981   6.284   0.446  11.020  0.2013  0.0389  0.5083
 5497TIP3    H137982   6.271   0.519  10.959  0.6016  0.9077  1.4324
 5497TIP3    H237983   6.363   0.402  10.988 -1.0987 -1.1759 -1.1699
 5498TIP3   OH237984   1.239   4.883   5.103 -0.1276  0.2072  0.2967
 5498TIP3    H137985   1.151   4.919   5.094  0.0704  1.3627  2.2877
 5498TIP3    H237986   1.296   4.960   5.105  0.9499 -0.5206 -0.9062
 5499TIP3   OH237987   0.531   4.403   4.258  0.7549  0.4990 -0.1958
 5499TIP3    H137988   0.608   4.389   4.204  2.6669  1.3941  2.1345
 5499TIP3    H237989   0.545   4.348   4.335 -1.0004  0.5939  0.2370
 5500TIP3   OH237990   2.260   5.674  13.766  0.6003  0.3341 -0.2552
 5500TIP3    H137991   2.249   5.644  13.675 -1.9194  0.1249  0.0419
 5500TIP3    H237992   2.338   5.628  13.797  0.9516 -0.3429 -2.0062
 5501TIP3   OH237993   6.566   3.844   3.980 -0.1150  0.2891 -0.2952
 5501TIP3    H137994   6.651   3.825   3.942  0.4775  1.4607  0.4093
 5501TIP3    H237995   6.526   3.907   3.920  0.1388  0.8862  0.1622
 5502TIP3   OH237996   6.252   1.564   5.238 -0.6152  0.1096 -0.8276
 5502TIP3    H137997   6.280   1.584   5.149  0.8802  0.4036 -0.3307
 5502TIP3    H237998   6.201   1.483   5.230 -0.0119 -0.1825 -1.8829
 5503TIP3   OH237999   5.741   2.071   3.692  0.2078 -0.4886 -0.0930
 5503TIP3    H138000   5.830   2.044   3.669 -0.0478 -0.4943 -1.1205
 5503TIP3    H238001   5.716   2.133   3.623 -1.1412 -1.6448 -0.7141
 5504TIP3   OH238002   2.981   4.804   2.412  0.2343  0.4757  0.2585
 5504TIP3    H138003   2.971   4.759   2.496 -0.1935  2.9055  1.6160
 5504TIP3    H238004   2.900   4.854   2.402  0.5228  0.6818 -1.3310
 5505TIP3   OH238005   3.973   2.878  15.520  0.5079  0.3775 -0.3651
 5505TIP3    H138006   3.889   2.869  15.564  0.2465  0.5264 -0.8274
 5505TIP3    H238007   4.031   2.816  15.566 -0.2400 -0.8400 -0.9989
 5506TIP3   OH238008   6.250   1.533   3.457 -0.2721 -0.0679 -0.0113
 5506TIP3    H138009   6.274   1.591   3.529 -0.4070  1.3965 -1.1081
 5506TIP3    H238010   6.155   1.525   3.463 -0.3409  0.4707 -0.3181
 5507TIP3   OH238011   0.628   1.708   1.400  0.2176 -0.3612  0.1152
 5507TIP3    H138012   0.536   1.699   1.376 -0.1030 -1.1359  1.4759
 5507TIP3    H238013   0.630   1.780   1.463  0.0662 -2.0262  2.1243
 5508TIP3   OH238014   1.484   6.338  15.392  0.2492 -0.0330 -0.6086
 5508TIP3    H138015   1.514   6.409  15.449  0.4840  0.4828 -1.3678
 5508TIP3    H238016   1.400   6.312  15.430 -0.4127  1.4337 -0.9730
 5509TIP3   OH238017   4.575   0.081   4.116 -0.6518 -0.2760 -0.3980
 5509TIP3    H138018   4.601   0.013   4.178  0.6635 -0.8000 -1.4825
 5509TIP3    H238019   4.592   0.164   4.162 -0.8537 -0.6531  0.3729
 5510TIP3   OH238020   2.726   6.668   1.551 -0.2615  0.0433 -0.4384
 5510TIP3    H138021   2.771   6.587   1.529  1.3960  0.4864  1.0539
 5510TIP3    H238022   2.790   6.737   1.535 -0.4909  0.7445  1.3398
 5511TIP3   OH238023   6.109   3.219  16.098  0.7538  0.2662  0.0142
 5511TIP3    H138024   6.033   3.174  16.135 -0.5484  1.9851 -0.4377
 5511TIP3    H238025   6.166   3.234  16.173  0.2187 -0.2271  0.5329
 5512TIP3   OH238026   4.508   3.236   0.086 -0.6905  0.0263 -0.1764
 5512TIP3    H138027   4.494   3.227   0.180 -4.1100  1.1739 -0.4515
 5512TIP3    H238028   4.472   3.157   0.048 -0.0465 -0.0766 -0.5997
 5513TIP3   OH238029   4.592   5.957  11.999  0.0518  0.4075 -0.0394
 5513TIP3    H138030   4.559   5.981  11.913 -1.0818  2.7820  0.9491
 5513TIP3    H238031   4.566   5.865  12.010  1.1056 -0.2677 -2.5438
 5514TIP3   OH238032   0.577   2.949   5.099 -0.2902  0.5498 -0.0504
 5514TIP3    H138033   0.623   2.894   5.035 -1.4919 -1.0518  0.3937
 5514TIP3    H238034   0.620   2.930   5.182 -0.5562  0.4254  0.0627
 5515TIP3   OH238035   5.824   5.925   0.866 -0.4815 -0.0933 -0.2190
 5515TIP3    H138036   5.833   5.831   0.849 -1.4795 -0.0713 -0.9908
 5515TIP3    H238037   5.853   5.936   0.957 -1.0201 -1.2552  0.1125
 5516TIP3   OH238038   0.161   3.385   3.809  0.2447 -0.3140  0.3153
 5516TIP3    H138039   0.105   3.309   3.791 -0.2647  0.0222  0.4553
 5516TIP3    H238040   0.205   3.363   3.891  1.1007 -1.0192 -0.3218
 5517TIP3   OH238041   3.994   5.345  14.623 -0.2008 -0.0574 -0.3872
 5517TIP3    H138042   3.943   5.274  14.585  1.0982 -1.3884  0.2517
 5517TIP3    H238043   4.078   5.342  14.576  0.8199 -0.6472  1.3760
 5518TIP3   OH238044   2.127   3.338   1.417 -0.3344 -0.2522  0.4118
 5518TIP3    H138045   2.204   3.281   1.408 -1.5200 -2.2705  2.0194
 5518TIP3    H238046   2.087   3.310   1.500 -4.8341 -1.9188 -1.9933
 5519TIP3   OH238047   4.855   1.319  10.237 -0.1045 -0.4260 -0.2698
 5519TIP3    H138048   4.877   1.251  10.301 -1.4758  0.3851  1.1253
 5519TIP3    H238049   4.935   1.371  10.230  0.0854 -0.5395  0.7902
 5520TIP3   OH238050   1.067   2.500  12.547 -0.1286  0.2172 -0.1045
 5520TIP3    H138051   1.005   2.537  12.610 -0.3734 -1.1870  0.5211
 5520TIP3    H238052   1.144   2.556  12.553 -0.0449 -0.0323  1.6679
 5521TIP3   OH238053   4.541   2.145   2.594 -0.1090 -0.1200 -0.1182
 5521TIP3    H138054   4.495   2.168   2.675 -1.1598 -0.2274 -0.6740
 5521TIP3    H238055   4.472   2.114   2.535  0.2265  2.3518 -1.9491
 5522TIP3   OH238056   1.401   1.120  12.078  0.2402 -0.4006  0.2681
 5522TIP3    H138057   1.378   1.159  12.162 -1.4946  0.9083 -0.7480
 5522TIP3    H238058   1.317   1.098  12.038  0.9529  0.2230 -1.6626
 5523TIP3   OH238059   3.319   1.060  15.726  0.3306  0.0402 -0.4873
 5523TIP3    H138060   3.306   1.127  15.792  0.0095  1.1892 -1.6711
 5523TIP3    H238061   3.376   0.995  15.768 -0.8430  0.1027  1.2938
 5524TIP3   OH238062   1.828   4.891  11.874 -0.4958  0.1274  0.2723
 5524TIP3    H138063   1.792   4.924  11.956 -3.2190  0.5151 -0.9640
 5524TIP3    H238064   1.858   4.803  11.894  1.4594  1.1467  2.2660
 5525TIP3   OH238065   6.358   2.231   3.824 -0.1628 -0.2876  0.1099
 5525TIP3    H138066   6.393   2.320   3.834 -2.3033  0.3945  2.5671
 5525TIP3    H238067   6.269   2.244   3.789 -1.1857 -1.2527  2.1897
 5526TIP3   OH238068   6.230   0.156   4.742 -0.3054 -0.2289  0.3641
 5526TIP3    H138069   6.240   0.236   4.794 -1.6221  0.2795 -0.1056
 5526TIP3    H238070   6.318   0.137   4.709  0.0209  1.0809  0.4284
 5527TIP3   OH238071   5.905   4.848  15.025  0.1805 -0.6464 -0.4768
 5527TIP3    H138072   5.961   4.867  15.100 -0.7939 -1.1167  0.3959
 5527TIP3    H238073   5.926   4.758  15.001 -2.3535 -2.0191  1.8878
 5528TIP3   OH238074   3.631   5.109  15.039  0.5601 -0.1560 -0.4437
 5528TIP3    H138075   3.708   5.138  14.991  1.4746 -1.2304  0.3164
 5528TIP3    H238076   3.623   5.015  15.019 -1.9662  0.3684 -2.3721
 5529TIP3   OH238077   3.075   5.354   6.521  0.2720 -0.3437  0.1889
 5529TIP3    H138078   3.091   5.376   6.613  1.0915 -1.9680  0.4766
 5529TIP3    H238079   3.162   5.352   6.481 -0.1683  1.6891 -1.0000
 5530TIP3   OH238080   1.718   1.958   5.357  0.2999 -0.3782  0.3315
 5530TIP3    H138081   1.803   1.916   5.338  1.0798  1.2432  0.1090
 5530TIP3    H238082   1.678   1.970   5.272  0.9784  1.1070  0.1899
 5531TIP3   OH238083   6.264   5.652  11.819  0.0665 -0.1757  0.5293
 5531TIP3    H138084   6.226   5.574  11.860 -0.5311  0.0654  0.4524
 5531TIP3    H238085   6.279   5.625  11.728  1.4326 -0.7234  0.8848
 5532TIP3   OH238086   2.867   3.414  13.769  0.1344 -0.4584 -0.4219
 5532TIP3    H138087   2.958   3.441  13.755 -0.1539  1.0811  0.3914
 5532TIP3    H238088   2.872   3.344  13.833  0.6767  0.8037  0.9767
 5533TIP3   OH238089   6.431   3.330   2.157  0.0764 -0.8335  0.1929
 5533TIP3    H138090   6.446   3.267   2.086 -0.5201  0.5941 -1.2763
 5533TIP3    H238091   6.516   3.337   2.201  0.8411 -0.7920 -1.2222
 5534TIP3   OH238092   5.883   1.995  16.319 -0.1147 -0.1588  0.1760
 5534TIP3    H138093   5.978   1.987  16.312 -0.2970 -2.2609 -0.8820
 5534TIP3    H238094   5.857   2.045  16.241  0.0393 -0.8515 -0.3356
 5535TIP3   OH238095   4.539   4.110   3.756  0.7778  0.2535  0.0656
 5535TIP3    H138096   4.589   4.078   3.831  0.3944 -0.6925 -0.0651
 5535TIP3    H238097   4.492   4.187   3.789  0.6290 -0.1398  0.7967
 5536TIP3   OH238098   5.246   6.631  12.178  0.2289  0.1279  0.1070
 5536TIP3    H138099   5.341   6.629  12.191  0.3897  0.1251 -0.9649
 5536TIP3    H238100   5.231   6.713  12.130 -0.4756  0.7863  1.4024
 5537TIP3   OH238101   4.928   5.072   5.080 -0.0721  0.0554  0.0167
 5537TIP3    H138102   5.003   5.131   5.087 -0.0607  0.0470 -0.0355
 5537TIP3    H238103   4.931   5.041   4.990 -0.9176  1.1042 -0.3998
 5538TIP3   OH238104   1.361   3.840  14.315 -0.8591  0.0902 -0.0580
 5538TIP3    H138105   1.277   3.882  14.297 -0.7084  0.3151 -0.2275
 5538TIP3    H238106   1.358   3.759  14.264 -1.3501 -0.3485  0.6466
 5539TIP3   OH238107   3.032   1.614  13.386 -0.4193  0.4314  0.2247
 5539TIP3    H138108   3.015   1.549  13.455 -1.0004  0.4774  0.1288
 5539TIP3    H238109   3.090   1.569  13.324  2.0410  1.1231  1.8788
 5540TIP3   OH238110   6.350   2.477   5.087  0.2603  0.2665 -0.2595
 5540TIP3    H138111   6.325   2.547   5.148  1.0994 -0.2431  0.6837
 5540TIP3    H238112   6.348   2.397   5.139  0.9197 -0.1906 -0.9171
 5541TIP3   OH238113   4.649   2.340  14.859  0.0651  0.1487  0.3759
 5541TIP3    H138114   4.630   2.268  14.799 -0.7331  0.2874  0.4460
 5541TIP3    H238115   4.635   2.419  14.808  3.9778  0.3671 -0.6720
 5542TIP3   OH238116   4.004   4.875   0.543  0.1703  0.4857 -0.4257
 5542TIP3    H138117   3.998   4.804   0.479  1.3260  0.7665 -0.8852
 5542TIP3    H238118   4.098   4.884   0.559 -0.0163  1.3930  0.2062
 5543TIP3   OH238119   1.290   0.429   4.398  0.1567 -0.2929  0.4291
 5543TIP3    H138120   1.246   0.363   4.451  1.5084 -0.8328  0.9219
 5543TIP3    H238121   1.341   0.379   4.334  1.1863  0.2635  0.7951
 5544TIP3   OH238122   3.231   1.721   5.188  0.2796 -0.4901  0.2761
 5544TIP3    H138123   3.289   1.798   5.186  0.0288 -0.2861  0.6639
 5544TIP3    H238124   3.164   1.740   5.123  0.7781 -0.8351 -0.3471
 5545TIP3   OH238125   1.448   5.193   1.422 -0.2675 -0.4775  0.3270
 5545TIP3    H138126   1.422   5.285   1.429 -0.5253 -0.6383  1.7678
 5545TIP3    H238127   1.413   5.152   1.501 -0.8722 -2.0000 -0.6711
 5546TIP3   OH238128   4.148   0.417   2.912  0.2971 -0.4659 -0.3951
 5546TIP3    H138129   4.187   0.404   2.825 -1.6550 -0.1388 -1.3709
 5546TIP3    H238130   4.057   0.439   2.894 -0.1153 -0.2397  1.7579
 5547TIP3   OH238131   1.422   2.918  16.539 -0.1336 -0.1150 -0.0880
 5547TIP3    H138132   1.390   2.971  16.467 -2.1697 -1.0132  0.1075
 5547TIP3    H238133   1.478   2.852  16.498 -0.3832  0.0682 -0.7233
 5548TIP3   OH238134   5.313   5.287   4.535  0.1630  0.2097 -0.5303
 5548TIP3    H138135   5.339   5.197   4.515 -1.6323 -0.1539 -1.3921
 5548TIP3    H238136   5.327   5.335   4.453 -0.0959  0.4329 -0.4461
 5549TIP3   OH238137   5.052   3.212  15.323  0.0705  0.4695 -0.2131
 5549TIP3    H138138   4.959   3.211  15.346  0.5814  0.4356  2.0073
 5549TIP3    H238139   5.056   3.267  15.244 -1.7122  1.3459  0.2473
 5550TIP3   OH238140   4.448   2.439  15.011  0.1490  0.2684  0.1383
 5550TIP3    H138141   4.380   2.374  14.992 -1.4357  1.8270  0.2299
 5550TIP3    H238142   4.530   2.390  15.002 -0.9020 -1.4041 -1.1466
 5551TIP3   OH238143   0.431   6.355   5.856  0.7614  0.1687 -0.1364
 5551TIP3    H138144   0.404   6.445   5.872 -2.2961 -0.7008  0.4075
 5551TIP3    H238145   0.366   6.302   5.903  1.8582 -2.3172 -1.2226
 5552TIP3   OH238146   4.857   5.556   5.700  0.1911 -0.4731 -0.3130
 5552TIP3    H138147   4.892   5.520   5.782  0.5253  1.1826  0.3041
 5552TIP3    H238148   4.846   5.649   5.717 -1.9311 -0.4560 -1.4224
 5553TIP3   OH238149   2.388   2.308  16.344 -0.2955 -0.6635 -0.2426
 5553TIP3    H138150   2.372   2.368  16.417 -0.1203  0.1916 -0.8897
 5553TIP3    H238151   2.403   2.366  16.269  1.8689 -1.4702 -0.4873
 5554TIP3   OH238152   5.651   5.642  12.653  0.6183 -0.5699 -0.0283
 5554TIP3    H138153   5.638   5.559  12.608  0.3457 -1.2294  1.2251
 5554TIP3    H238154   5.628   5.709  12.588  2.2518 -1.3905 -1.5466
 5555TIP3   OH238155   2.574   6.165   5.822 -0.0737  0.1794 -0.5230
 5555TIP3    H138156   2.585   6.242   5.877 -0.3328 -1.1520  1.4831
 5555TIP3    H238157   2.647   6.108   5.845 -1.1633 -1.1432 -0.2647
 5556TIP3   OH238158   5.024   1.986  15.601  0.1049 -0.1241 -0.0729
 5556TIP3    H138159   5.098   1.988  15.540  2.0091  0.1421  2.0886
 5556TIP3    H238160   4.979   1.904  15.580  1.0594 -0.3466 -1.4138
 5557TIP3   OH238161   6.765   1.914  12.476  0.1563  0.4829  0.0996
 5557TIP3    H138162   6.718   1.993  12.451  2.0626  0.8421 -2.9282
 5557TIP3    H238163   6.710   1.842  12.445  0.5883  0.8327 -1.5668
 5558TIP3   OH238164   6.162   0.388   4.037  0.0550  0.3566 -0.6401
 5558TIP3    H138165   6.221   0.462   4.027  0.8670 -0.2297 -0.2546
 5558TIP3    H238166   6.093   0.404   3.972  0.3839  1.2772 -0.7814
 5559TIP3   OH238167   6.113   4.953  13.797 -0.5082 -0.8537  0.3969
 5559TIP3    H138168   6.200   4.961  13.757 -0.0097  1.1261  1.7210
 5559TIP3    H238169   6.054   4.992  13.732  0.1789  1.5257  1.0997
 5560TIP3   OH238170   3.560   5.031  13.321  0.5913  0.2565  1.0493
 5560TIP3    H138171   3.521   5.118  13.332 -0.3823 -0.0700  0.2941
 5560TIP3    H238172   3.485   4.972  13.312  1.2338 -0.3869 -0.4798
 5561TIP3   OH238173   5.286   6.157  10.413 -0.1231  0.0736  0.1969
 5561TIP3    H138174   5.340   6.108  10.351 -0.5108 -1.2167  0.8539
 5561TIP3    H238175   5.320   6.247  10.408  1.4491 -0.5081 -0.1016
 5562TIP3   OH238176   0.503   0.338  13.450 -0.6784 -0.0253  0.3484
 5562TIP3    H138177   0.596   0.329  13.473  0.1915  1.4885 -2.1103
 5562TIP3    H238178   0.492   0.281  13.374 -1.5379  0.4696  0.0865
 5563TIP3   OH238179   5.396   5.228  15.070 -0.1002 -0.3002  0.2677
 5563TIP3    H138180   5.328   5.229  15.003 -0.2192 -0.2271  0.3881
 5563TIP3    H238181   5.477   5.212  15.022 -0.3402 -1.5574  0.2508
 5564TIP3   OH238182   4.921   0.260   0.595  0.0576  0.1599  0.2596
 5564TIP3    H138183   4.825   0.270   0.592  0.0894  0.4836  0.3714
 5564TIP3    H238184   4.940   0.241   0.687  0.2701  1.7978  0.5792
 5565TIP3   OH238185   1.055   3.755   4.181 -0.4979  0.0960 -0.1094
 5565TIP3    H138186   0.983   3.785   4.125 -0.6098  0.3672  0.1795
 5565TIP3    H238187   1.133   3.760   4.125 -0.6865 -0.1218 -0.3977
 5566TIP3   OH238188   4.849   2.791  15.479  0.3667  0.0855  0.7337
 5566TIP3    H138189   4.804   2.759  15.401  2.7851 -1.8201 -0.0124
 5566TIP3    H238190   4.785   2.780  15.550 -1.1263 -0.2339 -0.5987
 5567TIP3   OH238191   0.100   6.792   6.331  0.0087  0.4510  0.5890
 5567TIP3    H138192   0.124   6.805   6.423  0.4406  2.2661  0.2581
 5567TIP3    H238193   0.176   6.750   6.292  0.4213  1.0359  0.7529
 5568TIP3   OH238194   4.044   1.462   3.588 -0.3103 -0.2459 -0.1623
 5568TIP3    H138195   4.130   1.428   3.612 -0.3139 -0.7715 -0.8568
 5568TIP3    H238196   3.986   1.385   3.590 -1.1712  0.3824  2.0151
 5569TIP3   OH238197   6.407   1.744  12.783  0.4087  0.4505 -0.0246
 5569TIP3    H138198   6.357   1.811  12.829  0.2649  0.6638 -0.4929
 5569TIP3    H238199   6.350   1.667  12.783  0.3793  0.4719  0.0870
 5570TIP3   OH238200   0.110   1.006   2.235 -0.0651  0.1151  0.2904
 5570TIP3    H138201   0.087   0.941   2.302  0.9896 -0.6952 -0.0983
 5570TIP3    H238202   0.042   1.072   2.242 -1.7485 -1.5103  0.0324
 5571TIP3   OH238203   0.380   5.646  14.601  0.0748 -0.1746  0.1538
 5571TIP3    H138204   0.472   5.648  14.573 -0.5150  0.7229 -1.9776
 5571TIP3    H238205   0.343   5.571  14.555 -0.6661  0.6055 -0.5606
 5572TIP3   OH238206   6.506   1.210   5.098 -0.0569  0.2308  0.2291
 5572TIP3    H138207   6.481   1.268   5.025  2.0813 -0.6866 -1.3525
 5572TIP3    H238208   6.574   1.259   5.144 -1.0043  0.5653  1.3102
 5573TIP3   OH238209   4.077   3.960  11.610 -0.5499 -0.4449  0.4597
 5573TIP3    H138210   4.005   4.015  11.640 -0.0078  0.1037  0.7668
 5573TIP3    H238211   4.118   3.927  11.690  2.1220  2.5813  0.5506
 5574TIP3   OH238212   2.038   4.137   5.004  0.4460 -0.3042 -0.5095
 5574TIP3    H138213   2.090   4.216   5.020  0.1874 -0.3892  0.9047
 5574TIP3    H238214   2.011   4.108   5.092 -1.8859 -0.3427 -1.1816
 5575TIP3   OH238215   4.378   2.443  12.871  0.7705 -0.0157  0.1112
 5575TIP3    H138216   4.440   2.466  12.802  0.4276 -0.3363 -0.3095
 5575TIP3    H238217   4.293   2.447  12.829  0.1834  3.0823  1.3126
 5576TIP3   OH238218   2.353   5.581   0.136  0.3054 -0.1755  0.1458
 5576TIP3    H138219   2.365   5.576   0.230  1.3428  0.8654  0.0977
 5576TIP3    H238220   2.432   5.541   0.099 -0.1693 -0.7298 -0.2833
 5577TIP3   OH238221   4.627   5.163  12.511 -0.7614  0.2973 -0.1600
 5577TIP3    H138222   4.600   5.187  12.600  1.3015 -2.3747  1.3388
 5577TIP3    H238223   4.554   5.112  12.476 -0.7962 -0.3061  0.7758
 5578TIP3   OH238224   3.686   4.351   1.419  0.0459 -0.0090 -0.1688
 5578TIP3    H138225   3.695   4.434   1.372  0.5171  0.3851  0.5995
 5578TIP3    H238226   3.639   4.375   1.500  0.9003 -0.3393  0.4352
 5579TIP3   OH238227   1.173   6.435   6.087  0.1422 -0.0146 -0.0682
 5579TIP3    H138228   1.193   6.354   6.135  0.7275  0.5200  0.6112
 5579TIP3    H238229   1.099   6.412   6.031  0.2016 -0.9788  0.2336
 5580TIP3   OH238230   2.083   1.149  13.855 -0.2724  0.2936 -0.1817
 5580TIP3    H138231   2.055   1.131  13.765 -0.1439 -0.6096 -0.0484
 5580TIP3    H238232   2.161   1.203  13.845 -0.5177  0.5847 -0.5981
 5581TIP3   OH238233   3.513   6.674   3.519 -0.5319 -0.4776  0.3449
 5581TIP3    H138234   3.478   6.704   3.435 -0.2186 -0.9662  0.0379
 5581TIP3    H238235   3.564   6.596   3.497  1.6324  0.7842  0.6007
 5582TIP3   OH238236   1.236   1.926   0.155  0.1957 -0.1734  0.4968
 5582TIP3    H138237   1.264   1.880   0.234 -2.3188 -1.5237  0.6969
 5582TIP3    H238238   1.293   1.892   0.086  0.6087 -1.0484  1.2444
 5583TIP3   OH238239   3.657   0.644   6.052  0.1559  0.1164 -0.1094
 5583TIP3    H138240   3.642   0.620   5.961 -1.8254  1.0599 -0.0835
 5583TIP3    H238241   3.584   0.603   6.100  1.5588 -0.9784  1.1865
 5584TIP3   OH238242   1.795   2.488   1.725 -0.7293 -0.4538 -0.1746
 5584TIP3    H138243   1.868   2.537   1.687 -1.2520 -0.3049 -1.0056
 5584TIP3    H238244   1.717   2.532   1.690 -1.2649 -3.0673 -2.5773
 5585TIP3   OH238245   2.571   5.206  15.144  0.2360  0.0243  0.4384
 5585TIP3    H138246   2.568   5.114  15.168  0.7594  0.0830  0.7418
 5585TIP3    H238247   2.482   5.226  15.115  0.3215 -0.7802 -0.4297
 5586TIP3   OH238248   0.694   6.699  16.314  0.2203 -0.2042 -0.2357
 5586TIP3    H138249   0.772   6.670  16.267  1.0440  1.2109  0.2091
 5586TIP3    H238250   0.662   6.774  16.263  1.0458  1.2680  1.3142
 5587TIP3   OH238251   5.026   4.327  15.363  0.1091 -0.3302  0.0904
 5587TIP3    H138252   4.972   4.396  15.401 -0.1119 -0.0707 -0.6659
 5587TIP3    H238253   5.107   4.372  15.337 -0.1547 -0.2788 -0.6797
 5588TIP3   OH238254   4.019   1.561  15.782 -0.0994 -0.3132 -0.0054
 5588TIP3    H138255   4.078   1.632  15.756  1.7632 -1.0211  1.9485
 5588TIP3    H238256   4.062   1.482  15.752 -1.6925 -0.7169 -1.3321
 5589TIP3   OH238257   5.976   6.336  16.596  0.3513 -0.5081  0.1437
 5589TIP3    H138258   5.979   6.240  16.598  1.9471 -0.5266  3.6245
 5589TIP3    H238259   6.063   6.363  16.568 -0.0940 -0.0527 -0.8368
 5590TIP3   OH238260   0.712   4.478  16.769 -0.6838 -0.3196  0.3932
 5590TIP3    H138261   0.779   4.539  16.738  1.0572 -2.0977  0.4765
 5590TIP3    H238262   0.674   4.521  16.846 -1.8495  2.0756 -1.3878
 5591TIP3   OH238263   0.778   3.138   2.980 -0.0192  0.6005  0.2185
 5591TIP3    H138264   0.712   3.166   2.916 -0.0444  1.4960  0.6188
 5591TIP3    H238265   0.729   3.096   3.050 -0.1153  0.7435  0.2372
 5592TIP3   OH238266   6.146   0.772   0.883 -0.2904 -0.2187  0.7260
 5592TIP3    H138267   6.233   0.769   0.844 -1.1354 -0.5261 -1.2193
 5592TIP3    H238268   6.152   0.718   0.961  0.2092 -3.8953 -1.6463
 5593TIP3   OH238269   4.770   4.161  11.728 -0.2799  0.2116  0.1801
 5593TIP3    H138270   4.805   4.119  11.806  0.6881 -0.3382 -0.5277
 5593TIP3    H238271   4.796   4.104  11.656 -2.1886  0.0630 -0.4546
 5594TIP3   OH238272   2.495   0.950   4.811  0.4385 -0.1345 -0.2170
 5594TIP3    H138273   2.471   0.887   4.744 -2.3125  2.5610 -2.0349
 5594TIP3    H238274   2.569   0.998   4.773 -1.4759  1.7726 -1.7866
 5595TIP3   OH238275   5.708   6.236  10.352  0.1132  0.3929 -0.0207
 5595TIP3    H138276   5.758   6.203  10.428  0.9774 -0.5131 -0.9453
 5595TIP3    H238277   5.748   6.320  10.332  0.1405  0.4562  0.2851
 5596TIP3   OH238278   1.146   6.421   5.639  0.1633  0.0233 -0.7541
 5596TIP3    H138279   1.151   6.466   5.723  0.8946  1.5261 -1.5756
 5596TIP3    H238280   1.079   6.469   5.590 -1.7487 -2.0646 -0.3739
 5597TIP3   OH238281   5.378   2.540  10.826  0.0265 -0.4827  0.2986
 5597TIP3    H138282   5.391   2.550  10.731 -1.2310  1.4381  0.2713
 5597TIP3    H238283   5.461   2.507  10.858  1.4225  1.4203 -1.1360
 5598TIP3   OH238284   4.749   2.105   2.817 -0.1179 -0.0693  0.8062
 5598TIP3    H138285   4.779   2.018   2.792 -1.6295 -0.5987  0.7805
 5598TIP3    H238286   4.789   2.163   2.752  1.0216 -0.7102  0.9117
 5599TIP3   OH238287   6.026   2.057  14.278  0.3855 -0.8226 -0.4046
 5599TIP3    H138288   5.969   2.134  14.287  0.8091 -0.5340 -0.1052
 5599TIP3    H238289   5.969   1.982  14.294  0.2645 -0.5004  0.7857
 5600TIP3   OH238290   4.390   4.864  13.543 -0.5503 -1.0324 -0.2246
 5600TIP3    H138291   4.421   4.848  13.632 -2.9388 -0.0003  0.8886
 5600TIP3    H238292   4.310   4.811  13.536 -1.0378 -0.1822 -1.3300
 5601TIP3   OH238293   3.710   0.613   6.559 -0.7009 -0.2431 -0.0251
 5601TIP3    H138294   3.648   0.557   6.607 -0.4519 -0.8477 -0.4018
 5601TIP3    H238295   3.686   0.702   6.585 -0.7414 -0.5423  1.0254
 5602TIP3   OH238296   3.399   3.184  16.445  0.0692  0.1737 -0.3098
 5602TIP3    H138297   3.342   3.238  16.499 -0.2173 -0.3779 -0.0545
 5602TIP3    H238298   3.344   3.158  16.371 -0.1204 -0.6324  0.1058
 5603TIP3   OH238299   2.146   6.720   3.835 -0.0980  0.2412  0.2216
 5603TIP3    H138300   2.214   6.787   3.842  0.3037 -0.0413 -0.6970
 5603TIP3    H238301   2.147   6.675   3.919  0.1596  0.8926  0.5735
 5604TIP3   OH238302   6.037   5.310   5.520 -0.4698 -0.0925  0.2851
 5604TIP3    H138303   6.061   5.221   5.492 -1.4185 -0.1132 -0.5133
 5604TIP3    H238304   6.118   5.347   5.554  0.3013 -0.7309 -0.8000
 5605TIP3   OH238305   5.113   6.532   3.343  0.4784 -0.4741  0.5824
 5605TIP3    H138306   5.098   6.625   3.360 -0.1530 -0.5631  0.5130
 5605TIP3    H238307   5.028   6.498   3.318  0.8215 -0.9564  0.0553
 5606TIP3   OH238308   4.267   1.818   1.563 -0.2245  0.7774 -0.1916
 5606TIP3    H138309   4.251   1.763   1.486  0.9387 -0.2663  0.2680
 5606TIP3    H238310   4.199   1.793   1.626  0.2884 -0.1666  0.0081
 5607TIP3   OH238311   0.308   4.508  13.892 -0.3480  0.3011 -0.3835
 5607TIP3    H138312   0.373   4.551  13.947 -1.6732  1.3935  0.3888
 5607TIP3    H238313   0.307   4.559  13.811 -0.1463  0.1769 -0.4671
 5608TIP3   OH238314   5.666   5.431  15.555  0.0359  0.7029  0.4594
 5608TIP3    H138315   5.758   5.422  15.530 -0.1862  0.3006 -0.2290
 5608TIP3    H238316   5.633   5.342  15.560 -0.5492  0.8693 -0.1921
 5609TIP3   OH238317   1.385   6.309   0.293  0.7105 -0.0500  0.4216
 5609TIP3    H138318   1.360   6.357   0.214  2.0886 -0.9443 -0.6091
 5609TIP3    H238319   1.317   6.243   0.304 -1.2536  2.0502  1.8977
 5610TIP3   OH238320   0.632   0.461  12.819  0.3577 -0.0323 -0.0844
 5610TIP3    H138321   0.613   0.445  12.727 -0.8305  0.2809  0.0838
 5610TIP3    H238322   0.640   0.556  12.826  0.6397 -0.0697  0.0979
 5611TIP3   OH238323   1.843   1.790  12.296 -0.0588 -0.0257 -0.5390
 5611TIP3    H138324   1.831   1.852  12.225  0.8977  0.6199 -0.1609
 5611TIP3    H238325   1.932   1.808  12.329 -0.6748  0.0897  1.1838
 5612TIP3   OH238326   3.600   4.835   2.349  0.0250  0.4193  0.4528
 5612TIP3    H138327   3.691   4.857   2.367  0.5729  0.1056 -1.7138
 5612TIP3    H238328   3.588   4.748   2.388  0.4335  0.7436  1.3284
 5613TIP3   OH238329   4.317   2.532  16.222 -0.2728 -0.0395  0.5813
 5613TIP3    H138330   4.372   2.606  16.197 -0.7036  0.9017  2.2603
 5613TIP3    H238331   4.322   2.529  16.317  0.6304 -2.9067  0.5445
 5614TIP3   OH238332   6.812   0.702   3.351  0.5273 -0.3043 -0.4241
 5614TIP3    H138333   6.768   0.772   3.400  1.3362  0.2032 -0.3962
 5614TIP3    H238334   6.786   0.621   3.395  0.9117  0.1117  0.5986
 5615TIP3   OH238335   2.308   6.697  16.045  0.3871  0.1430  0.3296
 5615TIP3    H138336   2.266   6.774  16.008 -1.1259 -0.5537  0.5341
 5615TIP3    H238337   2.317   6.636  15.972 -3.2111 -1.5001  1.0237
 5616TIP3   OH238338   2.039   1.823  17.205  0.3305 -0.2657  0.2789
 5616TIP3    H138339   2.075   1.904  17.170  0.0273  0.7677  2.1873
 5616TIP3    H238340   2.045   1.833  17.300 -0.2209 -2.2582  0.5806
 5617TIP3   OH238341   1.827   2.460  15.257 -0.0072 -0.1326  0.0601
 5617TIP3    H138342   1.802   2.372  15.229  0.9932 -0.3058 -0.3425
 5617TIP3    H238343   1.814   2.515  15.180 -0.4334  0.0324  0.2495
 5618TIP3   OH238344   4.675   6.749   1.513  0.5388  0.4323 -0.0436
 5618TIP3    H138345   4.681   6.844   1.499  1.3038  0.5511  1.0073
 5618TIP3    H238346   4.716   6.734   1.598  1.8257 -1.0369 -0.8717
 5619TIP3   OH238347   2.221   2.171  11.218 -0.0579  0.6310  0.1605
 5619TIP3    H138348   2.214   2.238  11.286  1.3826  0.0260  0.9526
 5619TIP3    H238349   2.158   2.198  11.151 -0.0020  2.3878  0.7656
 5620TIP3   OH238350   5.910   4.197   0.845  0.4052 -0.3028  0.3307
 5620TIP3    H138351   5.929   4.195   0.751 -1.0968  2.5816 -0.1438
 5620TIP3    H238352   5.995   4.184   0.887  1.2714 -0.6587 -1.4453
 5621TIP3   OH238353   0.295   6.424  13.078 -0.0393 -0.4910 -0.1350
 5621TIP3    H138354   0.243   6.344  13.089 -1.1482  0.2139 -0.1725
 5621TIP3    H238355   0.359   6.421  13.149 -0.1351 -1.3484 -0.0675
 5622TIP3   OH238356   1.240   6.548  15.489  0.7022  0.2219 -0.2513
 5622TIP3    H138357   1.200   6.627  15.526 -0.9469 -0.2360 -0.9935
 5622TIP3    H238358   1.248   6.489  15.564  0.4629  0.5102  0.0069
 5623TIP3   OH238359   1.816   3.128  15.529  0.3781 -0.2247 -0.5207
 5623TIP3    H138360   1.722   3.139  15.544 -0.1603 -2.4691 -1.8279
 5623TIP3    H238361   1.830   3.034  15.537  1.6041 -0.5893 -4.8756
 5624TIP3   OH238362   0.085   3.406  17.116  0.4467 -0.3506 -0.3508
 5624TIP3    H138363   0.168   3.418  17.071  0.7753 -0.6438  0.1693
 5624TIP3    H238364   0.105   3.424  17.208  0.0445 -0.8971 -0.1527
 5625TIP3   OH238365   5.160   5.582  13.566  0.1234 -0.3654  0.2155
 5625TIP3    H138366   5.070   5.606  13.586  0.2270  1.1966 -0.9695
 5625TIP3    H238367   5.154   5.519  13.494 -0.0109 -0.2758  0.1505
 5626TIP3   OH238368   1.549   0.181   4.612  0.7330  0.3542  0.1277
 5626TIP3    H138369   1.463   0.220   4.595  0.3290 -0.8591 -0.7691
 5626TIP3    H238370   1.530   0.104   4.665  1.0258 -0.9589 -1.5819
 5627TIP3   OH238371   0.364   5.435   5.406 -0.6180  0.3099  0.5807
 5627TIP3    H138372   0.289   5.488   5.433  0.5649  1.7633  1.1894
 5627TIP3    H238373   0.423   5.497   5.363  0.2391 -0.7927  0.1051
 5628TIP3   OH238374   6.540   1.626   4.508 -0.4818  0.1488 -0.1545
 5628TIP3    H138375   6.608   1.678   4.550  2.1063 -3.9187  1.3326
 5628TIP3    H238376   6.564   1.625   4.415  0.4260  0.2494  0.0743
 5629TIP3   OH238377   4.670   3.544   1.905  0.4858 -0.1562 -0.3273
 5629TIP3    H138378   4.646   3.496   1.826 -0.8773 -0.9873  0.5474
 5629TIP3    H238379   4.678   3.477   1.973  0.2290  0.6729  0.5559
 5630TIP3   OH238380   6.131   2.248  12.718  1.1941  0.4111 -0.2600
 5630TIP3    H138381   6.176   2.330  12.741  0.4085  1.0302 -0.8536
 5630TIP3    H238382   6.067   2.236  12.788  0.1628  1.2272 -1.0290
 5631TIP3   OH238383   5.387   3.550  16.693  0.2114 -0.3115 -0.2279
 5631TIP3    H138384   5.358   3.636  16.663  0.4830  0.1905  0.8996
 5631TIP3    H238385   5.347   3.539  16.779 -0.2888 -1.5734 -0.6000
 5632TIP3   OH238386   6.220   1.075   4.705 -0.0642  0.9168 -0.3190
 5632TIP3    H138387   6.280   1.085   4.632  0.3683  0.9318  0.0339
 5632TIP3    H238388   6.267   1.019   4.767 -0.4002  0.9542 -0.0290
 5633TIP3   OH238389   1.297   4.122  11.692 -0.7865 -0.6469  0.3407
 5633TIP3    H138390   1.318   4.030  11.705 -1.6571 -1.1542 -1.5049
 5633TIP3    H238391   1.202   4.126  11.701 -0.8307 -0.0740 -0.3540
 5634TIP3   OH238392   3.908   1.102   2.946  0.0833 -0.3517 -0.5366
 5634TIP3    H138393   3.982   1.162   2.939 -1.1870  1.2321 -1.1301
 5634TIP3    H238394   3.839   1.155   2.986  0.0581 -2.5650  2.8042
 5635TIP3   OH238395   3.763   2.159   0.214 -0.2399  0.2115 -0.1046
 5635TIP3    H138396   3.776   2.224   0.283  0.2484 -0.4677  0.4660
 5635TIP3    H238397   3.790   2.202   0.134 -0.9844  1.0751  0.0922
 5636TIP3   OH238398   6.331   4.064  14.170 -0.0264  0.0694 -0.0335
 5636TIP3    H138399   6.341   4.011  14.091 -0.7143 -0.3297  0.1409
 5636TIP3    H238400   6.240   4.051  14.197  0.2024  0.1829  0.8388
 5637TIP3   OH238401   4.001   2.251  11.576 -0.2137 -0.2928 -0.6037
 5637TIP3    H138402   4.071   2.227  11.516 -0.7555 -1.9489 -0.6345
 5637TIP3    H238403   3.967   2.168  11.608 -1.1552  0.5076  0.5961
 5638TIP3   OH238404   4.892   4.050  13.480 -0.4494 -0.1097  0.2014
 5638TIP3    H138405   4.841   4.027  13.558 -0.2206 -0.7287  0.1735
 5638TIP3    H238406   4.842   4.120  13.438 -1.1317 -0.5142  0.3255
 5639TIP3   OH238407   3.242   6.145   4.235 -0.1816  0.0948 -0.0030
 5639TIP3    H138408   3.216   6.228   4.195 -0.1358 -0.4139 -1.1142
 5639TIP3    H238409   3.320   6.168   4.287  0.8745  0.4622 -1.6626
 5640TIP3   OH238410   1.818   1.822   2.712 -0.2848  0.1547  0.1868
 5640TIP3    H138411   1.773   1.766   2.775 -0.2511  0.6664  0.6706
 5640TIP3    H238412   1.780   1.798   2.628  0.3309 -1.2007  0.2757
 5641TIP3   OH238413   0.254   5.841  14.775  0.7388  0.1215 -0.1692
 5641TIP3    H138414   0.302   5.799  14.703  1.9982  0.4731  0.4402
 5641TIP3    H238415   0.293   5.929  14.781  0.2046  0.3169  0.5402
 5642TIP3   OH238416   4.319   4.269   0.619 -0.3047 -0.0955  0.1027
 5642TIP3    H138417   4.313   4.174   0.617 -0.4940 -0.2930  3.4405
 5642TIP3    H238418   4.246   4.300   0.566 -1.1903 -1.8620  0.2418
 5643TIP3   OH238419   0.498   1.308  12.511  0.2690 -0.2696  0.7649
 5643TIP3    H138420   0.526   1.399  12.520  1.0179 -0.3743 -0.2172
 5643TIP3    H238421   0.535   1.280  12.427 -0.9064 -1.1354  0.5069
 5644TIP3   OH238422   0.872   3.783  15.747  0.3008  0.0612 -0.6408
 5644TIP3    H138423   0.791   3.817  15.785  0.3679  0.2266 -0.6432
 5644TIP3    H238424   0.915   3.737  15.819  0.7415  0.9354 -0.3340
 5645TIP3   OH238425   1.990   2.367  14.201 -0.1288 -0.1374 -0.6074
 5645TIP3    H138426   2.078   2.380  14.165  0.2843  0.2484  0.5199
 5645TIP3    H238427   1.981   2.435  14.268 -0.2854 -1.7702  1.1120
 5646TIP3   OH238428   4.027   4.341  12.297  0.3259  0.2308  0.4781
 5646TIP3    H138429   4.056   4.344  12.388 -0.8215  1.8565  0.8227
 5646TIP3    H238430   3.953   4.402  12.293  0.8017  0.7378 -1.7051
 5647TIP3   OH238431   3.073   4.544   3.239 -0.6967  0.1539  0.2222
 5647TIP3    H138432   3.070   4.450   3.255  0.3914 -0.2230 -1.5273
 5647TIP3    H238433   3.129   4.554   3.162  1.0794  2.4269  1.6827
 5648TIP3   OH238434   0.470   2.052  14.330  0.2258  0.7362  0.0654
 5648TIP3    H138435   0.508   2.010  14.407 -0.5382 -2.2646 -1.0511
 5648TIP3    H238436   0.527   2.025  14.258 -2.2239 -1.5354 -1.2024
 5649TIP3   OH238437   6.161   4.314   4.537  0.0360  0.1563 -0.2789
 5649TIP3    H138438   6.078   4.346   4.572  0.4542 -0.6972  1.5771
 5649TIP3    H238439   6.225   4.379   4.565  0.1993  0.1315 -0.5891
 5650TIP3   OH238440   1.263   5.635  11.551 -0.2348 -0.6548 -0.1617
 5650TIP3    H138441   1.237   5.640  11.459 -0.3215  1.9570 -0.0576
 5650TIP3    H238442   1.189   5.670  11.599  0.9694  0.9516  0.6252
 5651TIP3   OH238443   0.693   6.243  14.964 -0.4354  0.3289 -0.4752
 5651TIP3    H138444   0.634   6.188  15.015 -0.0929 -0.1268 -0.5657
 5651TIP3    H238445   0.691   6.328  15.008 -1.7929  0.5705 -0.9528
 5652TIP3   OH238446   6.029   2.921   1.890  0.4089 -0.7113 -0.5079
 5652TIP3    H138447   5.988   3.005   1.868 -0.3349 -1.2010 -1.0561
 5652TIP3    H238448   6.018   2.868   1.811 -0.2477 -1.7525  0.2618
 5653TIP3   OH238449   0.821   1.520  15.015  0.3141  0.7746 -0.1331
 5653TIP3    H138450   0.833   1.426  15.007 -0.7157  0.7712 -2.2145
 5653TIP3    H238451   0.727   1.534  15.006  0.3083  1.9375  1.3086
 5654TIP3   OH238452   1.385   0.191   0.510 -0.0478 -0.2156  0.3084
 5654TIP3    H138453   1.377   0.097   0.524 -1.0287 -0.1287  0.3839
 5654TIP3    H238454   1.468   0.201   0.463  1.1937 -0.8948  2.2604
 5655TIP3   OH238455   3.610   2.397  15.152 -0.8054 -0.0427  0.5494
 5655TIP3    H138456   3.576   2.360  15.233 -0.7940 -0.0486  0.5512
 5655TIP3    H238457   3.705   2.403  15.167 -1.0847  3.1122  1.8947
 5656TIP3   OH238458   1.945   4.369   1.975 -0.5171  0.2012 -0.6393
 5656TIP3    H138459   2.036   4.364   2.006  0.2893  0.2287 -2.8054
 5656TIP3    H238460   1.948   4.433   1.904 -1.6932 -1.5909 -2.4157
 5657TIP3   OH238461   0.966   1.454   2.910 -0.4523 -0.2062  0.7907
 5657TIP3    H138462   0.901   1.441   2.841 -0.8201 -0.5122  1.1868
 5657TIP3    H238463   1.003   1.367   2.925 -0.1408 -0.0815  0.7533
 5658TIP3   OH238464   3.946   6.683  12.731  0.0641  0.1094 -0.1769
 5658TIP3    H138465   3.979   6.594  12.744 -0.6586 -0.0553  0.5975
 5658TIP3    H238466   3.966   6.728  12.813  0.2573  0.6132 -0.4948
 5659TIP3   OH238467   0.963   4.361   3.121 -0.3931  0.0933 -0.3059
 5659TIP3    H138468   0.875   4.380   3.154 -1.3701 -1.7539 -1.6867
 5659TIP3    H238469   0.986   4.437   3.068 -1.4011  0.3297 -0.4171
 5660TIP3   OH238470   0.753   3.431  11.649  0.5462  0.6474 -0.2240
 5660TIP3    H138471   0.670   3.456  11.689  1.0131 -1.2575  2.2175
 5660TIP3    H238472   0.737   3.345  11.610  0.6740  1.5514 -2.3893
 5661TIP3   OH238473   5.695   3.875   4.714  0.0050 -0.2189 -0.1019
 5661TIP3    H138474   5.783   3.838   4.709 -0.7782 -2.0407 -3.3374
 5661TIP3    H238475   5.650   3.823   4.780  1.0107  0.0169  0.7940
 5662TIP3   OH238476   2.205   2.403   4.586 -0.4759  0.2943 -0.4788
 5662TIP3    H138477   2.234   2.317   4.557 -1.6909 -0.4574  0.4765
 5662TIP3    H238478   2.250   2.464   4.527  0.5724 -0.9631 -1.0257
 5663TIP3   OH238479   5.661   2.879  12.834  0.1850  0.2118 -0.8403
 5663TIP3    H138480   5.642   2.968  12.865  1.0914  0.3656 -0.7051
 5663TIP3    H238481   5.722   2.844  12.899 -1.0507 -0.9305 -0.2665
 5664TIP3   OH238482   5.664   0.147   0.229 -0.1039  0.1625 -0.1881
 5664TIP3    H138483   5.650   0.239   0.208 -1.2360  0.1796  0.5250
 5664TIP3    H238484   5.702   0.147   0.317  2.3503  0.0092 -1.1790
 5665TIP3   OH238485   0.304   1.885   3.529 -0.3289 -0.0691 -0.1197
 5665TIP3    H138486   0.282   1.921   3.615 -1.2394 -1.1076  0.1040
 5665TIP3    H238487   0.225   1.898   3.476 -0.5398 -1.3493 -0.1425
 5666TIP3   OH238488   1.819   2.602  16.608  0.1147 -0.3249  0.1390
 5666TIP3    H138489   1.857   2.689  16.621  0.0404 -0.1610 -0.6890
 5666TIP3    H238490   1.893   2.542  16.615  0.1625 -0.2008  0.7351
 5667TIP3   OH238491   4.304   2.160   1.217  0.0831  0.2387 -0.2926
 5667TIP3    H138492   4.296   2.087   1.155  0.5771  0.4836 -0.6531
 5667TIP3    H238493   4.385   2.204   1.191 -0.6043  1.3616 -0.5709
 5668TIP3   OH238494   6.163   3.613  12.886 -0.1507 -0.2392  0.3364
 5668TIP3    H138495   6.089   3.580  12.835 -0.3489  0.3884  0.2017
 5668TIP3    H238496   6.144   3.707  12.895  1.8331  0.4700 -1.8182
 5669TIP3   OH238497   1.607   0.875  15.527  0.3554 -0.0260  0.5273
 5669TIP3    H138498   1.674   0.915  15.582  0.5738  0.1995  0.0934
 5669TIP3    H238499   1.628   0.902  15.438  0.5652 -1.1821  0.2029
 5670TIP3   OH238500   4.813   0.042  13.660  0.0279  0.3284 -0.3362
 5670TIP3    H138501   4.845  -0.044  13.633  2.1901  1.1491 -0.5522
 5670TIP3    H238502   4.720   0.042  13.634  0.1310 -1.7023 -0.8617
 5671TIP3   OH238503   0.572   2.480   5.257 -0.0184  0.2429 -0.4401
 5671TIP3    H138504   0.556   2.544   5.327  1.0584  0.0409  0.0196
 5671TIP3    H238505   0.562   2.530   5.176 -2.6705  0.1663 -0.2293
 5672TIP3   OH238506   6.002   5.504  13.925  0.4895  0.1063  0.2282
 5672TIP3    H138507   5.915   5.519  13.962  0.2837 -2.3458  0.9556
 5672TIP3    H238508   5.999   5.414  13.893  2.5818  0.1725 -0.2905
 5673TIP3   OH238509   0.014   4.100  11.928  0.6695  0.0308  0.3192
 5673TIP3    H138510   0.071   4.109  11.852  0.1878 -2.1583 -0.3851
 5673TIP3    H238511   0.063   4.044  11.988  0.5853  0.8273  1.1622
 5674TIP3   OH238512   5.757   6.584   5.259  0.1032 -0.0360  0.1635
 5674TIP3    H138513   5.674   6.628   5.278 -0.9118 -1.6099 -0.3816
 5674TIP3    H238514   5.803   6.642   5.200 -1.0957  0.3943 -0.3666
 5675TIP3   OH238515   3.780   2.041   2.054 -0.2396  0.0688 -0.3748
 5675TIP3    H138516   3.819   2.056   2.140  1.2826  0.1862 -1.0669
 5675TIP3    H238517   3.689   2.016   2.074 -0.2463  1.1479  1.2112
 5676TIP3   OH238518   4.219   1.163   1.525 -0.0332 -0.3698 -0.4238
 5676TIP3    H138519   4.172   1.169   1.607 -0.7522  0.7551 -0.8980
 5676TIP3    H238520   4.173   1.095   1.475 -1.2168  0.7232 -0.8877
 5677TIP3   OH238521   3.381   6.418   1.759  0.3637  0.4580 -0.4022
 5677TIP3    H138522   3.399   6.398   1.851  0.9333  0.5304 -0.4930
 5677TIP3    H238523   3.301   6.370   1.739  0.3334  0.3013  0.0826
 5678TIP3   OH238524   2.496   0.598  12.170  0.4524 -0.6233  0.6416
 5678TIP3    H138525   2.458   0.646  12.243 -1.3287  0.8813 -1.1585
 5678TIP3    H238526   2.461   0.509  12.179 -1.7241  0.1393  0.3601
 5679TIP3   OH238527   6.414   4.373  11.763  0.2910 -0.1713  0.6086
 5679TIP3    H138528   6.506   4.350  11.779  0.0785  0.0128  2.2474
 5679TIP3    H238529   6.406   4.464  11.793 -0.1602  0.2277 -0.6580
 5680TIP3   OH238530   6.354   0.084   1.923 -0.4155  0.1696  0.5762
 5680TIP3    H138531   6.397   0.146   1.864 -0.6982 -0.9705 -0.8940
 5680TIP3    H238532   6.299   0.139   1.979  0.5702  1.3744  0.4184
 5681TIP3   OH238533   5.687   2.738  16.586 -0.0357 -0.1834  0.3463
 5681TIP3    H138534   5.612   2.770  16.538  1.2196 -1.4527 -2.7263
 5681TIP3    H238535   5.659   2.653  16.621 -0.8642  0.6200  1.7162
 5682TIP3   OH238536   2.881   1.379   3.850 -0.6727 -0.3007 -0.1387
 5682TIP3    H138537   2.972   1.405   3.860 -1.2003  0.7662  2.9022
 5682TIP3    H238538   2.874   1.297   3.900 -1.5710  0.2053  0.5995
 5683TIP3   OH238539   0.914   5.231   3.025 -0.6773 -0.4658 -0.2920
 5683TIP3    H138540   0.915   5.322   2.994 -2.4578 -1.0347 -2.2622
 5683TIP3    H238541   1.004   5.201   3.011  0.2839  1.2871  1.5793
 5684TIP3   OH238542   6.538   0.425  11.395  0.0219 -0.3600  0.5205
 5684TIP3    H138543   6.473   0.417  11.325 -0.3046 -1.7274  0.9371
 5684TIP3    H238544   6.486   0.433  11.475  0.3737 -0.7169  0.7881
 5685TIP3   OH238545   1.209   4.061  14.621  0.3716 -0.5539  0.3438
 5685TIP3    H138546   1.304   4.066  14.610  0.5908 -0.1426  2.1601
 5685TIP3    H238547   1.178   4.149  14.600  0.7180  0.0564  2.2107
 5686TIP3   OH238548   0.457   3.798   1.750  0.2257  0.4178  0.6896
 5686TIP3    H138549   0.545   3.766   1.731 -0.2696  0.0559 -1.2150
 5686TIP3    H238550   0.440   3.865   1.684 -1.8743 -1.3965 -0.8024
 5687TIP3   OH238551   5.123   3.376  12.430 -0.1358 -0.0917 -0.1023
 5687TIP3    H138552   5.155   3.333  12.350  2.4470 -0.5010  1.0290
 5687TIP3    H238553   5.086   3.304  12.482  0.1243 -0.2046 -0.0689
 5688TIP3   OH238554   4.901   3.654   3.906 -0.4873  0.1399  0.0194
 5688TIP3    H138555   4.980   3.703   3.929 -0.7983  0.0213  1.4619
 5688TIP3    H238556   4.887   3.673   3.813  1.1456  0.2685 -0.2384
 5689TIP3   OH238557   3.830   3.072  15.306 -0.2159  0.0769  0.1712
 5689TIP3    H138558   3.900   3.027  15.259  0.2842  1.8528 -0.8643
 5689TIP3    H238559   3.851   3.058  15.399  2.6889  2.1500 -0.0415
 5690TIP3   OH238560   1.858   5.371  10.238  0.5142  0.2120 -0.1421
 5690TIP3    H138561   1.950   5.363  10.265  0.0628  1.4629  1.9797
 5690TIP3    H238562   1.810   5.316  10.299 -0.2950  0.7861 -0.2479
 5691TIP3   OH238563   1.770   4.837   3.764 -0.7748  0.0260 -0.2746
 5691TIP3    H138564   1.792   4.839   3.857  1.2527  0.4963 -0.7303
 5691TIP3    H238565   1.677   4.861   3.761 -0.3783  2.0761  1.4789
 5692TIP3   OH238566   3.557   0.039   4.533 -0.4246  0.0921  0.2739
 5692TIP3    H138567   3.537   0.047   4.439  0.6044  0.2781  0.0567
 5692TIP3    H238568   3.538  -0.052   4.554 -0.4695 -0.0004 -0.1599
 5693TIP3   OH238569   2.022   4.924  13.328  1.0046  0.4101 -0.9902
 5693TIP3    H138570   2.027   4.836  13.366  0.5150  0.4199 -0.9040
 5693TIP3    H238571   2.046   4.911  13.236 -1.1020 -0.1825 -1.5208
 5694TIP3   OH238572   5.760   0.070   2.698 -0.5416 -0.1370 -0.7022
 5694TIP3    H138573   5.735   0.157   2.667 -1.6811 -0.6636 -1.3102
 5694TIP3    H238574   5.692   0.011   2.664 -0.4420 -1.1035  0.6757
 5695TIP3   OH238575   3.527   2.744  12.075  0.3906 -0.1704 -0.0608
 5695TIP3    H138576   3.537   2.797  11.996 -0.0892  0.7030  0.4461
 5695TIP3    H238577   3.474   2.798  12.133 -1.4567 -1.8467 -0.1024
 5696TIP3   OH238578   0.541   2.305   4.703  0.2074 -0.0424 -0.4508
 5696TIP3    H138579   0.628   2.277   4.732 -0.8377 -0.6469  2.4143
 5696TIP3    H238580   0.490   2.311   4.783 -2.5690 -0.2329 -2.0881
 5697TIP3   OH238581   2.837   3.709   5.738 -0.1980  0.3047 -0.1584
 5697TIP3    H138582   2.922   3.668   5.726 -0.2381  0.0777  0.3178
 5697TIP3    H238583   2.774   3.644   5.708 -0.2282  0.2828 -0.0476
 5698TIP3   OH238584   6.462   1.301   4.347 -0.0221  0.3676 -0.1357
 5698TIP3    H138585   6.507   1.354   4.282  1.8687 -0.6239  0.2762
 5698TIP3    H238586   6.482   1.210   4.321  0.8061 -0.0499  1.7772
 5699TIP3   OH238587   6.691   5.250  13.863  0.0806  0.1950  0.2469
 5699TIP3    H138588   6.743   5.170  13.854  1.1150  0.9870 -1.4334
 5699TIP3    H238589   6.672   5.256  13.957  0.9720 -1.3863  0.5678
 5700TIP3   OH238590   1.842   4.385  13.707 -1.0684  0.0065  0.2181
 5700TIP3    H138591   1.828   4.311  13.765 -2.0991 -0.6058 -0.7695
 5700TIP3    H238592   1.754   4.411  13.678 -0.7110  1.4297  0.3016
 5701TIP3   OH238593   4.053   6.411   3.621 -0.0130 -0.2281 -0.0085
 5701TIP3    H138594   4.129   6.462   3.592  0.8938 -1.1322  0.7290
 5701TIP3    H238595   4.015   6.378   3.540  1.0425 -0.6761 -0.3429
 5702TIP3   OH238596   0.067   3.356   0.197  0.1374  0.0608  0.4616
 5702TIP3    H138597  -0.027   3.373   0.197  0.1696  0.2381 -0.3752
 5702TIP3    H238598   0.077   3.277   0.145  0.3750 -0.4330  1.2396
 5703TIP3   OH238599   3.463   2.324  13.810  0.4083  0.1192 -0.8696
 5703TIP3    H138600   3.499   2.236  13.798  1.4261  0.6444 -1.9915
 5703TIP3    H238601   3.488   2.350  13.898 -0.4509 -0.9471 -0.3012
 5704TIP3   OH238602   2.353   6.116   3.600 -0.7236 -0.3616 -0.1952
 5704TIP3    H138603   2.338   6.052   3.530 -0.6657  0.3088 -0.8272
 5704TIP3    H238604   2.427   6.168   3.570  1.6312 -2.2468  1.9313
 5705TIP3   OH238605   2.070   1.246  13.217 -0.1255  0.3151  0.1604
 5705TIP3    H138606   2.063   1.157  13.252  0.4005  0.5754  0.9515
 5705TIP3    H238607   2.150   1.281  13.257 -1.3015  1.7894  1.3550
 5706TIP3   OH238608   0.919   6.433   0.065  0.2980 -0.3473  0.5827
 5706TIP3    H138609   0.912   6.495   0.137  0.4370  1.2808 -0.7483
 5706TIP3    H238610   0.870   6.356   0.095 -0.7533  0.7732  1.8783
 5707TIP3   OH238611   4.106   3.354  16.461  0.3173  0.1298 -0.3389
 5707TIP3    H138612   4.190   3.354  16.506 -0.4635 -1.2283  1.2536
 5707TIP3    H238613   4.042   3.375  16.530 -0.8078 -0.7083 -1.0805
 5708TIP3   OH238614   1.060   5.667  12.996 -1.0812  0.0217  0.3571
 5708TIP3    H138615   0.977   5.645  12.953 -0.8803 -0.4532  0.2137
 5708TIP3    H238616   1.110   5.715  12.930 -0.8535 -0.5323  0.1285
 5709TIP3   OH238617   4.655   1.782  15.873 -0.0842 -0.3847 -0.8782
 5709TIP3    H138618   4.737   1.830  15.882 -0.8656  0.7218  0.9680
 5709TIP3    H238619   4.670   1.700  15.920 -0.5264  0.5415  0.9550
 5710TIP3   OH238620   6.066   3.428  10.919  0.2221  0.7673 -0.3839
 5710TIP3    H138621   6.076   3.482  10.997  0.3681  1.2521 -0.7381
 5710TIP3    H238622   6.048   3.490  10.848 -0.9405  0.2592 -0.5576
 5711TIP3   OH238623   6.423   2.147  12.414  0.0930  0.7300 -0.4005
 5711TIP3    H138624   6.364   2.108  12.478  0.3890  2.1428  0.7698
 5711TIP3    H238625   6.433   2.079  12.347  0.1622 -0.9794  1.2605
 5712TIP3   OH238626   0.259   2.574   3.854  0.3000 -0.2121 -0.2894
 5712TIP3    H138627   0.174   2.606   3.884  1.2893  0.9097  1.5134
 5712TIP3    H238628   0.255   2.479   3.870  0.7076  0.2438  3.7611
 5713TIP3   OH238629   0.121   5.534  10.425  0.5657 -0.0048  0.2734
 5713TIP3    H138630   0.125   5.462  10.488  1.2409  0.0659  0.3162
 5713TIP3    H238631   0.211   5.548  10.398  0.3045  0.0554 -0.6186
 5714TIP3   OH238632   0.732   2.196  16.548 -0.2968 -0.1548 -0.0180
 5714TIP3    H138633   0.655   2.198  16.605  1.1672 -0.1245  2.0809
 5714TIP3    H238634   0.782   2.119  16.577  0.7452  0.1387 -0.9430
 5715TIP3   OH238635   3.097   5.797  11.247 -0.2904 -0.1061  1.0289
 5715TIP3    H138636   3.158   5.735  11.287  0.7743 -0.3376 -0.8185
 5715TIP3    H238637   3.120   5.796  11.154 -0.7453  2.4874  0.8182
 5716TIP3   OH238638   6.152   5.265   1.775 -0.8112  0.1722  0.4891
 5716TIP3    H138639   6.083   5.239   1.837 -0.2979  1.0242  1.4420
 5716TIP3    H238640   6.118   5.344   1.733 -0.9047 -0.0681  0.1083
 5717TIP3   OH238641   3.195   6.464  15.379  0.2944 -0.2345  0.1184
 5717TIP3    H138642   3.107   6.429  15.364  0.9155 -1.3894 -1.0614
 5717TIP3    H238643   3.213   6.516  15.301  0.5516  0.2595  0.5011
 5718TIP3   OH238644   4.354   3.357  13.905  0.5379  0.5515  0.0465
 5718TIP3    H138645   4.315   3.436  13.943  1.9759  1.0161  0.6160
 5718TIP3    H238646   4.395   3.313  13.979 -0.0370 -0.6353 -0.3086
 5719TIP3   OH238647   4.338   4.353   1.344  0.1542 -0.2332 -0.0372
 5719TIP3    H138648   4.332   4.414   1.417 -0.5848 -0.6874  0.2935
 5719TIP3    H238649   4.248   4.346   1.312  0.4681 -0.0317 -1.0006
 5720TIP3   OH238650   4.164   2.141   4.236  0.0277  0.2263  0.1009
 5720TIP3    H138651   4.084   2.114   4.281  0.3602 -1.9003 -0.4799
 5720TIP3    H238652   4.135   2.208   4.174 -0.9557  0.8758  1.2193
 5721TIP3   OH238653   0.340   0.843  16.486  0.0948  0.2971  0.0903
 5721TIP3    H138654   0.320   0.902  16.559 -0.0914  1.0310 -0.5499
 5721TIP3    H238655   0.269   0.778  16.489 -1.1081  1.5172 -0.6991
 5722TIP3   OH238656   5.421   6.378   2.165 -0.6179  0.1350  0.1002
 5722TIP3    H138657   5.505   6.416   2.191 -1.1725  0.9142  0.7821
 5722TIP3    H238658   5.356   6.445   2.187 -1.3136  0.0185 -1.4908
 5723TIP3   OH238659   5.740   5.678   1.314 -0.2441  0.3840  0.0972
 5723TIP3    H138660   5.717   5.727   1.393 -1.6168  1.8518 -1.1336
 5723TIP3    H238661   5.658   5.673   1.265  0.4216 -1.0944 -0.9293
 5724TIP3   OH238662   6.653   1.460   5.972 -0.5443 -0.1906 -0.7435
 5724TIP3    H138663   6.669   1.476   5.879 -0.4506  0.8193 -0.5705
 5724TIP3    H238664   6.633   1.547   6.007  2.2122 -0.0381  0.7207
 5725TIP3   OH238665   3.490   6.773  12.235 -0.2891  0.0088 -0.4488
 5725TIP3    H138666   3.548   6.848  12.223  0.3844 -0.5529 -0.7711
 5725TIP3    H238667   3.527   6.726  12.309 -0.6466 -0.0684 -0.3170
 5726TIP3   OH238668   1.146   6.207   4.166  0.2997 -0.1425  0.2595
 5726TIP3    H138669   1.060   6.187   4.128  0.1448 -0.5878  0.8262
 5726TIP3    H238670   1.206   6.206   4.091 -0.2206  0.3873 -0.1719
 5727TIP3   OH238671   6.195   3.660  16.717 -0.3027  0.2665  0.6014
 5727TIP3    H138672   6.289   3.646  16.718 -0.4167 -0.5813  0.3706
 5727TIP3    H238673   6.172   3.674  16.809 -0.1947 -1.3711  0.9070
 5728TIP3   OH238674   0.346   2.349  15.685 -0.4180 -1.0313  0.5548
 5728TIP3    H138675   0.416   2.289  15.711  0.2429 -0.0357  1.1464
 5728TIP3    H238676   0.328   2.400  15.764 -0.5519 -0.0504 -0.0959
 5729TIP3   OH238677   5.896   1.765  15.516  0.2399 -0.1586  0.1392
 5729TIP3    H138678   5.845   1.684  15.513  0.1988 -0.1271 -0.0460
 5729TIP3    H238679   5.984   1.736  15.538  0.4731 -0.3775 -1.0362
 5730TIP3   OH238680   5.236   0.641   5.384 -0.2403  0.3544 -0.2915
 5730TIP3    H138681   5.273   0.586   5.315 -0.3186  0.0613 -0.1023
 5730TIP3    H238682   5.193   0.713   5.338 -0.7061 -0.0962 -0.5690
 5731TIP3   OH238683   6.597   2.473   3.684  0.2119 -0.0184 -0.1873
 5731TIP3    H138684   6.524   2.445   3.629  0.4876 -0.8928 -0.1208
 5731TIP3    H238685   6.557   2.496   3.768 -0.0480  0.0436 -0.3279
 5732TIP3   OH238686   0.496   4.313  11.994 -0.4293  0.1255  0.4333
 5732TIP3    H138687   0.579   4.302  12.040 -0.7213 -0.6515  0.7899
 5732TIP3    H238688   0.490   4.407  11.977 -0.7834  0.6118  2.8884
 5733TIP3   OH238689   3.283   5.439   5.845 -0.2847  0.0641 -0.4379
 5733TIP3    H138690   3.349   5.508   5.859  0.1210 -0.0673 -1.6067
 5733TIP3    H238691   3.298   5.378   5.917 -0.6974  1.2159  0.6639
 5734TIP3   OH238692   3.413   4.418   1.876 -0.1069 -0.3279  0.2691
 5734TIP3    H138693   3.451   4.341   1.918  0.2391  0.1669  0.8840
 5734TIP3    H238694   3.372   4.467   1.948 -1.0799 -0.3673 -0.2382
 5735TIP3   OH238695   2.734   5.378  11.925 -0.3959 -0.0906  0.1773
 5735TIP3    H138696   2.740   5.287  11.896  0.4833  0.1026 -0.2735
 5735TIP3    H238697   2.671   5.418  11.865 -1.4792 -0.6004  0.9356
 5736TIP3   OH238698   6.322   2.222   5.256  0.3616 -0.6096 -0.4817
 5736TIP3    H138699   6.404   2.200   5.299  0.9111  0.1004 -1.1552
 5736TIP3    H238700   6.298   2.143   5.208  0.6786 -0.7917 -0.3392
 5737TIP3   OH238701   3.334   1.432  17.045 -0.1722  0.2981  0.2701
 5737TIP3    H138702   3.317   1.370  16.974  0.8231  2.0384 -1.5737
 5737TIP3    H238703   3.266   1.414  17.109  0.5594 -3.2673  0.2709
 5738TIP3   OH238704   3.772   3.883   1.548  0.1515 -0.3306 -0.2880
 5738TIP3    H138705   3.677   3.874   1.552  0.1040  0.5012  1.0413
 5738TIP3    H238706   3.789   3.974   1.572  1.1667  0.2518 -2.8671
 5739TIP3   OH238707   2.678   1.004  16.218 -0.2915 -0.5175  0.5101
 5739TIP3    H138708   2.672   1.008  16.122  1.0225 -2.9435  0.2412
 5739TIP3    H238709   2.733   1.078  16.242 -1.9645  1.1059 -0.3819
 5740TIP3   OH238710   1.553   4.599  15.142 -0.1570 -0.2359  0.3350
 5740TIP3    H138711   1.616   4.536  15.178 -0.1773 -1.0306 -0.9528
 5740TIP3    H238712   1.542   4.572  15.050  1.3541  2.8225 -0.8782
 5741TIP3   OH238713   0.939   0.646   1.046  0.4419  0.5070 -0.3157
 5741TIP3    H138714   0.940   0.581   0.976 -0.4225  0.9988 -0.7976
 5741TIP3    H238715   0.848   0.675   1.051  0.5665  0.7696  0.7457
 5742TIP3   OH238716   4.990   5.924  16.310 -0.1502 -0.6821 -0.1112
 5742TIP3    H138717   4.984   6.019  16.316  1.7658 -0.5939  2.2647
 5742TIP3    H238718   4.938   5.892  16.384  1.2813 -1.3102  0.6575
 5743TIP3   OH238719   6.694   5.750  10.783  0.2531 -0.6038  0.8214
 5743TIP3    H138720   6.654   5.671  10.820  0.9712 -0.7244  1.3667
 5743TIP3    H238721   6.788   5.738  10.796  0.3291  0.7732  1.8201
 5744TIP3   OH238722   1.893   4.490   4.452 -0.0942  0.0546 -0.2954
 5744TIP3    H138723   1.830   4.510   4.520 -1.4073 -0.0068 -1.4344
 5744TIP3    H238724   1.854   4.416   4.405  2.0554 -1.7045  0.5120
 5745TIP3   OH238725   4.045   3.660   4.677  0.0290 -0.0116  0.0327
 5745TIP3    H138726   4.015   3.570   4.666  1.3504 -0.2109 -2.7419
 5745TIP3    H238727   4.140   3.653   4.680  0.2001  1.3242 -1.1033
 5746TIP3   OH238728   1.797   5.052   5.583  0.4787  0.3501  1.0076
 5746TIP3    H138729   1.717   5.029   5.535  0.9407 -0.8327  0.7605
 5746TIP3    H238730   1.778   5.028   5.673  1.0059 -1.2446  0.7290
 5747TIP3   OH238731   5.834   1.448  16.722  0.8176 -0.3390 -0.1297
 5747TIP3    H138732   5.818   1.471  16.631  0.1507 -1.0495 -0.1969
 5747TIP3    H238733   5.767   1.497  16.771  4.3243  4.4986  0.6378
 5748TIP3   OH238734   5.828   4.620  12.876 -0.4130  0.4347 -0.8872
 5748TIP3    H138735   5.919   4.602  12.851  0.1276  1.8111 -0.0227
 5748TIP3    H238736   5.829   4.710  12.907 -1.5562 -0.2800  1.4790
 5749TIP3   OH238737   3.422   2.053   2.147  0.4229 -0.5825  0.4463
 5749TIP3    H138738   3.450   2.093   2.064  0.2106  1.0451  1.1239
 5749TIP3    H238739   3.478   2.093   2.213 -0.3953 -0.7623  1.2686
 5750TIP3   OH238740   5.881   1.364   1.534 -0.1568  0.1178 -0.4507
 5750TIP3    H138741   5.948   1.298   1.513 -0.0812 -0.1199  0.4765
 5750TIP3    H238742   5.931   1.437   1.570 -0.4147 -0.3134  0.8554
 5751TIP3   OH238743   3.199   1.788  11.443 -0.0284  0.3255 -1.0143
 5751TIP3    H138744   3.150   1.859  11.401  2.0654  2.2583 -0.4240
 5751TIP3    H238745   3.184   1.801  11.537  0.0239 -0.2696 -0.9240
 5752TIP3   OH238746   3.853   3.013  10.619 -0.1339 -0.2312  0.0363
 5752TIP3    H138747   3.948   2.999  10.624 -0.2527 -0.5399  2.0233
 5752TIP3    H238748   3.844   3.107  10.602  0.5092 -0.2889 -0.7229
 5753TIP3   OH238749   3.243   2.836   4.274 -0.2501  1.1569  0.5801
 5753TIP3    H138750   3.217   2.901   4.339 -0.9681  1.4736 -0.0047
 5753TIP3    H238751   3.178   2.766   4.282  0.1142  0.8365  0.7350
 5754TIP3   OH238752   1.881   0.156   0.561  0.8533  0.8629  0.5184
 5754TIP3    H138753   1.975   0.140   0.552  0.9511  0.8779  1.4354
 5754TIP3    H238754   1.866   0.160   0.656 -0.2653 -0.2637  0.4198
 5755TIP3   OH238755   5.884   1.119   5.666 -0.0905  0.0245  0.1657
 5755TIP3    H138756   5.925   1.039   5.632 -0.7289 -0.8572  1.3953
 5755TIP3    H238757   5.833   1.089   5.741 -0.7241  1.5324  0.3578
 5756TIP3   OH238758   6.327   6.698  13.217  0.0385 -0.3956  0.1145
 5756TIP3    H138759   6.338   6.641  13.293  2.3527  0.3114  0.3938
 5756TIP3    H238760   6.377   6.656  13.148  0.2425  0.3511 -0.2017
 5757TIP3   OH238761   0.598   1.737   2.984  1.0511  0.3871  0.2669
 5757TIP3    H138762   0.555   1.787   2.915  0.5825  0.5830  0.6945
 5757TIP3    H238763   0.679   1.784   3.001  1.5448 -0.1013 -0.6896
 5758TIP3   OH238764   6.580   1.582   3.235  0.1608  0.1472  0.0691
 5758TIP3    H138765   6.584   1.490   3.210 -0.9371 -0.1764  1.0234
 5758TIP3    H238766   6.616   1.584   3.324 -1.3466  0.3531  0.7048
 5759TIP3   OH238767   4.707   4.822  14.440 -0.2045  0.3744 -0.6023
 5759TIP3    H138768   4.622   4.862  14.457  0.9292  3.1788 -1.0150
 5759TIP3    H238769   4.767   4.896  14.430  1.8988 -1.4209 -2.4623
 5760TIP3   OH238770   3.278   2.873  12.778 -0.2755 -0.0096 -0.1025
 5760TIP3    H138771   3.284   2.853  12.685  2.0840  0.2564 -0.0653
 5760TIP3    H238772   3.323   2.800  12.821 -1.3951 -0.1594  0.8451
 5761TIP3   OH238773   5.188   3.465   2.942  0.2482  0.2574 -0.0553
 5761TIP3    H138774   5.267   3.501   2.983  0.8491  1.1469 -1.9145
 5761TIP3    H238775   5.163   3.393   3.000  2.3403  0.0168  0.6498
 5762TIP3   OH238776   0.478   5.764  12.285 -0.2577  0.2860 -0.2500
 5762TIP3    H138777   0.506   5.835  12.342  0.4268  0.6412 -1.0194
 5762TIP3    H238778   0.400   5.797  12.241 -0.4223  0.2415  0.0026
 5763TIP3   OH238779   1.077   3.475  16.739 -0.3263 -0.3737  0.1350
 5763TIP3    H138780   1.029   3.411  16.791 -0.0326 -0.8731 -0.1974
 5763TIP3    H238781   1.031   3.557  16.754 -2.4733 -1.1551 -1.6386
 5764TIP3   OH238782   0.759   6.220   2.556  0.6105 -0.0900  0.1325
 5764TIP3    H138783   0.792   6.229   2.645  0.7230 -0.9151  0.1832
 5764TIP3    H238784   0.732   6.128   2.549  2.7415 -0.6927 -1.3846
 5765TIP3   OH238785   5.898   4.095   2.649 -0.4785 -0.7011  0.2923
 5765TIP3    H138786   5.869   4.150   2.576 -0.9547 -0.4678  0.6501
 5765TIP3    H238787   5.975   4.049   2.616  0.4255  0.7922  0.2421
 5766TIP3   OH238788   1.896   6.495   1.001 -0.4746  0.2835 -0.1784
 5766TIP3    H138789   1.842   6.546   0.940 -1.5545 -0.5136  0.0921
 5766TIP3    H238790   1.868   6.525   1.088 -1.5391 -1.1389  0.0057
 5767TIP3   OH238791   1.531   6.640   1.079  0.2437  0.2710  0.1127
 5767TIP3    H138792   1.554   6.717   1.130 -0.8613  0.0379  1.0010
 5767TIP3    H238793   1.507   6.574   1.144 -1.3466  0.0174 -0.6730
 5768TIP3   OH238794   4.715   6.278   3.669 -0.2027  0.1889  0.3905
 5768TIP3    H138795   4.705   6.183   3.680  0.7092  0.0238 -0.1131
 5768TIP3    H238796   4.733   6.311   3.757  0.6484 -0.2648  0.3940
 5769TIP3   OH238797   0.374   1.772  11.563  0.1589  0.0550  0.0373
 5769TIP3    H138798   0.291   1.815  11.543  0.1944 -0.1776 -0.6177
 5769TIP3    H238799   0.406   1.818  11.641  0.4771  1.6193 -0.9685
 5770TIP3   OH238800   3.089   0.566   0.815  0.6141  0.7567 -0.2124
 5770TIP3    H138801   3.114   0.577   0.724  1.2067  0.3020 -0.1063
 5770TIP3    H238802   3.071   0.655   0.846  2.7395  1.1956 -0.1085
 5771TIP3   OH238803   6.100   6.395   6.262 -0.0583  0.2795 -0.6486
 5771TIP3    H138804   6.174   6.395   6.202 -0.7813  0.1702 -1.5776
 5771TIP3    H238805   6.136   6.371   6.347  0.9173 -0.0085 -1.1402
 5772TIP3   OH238806   2.171   1.026   3.293  0.0442 -0.3537 -0.0948
 5772TIP3    H138807   2.168   0.931   3.280 -1.3953 -0.1596 -1.3982
 5772TIP3    H238808   2.263   1.049   3.280  0.1455 -1.3862 -1.3517
 5773TIP3   OH238809   0.727   5.122  14.598 -0.4857  0.1529  0.0252
 5773TIP3    H138810   0.707   5.211  14.627 -2.5470  0.4355 -1.9526
 5773TIP3    H238811   0.711   5.068  14.676  0.6612  1.4435  1.2188
 5774TIP3   OH238812   1.835   1.790   1.628 -0.2312 -0.0964 -0.1082
 5774TIP3    H138813   1.928   1.811   1.638  0.0294 -1.4403  0.4441
 5774TIP3    H238814   1.795   1.874   1.605  0.8723  0.8439  1.1898
 5775TIP3   OH238815   1.126   0.555  11.074  0.1822  0.3850  0.2596
 5775TIP3    H138816   1.058   0.575  11.137 -0.5887 -0.5291 -0.2532
 5775TIP3    H238817   1.172   0.638  11.061 -0.2776  0.8184  1.2480
 5776TIP3   OH238818   4.890   5.352  13.784  0.1065 -0.0740  0.4679
 5776TIP3    H138819   4.870   5.271  13.737  1.3114 -1.2306  1.8650
 5776TIP3    H238820   4.836   5.418  13.741 -0.0727 -1.3807 -1.4578
 5777TIP3   OH238821   6.004   4.387   4.093  0.5813 -0.0716 -0.4967
 5777TIP3    H138822   5.980   4.464   4.144 -1.8727 -0.6797 -0.6067
 5777TIP3    H238823   5.942   4.387   4.019 -0.6913 -3.0401  0.4199
 5778TIP3   OH238824   5.263   6.735  12.468 -0.5433  0.3757 -0.1313
 5778TIP3    H138825   5.267   6.679  12.545  0.4105 -0.7871 -0.9801
 5778TIP3    H238826   5.218   6.683  12.402 -0.8465  1.1356 -0.5414
 5779TIP3   OH238827   6.426   0.192   2.722  0.1852 -0.2735 -0.1245
 5779TIP3    H138828   6.409   0.201   2.816 -0.6802 -0.1359 -0.2863
 5779TIP3    H238829   6.410   0.100   2.704  0.6507 -0.3660 -0.0878
 5780TIP3   OH238830   1.395   5.462   5.716 -0.1055  0.3552  0.8531
 5780TIP3    H138831   1.375   5.553   5.737  0.8175  1.3204 -1.9849
 5780TIP3    H238832   1.427   5.464   5.626 -0.1672 -2.8206  0.6252
 5781TIP3   OH238833   0.654   1.934  16.426 -0.2144  0.4884  0.3068
 5781TIP3    H138834   0.732   1.946  16.480 -0.6176  2.4633  0.5122
 5781TIP3    H238835   0.629   1.842  16.441  2.2495 -0.3183 -0.0737
 5782TIP3   OH238836   0.111   1.053   3.550 -0.3461 -0.6552 -0.3669
 5782TIP3    H138837   0.034   1.102   3.520  0.5923  1.1387 -0.0279
 5782TIP3    H238838   0.080   1.000   3.622 -1.2169  0.3373  0.0172
 5783TIP3   OH238839   3.670   1.903  12.872  0.2896 -0.8224  0.4999
 5783TIP3    H138840   3.755   1.906  12.828 -0.4839 -2.5793 -1.2660
 5783TIP3    H238841   3.640   1.813  12.860 -2.2856  0.0042  0.1464
 5784TIP3   OH238842   4.259   0.626  14.901 -0.2380  0.0497  0.3803
 5784TIP3    H138843   4.314   0.640  14.824 -1.7466 -1.1001 -0.9758
 5784TIP3    H238844   4.288   0.541  14.935  1.0126  0.9375  1.6635
 5785TIP3   OH238845   0.408   2.593  14.163  0.6364  0.1748  0.3294
 5785TIP3    H138846   0.498   2.624  14.157  1.0722 -1.0319  0.3384
 5785TIP3    H238847   0.356   2.672  14.176  1.8384  0.7543  1.8974
 5786TIP3   OH238848   1.165   2.145  11.532 -0.3105 -0.2602 -0.3226
 5786TIP3    H138849   1.240   2.112  11.582  0.1868 -0.3955 -1.1309
 5786TIP3    H238850   1.189   2.130  11.441 -1.3098 -0.2649 -0.5999
 5787TIP3   OH238851   2.622   2.363   6.286  0.7138  0.2381  0.2627
 5787TIP3    H138852   2.550   2.425   6.270  0.8014  0.2404 -0.1249
 5787TIP3    H238853   2.611   2.337   6.377  0.3888  0.4581  0.2880
 5788TIP3   OH238854   2.433   2.599  13.702 -0.3767 -0.1186  0.5283
 5788TIP3    H138855   2.404   2.676  13.750 -2.4650 -0.5634  0.0463
 5788TIP3    H238856   2.503   2.631  13.645 -0.9648  1.3399  0.5903
 5789TIP3   OH238857   2.429   5.698   4.960 -0.2308  0.2436  0.6241
 5789TIP3    H138858   2.498   5.764   4.954 -0.6289  0.5290 -2.3187
 5789TIP3    H238859   2.359   5.731   4.903 -2.0949 -0.8775  2.1277
 5790TIP3   OH238860   1.681   1.123  10.591 -0.0566  0.2401 -0.0999
 5790TIP3    H138861   1.736   1.050  10.620  0.2747  0.5770  0.1320
 5790TIP3    H238862   1.699   1.193  10.653 -1.4703  0.0514  0.5486
 5791TIP3   OH238863   5.433   2.449  15.415  0.4291  0.5917 -0.1548
 5791TIP3    H138864   5.420   2.497  15.496 -1.4909 -2.1422  1.3164
 5791TIP3    H238865   5.367   2.485  15.356 -2.1159 -1.1268  1.4574
 5792TIP3   OH238866   4.828   0.845   2.294 -0.0050 -0.0777  0.3603
 5792TIP3    H138867   4.855   0.763   2.335 -1.3642 -0.1832  1.0886
 5792TIP3    H238868   4.793   0.819   2.209  0.9710 -0.0668 -0.0629
 5793TIP3   OH238869   2.566   2.225  15.196 -0.6594  0.0562  0.0632
 5793TIP3    H138870   2.605   2.139  15.210 -0.8862 -0.1470 -0.5434
 5793TIP3    H238871   2.493   2.210  15.136 -0.0454  0.8208 -0.9121
 5794TIP3   OH238872   4.452   1.658  12.613 -0.3054 -0.5621 -0.1883
 5794TIP3    H138873   4.414   1.600  12.679 -1.4284 -0.9861 -1.1926
 5794TIP3    H238874   4.492   1.599  12.549 -1.0595 -0.2213 -0.9785
 5795TIP3   OH238875   1.355   5.732  10.318  0.5697  0.0612 -0.2836
 5795TIP3    H138876   1.302   5.811  10.333  0.5862  0.0648 -0.2444
 5795TIP3    H238877   1.316   5.692  10.240  0.4811  0.0399 -0.2283
 5796TIP3   OH238878   5.532   1.677   2.923  0.9089  0.5243 -0.5134
 5796TIP3    H138879   5.493   1.678   3.011  1.0126 -0.3496 -0.4496
 5796TIP3    H238880   5.470   1.726   2.869  0.4463  0.3807 -0.1218
 5797TIP3   OH238881   1.598   5.982   5.990 -0.0405 -0.3205  0.3756
 5797TIP3    H138882   1.520   6.030   5.962 -0.9074 -0.8133  1.8521
 5797TIP3    H238883   1.582   5.961   6.082  0.8926 -2.2614  0.1521
 5798TIP3   OH238884   5.647   2.553  14.632  0.0444  0.4829 -0.4094
 5798TIP3    H138885   5.678   2.591  14.550 -0.3685 -0.6186 -1.1047
 5798TIP3    H238886   5.556   2.581  14.639 -0.0937  0.1100 -0.6405
 5799TIP3   OH238887   5.033   0.549  12.570 -0.1906 -0.0483 -0.1264
 5799TIP3    H138888   5.097   0.516  12.633  0.1725  0.5065 -0.1960
 5799TIP3    H238889   5.029   0.643  12.588 -1.9534 -0.2370  0.7654
 5800TIP3   OH238890   5.917   5.921   1.130 -0.4515 -0.2440 -0.7562
 5800TIP3    H138891   5.882   5.999   1.174  0.8033  0.1595 -0.4129
 5800TIP3    H238892   5.872   5.848   1.172 -0.7779  0.2463 -0.2317
 5801TIP3   OH238893   0.251   2.529   2.891 -0.2539 -0.2075 -0.4511
 5801TIP3    H138894   0.307   2.573   2.828  0.2833 -0.6279 -0.2843
 5801TIP3    H238895   0.193   2.474   2.838  0.0078 -0.3510 -0.5882
 5802TIP3   OH238896   6.477   5.884  13.570  0.3339  0.0267 -0.0588
 5802TIP3    H138897   6.490   5.807  13.626  0.1835 -0.4742 -0.7024
 5802TIP3    H238898   6.547   5.878  13.506  3.3488  2.9761  2.5728
 5803TIP3   OH238899   4.638   2.839   2.083 -0.0249 -0.1774  0.4077
 5803TIP3    H138900   4.590   2.769   2.039  2.2567 -0.8257 -1.2247
 5803TIP3    H238901   4.602   2.920   2.046  1.1591 -0.6822 -2.0776
 5804TIP3   OH238902   1.902   3.611   2.778  0.8546  0.4668  0.5358
 5804TIP3    H138903   1.946   3.541   2.825 -0.8243  0.2518  1.8657
 5804TIP3    H238904   1.825   3.632   2.831  0.0460  1.7089 -1.0221
 5805TIP3   OH238905   0.340   6.317   2.333 -0.3479 -0.1917  0.0380
 5805TIP3    H138906   0.266   6.283   2.283  0.0663 -1.4221  0.2202
 5805TIP3    H238907   0.394   6.240   2.350  1.8096  0.9136 -1.4613
 5806TIP3   OH238908   0.170   1.868   2.715  0.2119 -0.2180  0.2409
 5806TIP3    H138909   0.158   1.939   2.652  0.0104  0.0846  0.6166
 5806TIP3    H238910   0.081   1.844   2.742  0.3258  1.3329  2.2625
 5807TIP3   OH238911   4.882   0.423   0.967 -0.1170 -0.2535  0.5203
 5807TIP3    H138912   4.845   0.417   1.056 -0.3724  1.1983  0.5448
 5807TIP3    H238913   4.806   0.410   0.909 -0.1095 -0.3148  0.5240
 5808TIP3   OH238914   3.629   6.725  11.544  0.0832 -0.5215  0.4291
 5808TIP3    H138915   3.649   6.658  11.610 -1.4069 -1.1568  0.2711
 5808TIP3    H238916   3.560   6.778  11.584 -0.8935 -0.9635 -0.6263
 5809TIP3   OH238917   6.449   4.185  13.512  0.3090  0.6924  0.1592
 5809TIP3    H138918   6.524   4.244  13.511  0.0813  1.0077  0.9393
 5809TIP3    H238919   6.461   4.130  13.435  0.5789  1.6840 -0.5330
 5810TIP3   OH238920   4.197   3.243   3.226  0.5797  0.2680  0.2701
 5810TIP3    H138921   4.111   3.284   3.232 -1.2103 -2.5054 -2.9899
 5810TIP3    H238922   4.242   3.291   3.157  1.6008  1.4791  1.7200
 5811TIP3   OH238923   0.668   5.251   6.223 -0.1067  0.6705 -0.1811
 5811TIP3    H138924   0.679   5.161   6.195  0.6809  1.4916 -2.7736
 5811TIP3    H238925   0.599   5.286   6.167 -0.8084  1.5695  1.1595
 5812TIP3   OH238926   5.477   1.904   0.568 -0.5342  0.6486 -0.1851
 5812TIP3    H138927   5.558   1.894   0.618 -1.8655 -0.9356  1.8227
 5812TIP3    H238928   5.506   1.915   0.477  1.9239  1.1264  0.5719
 5813TIP3   OH238929   3.214   5.057  16.279 -0.5607  0.1585 -0.3901
 5813TIP3    H138930   3.236   4.968  16.307  0.3140 -0.3021 -2.3573
 5813TIP3    H238931   3.199   5.050  16.184  1.9260  2.4655 -1.1001
 5814TIP3   OH238932   3.483   0.108  15.005  0.2467 -0.2034 -0.3491
 5814TIP3    H138933   3.441   0.106  14.920 -1.1520  0.7373  0.2913
 5814TIP3    H238934   3.424   0.158  15.061  1.6510  0.1451  0.9087
 5815TIP3   OH238935   4.868   1.847   2.767  0.1051 -0.4980 -0.5136
 5815TIP3    H138936   4.777   1.830   2.745 -0.1223 -0.3297  0.2658
 5815TIP3    H238937   4.893   1.776   2.826  0.1724 -0.0013  0.0665
 5816TIP3   OH238938   1.258   3.694  16.086  0.0879  0.3130 -0.2190
 5816TIP3    H138939   1.307   3.616  16.061  1.6831  0.9460  0.7951
 5816TIP3    H238940   1.288   3.714  16.175  0.7697  2.8818 -0.9652
 5817TIP3   OH238941   4.840   1.599  13.332 -0.0848 -0.5672 -0.1262
 5817TIP3    H138942   4.840   1.591  13.427 -1.8724  0.4760  0.0034
 5817TIP3    H238943   4.932   1.592  13.308  0.8714  2.6357  2.0177
 5818TIP3   OH238944   2.587   2.799   3.388 -0.7371  0.5161 -0.0306
 5818TIP3    H138945   2.523   2.737   3.353  0.9887 -0.7510 -1.1597
 5818TIP3    H238946   2.583   2.874   3.329  0.4757 -0.6111 -1.6538
 5819TIP3   OH238947   5.565   4.010  11.178  0.2864 -0.1899  0.0153
 5819TIP3    H138948   5.605   4.096  11.189 -1.4435  0.6220  0.2145
 5819TIP3    H238949   5.532   4.010  11.088 -0.6969 -0.1881  0.3624
 5820TIP3   OH238950   1.768   2.865  15.594 -0.1511  0.1775 -0.3373
 5820TIP3    H138951   1.705   2.815  15.647  2.4685 -1.2543  1.6838
 5820TIP3    H238952   1.794   2.804  15.525 -0.9808  0.8047 -1.2298
 5821TIP3   OH238953   6.276   1.869   3.915  0.2324  0.1909 -0.2189
 5821TIP3    H138954   6.272   1.857   4.009 -0.0390 -0.4708 -0.3136
 5821TIP3    H238955   6.184   1.869   3.886  0.2374  1.6269 -0.3403
 5822TIP3   OH238956   6.812   6.082   4.198  0.1574 -0.3677 -0.6699
 5822TIP3    H138957   6.908   6.086   4.197  0.1264  1.0501 -0.4608
 5822TIP3    H238958   6.790   6.072   4.290  0.0984  0.5483 -0.5699
 5823TIP3   OH238959   1.604   0.271  13.288  0.3816 -0.3130  0.8399
 5823TIP3    H138960   1.602   0.266  13.192  0.1645 -0.4402  0.8506
 5823TIP3    H238961   1.525   0.319  13.311  0.3133 -0.4852  0.9664
 5824TIP3   OH238962   0.733   4.382  11.026 -0.7732  0.0549  0.2875
 5824TIP3    H138963   0.823   4.395  11.055 -0.3395  0.7516 -1.2391
 5824TIP3    H238964   0.680   4.440  11.081 -0.4226 -0.9038  1.6937
 5825TIP3   OH238965   0.665   6.181  14.707  0.3303  0.1181  0.5547
 5825TIP3    H138966   0.756   6.170  14.680  0.1549 -0.0465  0.0053
 5825TIP3    H238967   0.670   6.207  14.799  1.0533  2.5728 -0.0902
 5826TIP3   OH238968   0.285   0.513  13.423  0.0890 -0.0767  0.3909
 5826TIP3    H138969   0.365   0.461  13.431  1.4944  2.1062  1.5178
 5826TIP3    H238970   0.234   0.492  13.502  0.3130 -0.2179  0.4979
 5827TIP3   OH238971   1.790   3.939   4.376  0.3011  0.0019 -0.0242
 5827TIP3    H138972   1.783   3.881   4.452 -1.2560  1.2195  0.8129
 5827TIP3    H238973   1.776   3.881   4.301  2.4357 -1.3290  0.5072
 5828TIP3   OH238974   2.553   6.385  10.954  0.5042  0.0202  0.0866
 5828TIP3    H138975   2.561   6.290  10.959  1.7841 -0.0058 -1.4851
 5828TIP3    H238976   2.639   6.418  10.980  0.5094  0.6565 -0.6708
 5829TIP3   OH238977   5.655   3.770   3.302 -0.2559  0.6819 -0.2427
 5829TIP3    H138978   5.659   3.732   3.389 -0.3126 -0.9814 -0.9170
 5829TIP3    H238979   5.687   3.701   3.244 -1.4938  1.2284 -1.6741
 5830TIP3   OH238980   0.938   3.175  13.111 -0.6168 -0.1142 -0.3175
 5830TIP3    H138981   0.865   3.122  13.077 -1.1386  0.5849 -0.3109
 5830TIP3    H238982   0.919   3.184  13.205  0.7812 -1.9812  0.2142
 5831TIP3   OH238983   1.636   1.009  17.208  0.6103  0.4504  0.3950
 5831TIP3    H138984   1.585   0.999  17.127  0.1769  0.7609  0.6222
 5831TIP3    H238985   1.724   1.030  17.179  0.9672 -1.4819 -0.0466
 5832TIP3   OH238986   5.595   1.077  15.557 -0.5644 -0.6543  0.4688
 5832TIP3    H138987   5.610   1.172  15.560  0.6092 -0.8145  0.3510
 5832TIP3    H238988   5.672   1.043  15.510 -0.2114 -1.8107  1.8283
 5833TIP3   OH238989   2.956   6.231  16.451 -0.1666 -0.3203 -0.5472
 5833TIP3    H138990   2.903   6.275  16.517 -1.1997  2.1489 -2.8591
 5833TIP3    H238991   2.922   6.262  16.368  1.1356 -3.2310 -2.3165
 5834TIP3   OH238992   6.656   5.558  10.480  0.0459  0.0184 -0.1249
 5834TIP3    H138993   6.648   5.539  10.573  1.2295 -2.4973 -0.4665
 5834TIP3    H238994   6.749   5.553  10.461 -0.1177  0.9801 -1.3886
 5835TIP3   OH238995   0.837   5.412  15.390 -0.2484  0.1305  0.2781
 5835TIP3    H138996   0.833   5.494  15.438  0.1033  0.3305 -0.0311
 5835TIP3    H238997   0.749   5.375  15.398 -0.4500  0.6085  0.2882
 5836TIP3   OH238998   6.124   4.255  14.661 -0.5254 -0.0948 -0.1431
 5836TIP3    H138999   6.104   4.226  14.749  0.4110  1.1174  0.5029
 5836TIP3    H239000   6.218   4.242  14.651 -0.0670  2.4760  0.1572
 5837TIP3   OH239001   1.618   2.137   4.134 -0.0438 -0.4208  0.4865
 5837TIP3    H139002   1.662   2.116   4.051 -0.5322  0.2567  0.0385
 5837TIP3    H239003   1.540   2.082   4.135 -1.9790  2.0650 -1.2701
 5838TIP3   OH239004   3.838   6.058   0.808 -0.1514  0.2865  0.6378
 5838TIP3    H139005   3.770   6.116   0.772 -1.7873 -2.0774 -0.4074
 5838TIP3    H239006   3.808   6.039   0.897  0.1213  0.6684  0.8107
 5839TIP3   OH239007   1.878   4.682   3.125 -0.1068 -0.2929  0.2127
 5839TIP3    H139008   1.862   4.749   3.059  0.1855 -1.0387 -0.6372
 5839TIP3    H239009   1.890   4.601   3.075  1.0464 -0.7093  1.1057
 5840TIP3   OH239010   4.756   6.161  13.040  0.2096 -0.8129 -0.1637
 5840TIP3    H139011   4.671   6.202  13.056  1.2033  2.1748 -1.7667
 5840TIP3    H239012   4.792   6.209  12.966  1.6129 -4.7047 -2.2783
 5841TIP3   OH239013   0.699   5.331  11.513 -0.5960 -0.1052 -0.4927
 5841TIP3    H139014   0.757   5.407  11.521 -1.2342  0.3999 -0.5988
 5841TIP3    H239015   0.708   5.286  11.597 -1.7876  1.2422  0.4069
 5842TIP3   OH239016   0.684   5.807  16.299 -0.5274  0.0340 -0.7893
 5842TIP3    H139017   0.661   5.879  16.358 -0.4965 -0.5522 -0.0438
 5842TIP3    H239018   0.676   5.728  16.353  0.7190 -0.4120 -1.2287
 5843TIP3   OH239019   4.832   1.839  12.915 -0.5889  0.5167  0.0221
 5843TIP3    H139020   4.927   1.837  12.903 -0.8405  0.1399 -2.4882
 5843TIP3    H239021   4.814   1.926  12.948  0.4469  1.6144 -2.0995
 5844TIP3   OH239022   0.992   5.450   1.382  0.2335  0.2635  0.6190
 5844TIP3    H139023   0.965   5.401   1.460 -1.1907  0.9499  0.5936
 5844TIP3    H239024   0.971   5.392   1.309 -1.2407  0.7773  0.6018
 5845TIP3   OH239025   3.989   0.400   0.922 -0.2980  0.2739 -0.1754
 5845TIP3    H139026   3.986   0.322   0.978 -1.0875  0.2148 -0.2812
 5845TIP3    H239027   3.969   0.366   0.834  2.5747  0.0807 -0.8706
 5846TIP3   OH239028   5.022   5.504   3.264  0.5761 -0.1393 -0.1451
 5846TIP3    H139029   4.930   5.478   3.274  0.7884 -1.0707 -0.5410
 5846TIP3    H239030   5.062   5.483   3.349  0.4636  0.0942 -0.0338
 5847TIP3   OH239031   3.876   4.622  14.910 -0.0504 -0.3858  0.0384
 5847TIP3    H139032   3.807   4.556  14.896 -0.4815 -0.1957  1.1610
 5847TIP3    H239033   3.903   4.610  15.001  0.4205  0.4736  0.0232
 5848TIP3   OH239034   0.840   5.640  12.769 -0.2853 -0.0758  0.3600
 5848TIP3    H139035   0.898   5.565  12.751 -0.3628 -0.1591  0.4606
 5848TIP3    H239036   0.889   5.715  12.736  1.0049  0.1901  2.6619
 5849TIP3   OH239037   3.860   3.558   1.028 -0.1328 -0.5599 -0.1057
 5849TIP3    H139038   3.802   3.601   1.091  1.0608  1.2285 -0.1654
 5849TIP3    H239039   3.906   3.491   1.080  0.6505  0.7198  0.9158
 5850TIP3   OH239040   1.219   5.011   0.968  0.1104  0.0318  0.1258
 5850TIP3    H139041   1.183   4.989   1.054  0.5409 -1.0452  0.0497
 5850TIP3    H239042   1.164   4.963   0.906  1.3249 -1.2323 -0.0190
 5851TIP3   OH239043   5.654   6.027  12.620  0.3373  0.4520  0.5972
 5851TIP3    H139044   5.746   6.055  12.616  0.5251 -0.1797  0.4269
 5851TIP3    H239045   5.639   5.983  12.537  0.0794 -0.0555  0.9103
 5852TIP3   OH239046   2.416   3.462   5.884 -0.0436 -0.1734  0.3785
 5852TIP3    H139047   2.373   3.413   5.953 -0.8179  0.3276  0.2631
 5852TIP3    H239048   2.410   3.554   5.911 -0.4068  0.0343 -0.3678
 5853TIP3   OH239049   1.960   4.622   1.858  0.5009  0.3133  0.2588
 5853TIP3    H139050   1.868   4.646   1.868  1.0126  1.3988  3.7520
 5853TIP3    H239051   2.004   4.705   1.839  0.8692 -0.1040 -0.7924
 5854TIP3   OH239052   6.446   3.152   0.402 -0.0321 -0.1120  0.2925
 5854TIP3    H139053   6.374   3.096   0.371 -0.5265  0.6720 -0.0106
 5854TIP3    H239054   6.410   3.240   0.398  1.0306  0.3119 -0.0624
 5855TIP3   OH239055   1.262   0.733  14.779 -0.0629 -0.3170  0.2398
 5855TIP3    H139056   1.254   0.639  14.795 -0.6883 -0.3031  0.0321
 5855TIP3    H239057   1.181   0.757  14.735  0.0534  0.3415  0.3718
 5856TIP3   OH239058   2.727   4.274   2.449  0.4260  0.0112 -0.4508
 5856TIP3    H139059   2.726   4.354   2.396  2.2949 -0.9929 -2.1834
 5856TIP3    H239060   2.800   4.286   2.510 -0.6875  0.4891  0.8248
 5857TIP3   OH239061   1.157   4.865  14.649  0.0434  0.0472  0.1606
 5857TIP3    H139062   1.159   4.884  14.555  0.4755  0.5338  0.2617
 5857TIP3    H239063   1.108   4.938  14.687 -2.4836 -1.4704  0.0429
 5858TIP3   OH239064   2.548   5.576  13.732  0.0869  0.2505 -0.4330
 5858TIP3    H139065   2.590   5.607  13.652  0.4123  2.1303  0.4338
 5858TIP3    H239066   2.532   5.655  13.784 -0.1509 -0.9152  1.3579
 5859TIP3   OH239067   2.110   1.768  13.685 -0.2917  0.4790 -0.0889
 5859TIP3    H139068   2.176   1.711  13.723 -1.7448  0.4920  2.7982
 5859TIP3    H239069   2.126   1.854  13.724 -1.1736  0.8071 -0.4032
 5860TIP3   OH239070   1.314   0.104   1.431 -0.0895  0.4012 -0.4026
 5860TIP3    H139071   1.346   0.086   1.343 -1.1626  1.3716 -1.0222
 5860TIP3    H239072   1.219   0.111   1.422 -0.3618 -0.7820  1.0788
 5861TIP3   OH239073   2.941   4.788   4.854 -0.2975  0.6196 -0.0379
 5861TIP3    H139074   2.946   4.782   4.758 -1.0221  1.6100 -0.1634
 5861TIP3    H239075   2.909   4.877   4.870 -0.6181  0.3118  1.1087
 5862TIP3   OH239076   4.747   2.108  16.184  0.1904 -0.0830  0.2314
 5862TIP3    H139077   4.722   2.200  16.187  1.3158  0.3961 -2.3466
 5862TIP3    H239078   4.671   2.064  16.145 -0.0491 -0.1421  0.7529
 5863TIP3   OH239079   2.043   4.480  13.915  0.2213  0.3742  0.1496
 5863TIP3    H139080   1.994   4.449  13.838 -0.0870  1.2136  0.0002
 5863TIP3    H239081   2.135   4.470  13.890  0.1608 -1.5015  0.5490
 5864TIP3   OH239082   4.129   3.266  16.177 -0.0868 -0.2527 -0.1174
 5864TIP3    H139083   4.112   3.311  16.259 -0.3026 -0.2942 -0.1399
 5864TIP3    H239084   4.218   3.230  16.187  0.0764  0.1479 -0.0905
 5865TIP3   OH239085   6.675   1.752  11.021 -0.5969 -0.1837 -0.4864
 5865TIP3    H139086   6.686   1.679  10.960  1.3489 -0.4412  0.1258
 5865TIP3    H239087   6.658   1.828  10.965  1.7707 -0.2844 -1.4564
 5866TIP3   OH239088   6.616   1.142  14.014 -0.2411  0.2036 -0.1275
 5866TIP3    H139089   6.531   1.130  14.056  0.7058  0.5504  1.9955
 5866TIP3    H239090   6.637   1.057  13.977 -1.4333  0.0777 -0.5590
 5867TIP3   OH239091   3.019   0.870  12.073  0.1819  0.0971 -0.0206
 5867TIP3    H139092   3.087   0.889  12.008 -0.1407 -0.9932 -0.7021
 5867TIP3    H239093   2.946   0.927  12.049 -0.7164 -1.7591 -1.9332
 5868TIP3   OH239094   4.808   4.367   2.500 -0.7634 -0.2618 -0.3309
 5868TIP3    H139095   4.752   4.416   2.560  1.3503  0.8611  0.8749
 5868TIP3    H239096   4.786   4.401   2.413 -0.5088  1.7224  0.3182
 5869TIP3   OH239097   4.024   6.019  11.411  0.3843 -0.6863 -0.5350
 5869TIP3    H139098   4.024   6.044  11.318 -2.8055 -0.2357 -0.5326
 5869TIP3    H239099   3.959   5.948  11.416  0.9706 -1.1336  1.2614
 5870TIP3   OH239100   1.074   6.357  17.006 -0.3804 -0.1159 -0.1485
 5870TIP3    H139101   1.099   6.442  16.970 -1.6164 -0.2974 -1.5507
 5870TIP3    H239102   0.993   6.374  17.054  0.8219 -0.0332  1.9715
 5871TIP3   OH239103   6.505   4.945   1.819  0.4453 -0.6546  0.4839
 5871TIP3    H139104   6.438   4.910   1.877 -0.9218 -1.5391 -1.5165
 5871TIP3    H239105   6.457   4.991   1.750  1.8734 -1.1311 -0.9029
 5872TIP3   OH239106   4.599   2.234   4.394  0.2741  0.1166 -0.8048
 5872TIP3    H139107   4.584   2.310   4.337  0.6159 -0.0730 -1.1537
 5872TIP3    H239108   4.512   2.215   4.430 -0.0267  0.0296 -1.5403
 5873TIP3   OH239109   1.712   4.945  16.843  0.2454 -0.4656 -0.1295
 5873TIP3    H139110   1.704   4.922  16.936 -0.8821 -0.3640 -0.1814
 5873TIP3    H239111   1.756   5.030  16.843 -0.3533 -0.1456  0.3551
 5874TIP3   OH239112   3.287   6.273   0.535  0.6988 -0.1915 -0.1096
 5874TIP3    H139113   3.212   6.250   0.590 -0.8427  1.3861 -1.3989
 5874TIP3    H239114   3.303   6.194   0.482 -0.9987 -0.1279 -0.7829
 5875TIP3   OH239115   5.861   2.626  15.545  0.2452 -0.3633 -0.7787
 5875TIP3    H139116   5.822   2.644  15.631 -0.2041 -0.3862 -0.9721
 5875TIP3    H239117   5.883   2.533  15.548 -0.7861 -0.6373 -1.0700
 5876TIP3   OH239118   1.891   3.217  12.189  0.6656  0.0221 -0.4128
 5876TIP3    H139119   1.950   3.272  12.239  1.7242 -0.6049 -0.9502
 5876TIP3    H239120   1.912   3.236  12.098  0.0445 -0.2127 -0.6103
 5877TIP3   OH239121   3.118   5.784   5.286 -0.0456 -0.2770  0.6397
 5877TIP3    H139122   3.101   5.701   5.241 -0.0006 -0.0964  0.2874
 5877TIP3    H239123   3.195   5.820   5.241 -0.0044 -0.0927  0.8579
 5878TIP3   OH239124   4.173   0.475  12.012  0.1678 -0.5258 -0.6102
 5878TIP3    H139125   4.250   0.513  12.055  0.2549  1.0258 -2.0311
 5878TIP3    H239126   4.208   0.425  11.939 -0.1689  0.9768 -1.8448
 5879TIP3   OH239127   4.951   5.217  14.896  0.4435  0.1710 -0.3129
 5879TIP3    H139128   4.934   5.309  14.873 -1.0494 -0.2000 -0.8485
 5879TIP3    H239129   4.935   5.169  14.815 -3.1369 -0.9907  0.8499
 5880TIP3   OH239130   1.477   1.439   6.639 -0.0158 -0.0902  0.0685
 5880TIP3    H139131   1.505   1.372   6.576  0.5376 -0.9767  1.2232
 5880TIP3    H239132   1.402   1.400   6.684  0.7225 -0.2379  1.2170
 5881TIP3   OH239133   0.217   4.959  14.565 -0.2756 -0.1651  0.0317
 5881TIP3    H139134   0.294   4.989  14.516 -0.0123 -0.8490  0.0114
 5881TIP3    H239135   0.148   4.952  14.499  0.5216 -2.7394 -0.6382
 5882TIP3   OH239136   5.633   3.798   1.957  0.2716 -0.0962 -0.0613
 5882TIP3    H139137   5.723   3.826   1.940 -0.0667  0.5225 -0.8729
 5882TIP3    H239138   5.635   3.703   1.943  0.7589 -0.0599 -0.2461
 5883TIP3   OH239139   3.133   6.528  12.690 -0.1627 -0.1014 -0.1813
 5883TIP3    H139140   3.218   6.519  12.733 -0.8053 -1.4667  0.8755
 5883TIP3    H239141   3.152   6.519  12.597  0.9876  0.7965 -0.0543
 5884TIP3   OH239142   0.339   5.256   5.195  0.2601 -0.0186 -0.2614
 5884TIP3    H139143   0.365   5.311   5.269 -2.7441  0.0913  0.8636
 5884TIP3    H239144   0.367   5.168   5.219  1.7437  0.4064 -0.3292
 5885TIP3   OH239145   1.687   1.722  11.035  0.0399  0.1319  0.5920
 5885TIP3    H139146   1.597   1.753  11.043 -1.0051 -2.2785 -0.8050
 5885TIP3    H239147   1.689   1.640  11.085  1.2197 -0.2658 -0.0602
 5886TIP3   OH239148   5.608   5.495   4.228 -0.2502  0.0122  0.6194
 5886TIP3    H139149   5.637   5.564   4.287 -0.4315 -0.5003  1.3273
 5886TIP3    H239150   5.645   5.518   4.143  3.1687 -1.1084  1.6220
 5887TIP3   OH239151   1.376   0.015   1.693 -0.0905 -1.0332  0.0923
 5887TIP3    H139152   1.455   0.062   1.719  0.3033 -2.8391  2.4770
 5887TIP3    H239153   1.362   0.039   1.601  0.1462  3.5042  1.0473
 5888TIP3   OH239154   6.114   5.415  14.257  0.0502  0.3850  0.1845
 5888TIP3    H139155   6.052   5.343  14.254  1.3784 -0.7859 -1.9878
 5888TIP3    H239156   6.060   5.494  14.261 -1.5416 -0.6022 -0.8098
 5889TIP3   OH239157   2.614   0.567   4.201  0.3475 -0.6738  0.4081
 5889TIP3    H139158   2.672   0.539   4.131 -0.0431 -0.8633  0.1526
 5889TIP3    H239159   2.528   0.573   4.160  0.3204  0.3867  0.5946
 5890TIP3   OH239160   1.923   3.613  12.822  0.0173  0.0608  0.2129
 5890TIP3    H139161   1.966   3.528  12.828  0.0140 -0.1545 -1.9816
 5890TIP3    H239162   1.938   3.654  12.908  0.2016 -2.0332  1.2317
 5891TIP3   OH239163   4.737   4.526   5.343 -0.4956 -0.0098 -0.5161
 5891TIP3    H139164   4.803   4.456   5.334 -0.6467 -0.8361  3.0368
 5891TIP3    H239165   4.655   4.486   5.313 -0.6299 -1.5826  1.6935
 5892TIP3   OH239166   5.570   3.702   1.651  0.3979 -0.0585  0.1328
 5892TIP3    H139167   5.658   3.738   1.662 -0.1660  0.7782  2.4072
 5892TIP3    H239168   5.515   3.755   1.708 -1.7012 -0.2623 -1.5993
 5893TIP3   OH239169   0.792   6.339  12.683  0.5234 -0.3519  0.0080
 5893TIP3    H139170   0.697   6.346  12.676  0.5050 -0.5128  0.0872
 5893TIP3    H239171   0.812   6.366  12.773  0.4180 -1.5918  0.4281
 5894TIP3   OH239172   0.538   0.851  10.551  0.2099 -0.2169 -0.2699
 5894TIP3    H139173   0.567   0.831  10.640  0.6233  0.7511 -0.1725
 5894TIP3    H239174   0.619   0.863  10.502  0.0103 -1.9511 -1.0878
 5895TIP3   OH239175   2.123   3.042   6.561  0.4297 -0.2014  0.4975
 5895TIP3    H139176   2.154   2.952   6.561  0.5958 -0.1704  1.9257
 5895TIP3    H239177   2.095   3.058   6.651  1.0896  1.4134  0.4597
 5896TIP3   OH239178   2.032   5.876  12.662  0.1644 -1.0165  0.5107
 5896TIP3    H139179   2.003   5.808  12.602  2.3700 -2.5133  1.0153
 5896TIP3    H239180   2.091   5.931  12.610  0.6776 -1.2570  0.8259
 5897TIP3   OH239181   0.908   1.019  16.341  0.2649  0.2985  0.9353
 5897TIP3    H139182   0.885   1.002  16.432  1.6668  1.2604  1.5099
 5897TIP3    H239183   0.980   1.082  16.346  0.2216  0.5420 -0.8495
 5898TIP3   OH239184   3.037   5.948   5.751  0.6133  0.0565 -0.0748
 5898TIP3    H139185   3.077   6.004   5.685  0.1314 -0.6732 -1.0215
 5898TIP3    H239186   3.048   5.859   5.717 -1.9960 -0.1856 -0.5394
 5899TIP3   OH239187   5.350   2.973   1.678  0.1925 -0.4211 -0.4508
 5899TIP3    H139188   5.365   2.952   1.770 -0.6074 -0.5236 -0.3405
 5899TIP3    H239189   5.373   3.065   1.670 -0.0219 -0.3337 -0.0806
 5900TIP3   OH239190   5.146   5.162   2.428 -0.2267  0.2456 -0.8046
 5900TIP3    H139191   5.117   5.214   2.503  0.9435 -0.3692  0.1088
 5900TIP3    H239192   5.070   5.160   2.369 -0.5534  2.2796 -0.4985
 5901TIP3   OH239193   2.725   1.996  15.218  0.2930 -0.0454 -0.0654
 5901TIP3    H139194   2.761   1.943  15.289 -0.5788 -0.5238  0.0332
 5901TIP3    H239195   2.802   2.034  15.175  0.8947 -0.8482  0.2773
 5902TIP3   OH239196   3.755   2.703   5.212  0.0593 -0.1824  0.1734
 5902TIP3    H139197   3.846   2.719   5.235 -0.3443  1.1305  1.0262
 5902TIP3    H239198   3.708   2.708   5.296 -0.7401 -1.3955 -0.1708
 5903TIP3   OH239199   3.398   5.721  11.548  0.0636 -0.1288 -0.1481
 5903TIP3    H139200   3.445   5.639  11.532 -0.6650 -0.5845  0.0093
 5903TIP3    H239201   3.402   5.734  11.642  0.0966 -0.0338 -0.1621
 5904TIP3   OH239202   3.021   5.455   4.804  0.0732  0.0133 -0.4610
 5904TIP3    H139203   2.974   5.535   4.781 -1.4142 -1.1410 -1.6196
 5904TIP3    H239204   2.954   5.395   4.836  0.9504 -1.2342 -0.8757
 5905TIP3   OH239205   2.929   0.553  13.301  0.5064  0.1377  0.3891
 5905TIP3    H139206   2.927   0.589  13.390  2.0500  1.0863  0.0879
 5905TIP3    H239207   2.918   0.630  13.244  1.3032 -0.2019 -0.2457
 5906TIP3   OH239208   3.587   5.312  15.307  0.6956  1.0495 -0.0480
 5906TIP3    H139209   3.662   5.321  15.366  1.2689  1.7066 -0.8596
 5906TIP3    H239210   3.533   5.390  15.325 -0.4474 -0.0140  1.3965
 5907TIP3   OH239211   2.371   4.886  14.421  0.1364  0.3547 -0.3725
 5907TIP3    H139212   2.392   4.955  14.357  1.1358  0.4965  0.0836
 5907TIP3    H239213   2.421   4.911  14.499 -1.0021  0.1355  0.4364
 5908TIP3   OH239214   6.238   1.531   4.446  0.0334  0.5465 -0.4873
 5908TIP3    H139215   6.313   1.585   4.471 -0.3092  0.2834  1.2490
 5908TIP3    H239216   6.258   1.444   4.480 -1.5923  0.7673  1.2510
 5909TIP3   OH239217   5.092   2.703  15.807 -0.3469  0.5928 -0.0774
 5909TIP3    H139218   5.116   2.781  15.756 -0.0216 -0.0193 -0.8726
 5909TIP3    H239219   5.092   2.632  15.743  0.6869 -0.3040  0.8897
 5910TIP3   OH239220   4.638   2.789  14.763 -0.2136  0.4559 -0.4405
 5910TIP3    H139221   4.546   2.773  14.784 -0.1917  1.7537  0.8593
 5910TIP3    H239222   4.676   2.821  14.845  1.4013 -0.0261 -0.9618
 5911TIP3   OH239223   6.684   4.518   1.049  0.8087  0.4823  0.1924
 5911TIP3    H139224   6.771   4.494   1.080  0.7303  0.3828  0.3365
 5911TIP3    H239225   6.698   4.599   0.999  0.8554  0.9937  1.0090
 5912TIP3   OH239226   3.706   1.302  12.661  0.4860  0.2212 -0.6420
 5912TIP3    H139227   3.672   1.338  12.743 -1.2047  0.2475 -1.3187
 5912TIP3    H239228   3.673   1.212  12.658 -3.0699  1.3612 -3.1041
 5913TIP3   OH239229   6.223   5.128   4.117 -0.0080 -0.7690 -0.4281
 5913TIP3    H139230   6.240   5.132   4.211 -1.7017 -0.3036 -0.1100
 5913TIP3    H239231   6.287   5.065   4.084 -0.2644 -1.9656  1.2353
 5914TIP3   OH239232   6.051   2.260  12.441  0.1020 -0.3090 -0.3764
 5914TIP3    H139233   5.955   2.259  12.449 -0.1578 -0.1051 -2.5825
 5914TIP3    H239234   6.083   2.278  12.529 -1.8796 -0.6702  0.4652
 5915TIP3   OH239235   1.530   0.654  12.016  0.4483 -0.1598 -0.3729
 5915TIP3    H139236   1.496   0.620  12.099 -0.3371 -1.8124 -1.3207
 5915TIP3    H239237   1.607   0.600  11.998 -0.2581 -0.8411 -1.4362
 5916TIP3   OH239238   1.731   4.294  11.664 -0.6308  0.0942 -0.5061
 5916TIP3    H139239   1.643   4.294  11.627 -0.1568  0.1474 -1.6979
 5916TIP3    H239240   1.789   4.299  11.588  0.3923  0.7899  0.2860
 5917TIP3   OH239241   0.395   4.951   1.322  0.4007 -0.2244 -0.2876
 5917TIP3    H139242   0.385   5.023   1.259  0.9879  1.1934  1.1733
 5917TIP3    H239243   0.488   4.953   1.346 -0.0909  0.2138  1.6849
 5918TIP3   OH239244   1.113   0.975  13.024  0.1769  0.4879 -0.3469
 5918TIP3    H139245   1.148   0.987  13.113 -0.5182  1.4505 -0.1822
 5918TIP3    H239246   1.190   0.964  12.969  0.5985 -0.6793  0.4495
 5919TIP3   OH239247   3.395   0.313  15.179 -0.2530  0.0964  0.9610
 5919TIP3    H139248   3.400   0.319  15.275 -1.3826 -0.1738  1.0520
 5919TIP3    H239249   3.360   0.397  15.151 -1.1112 -0.2764  0.8970
 5920TIP3   OH239250   1.855   1.328  16.299 -0.3535 -0.0038  0.3418
 5920TIP3    H139251   1.859   1.316  16.394  0.8903 -0.3125  0.2650
 5920TIP3    H239252   1.875   1.421  16.286 -0.0560 -0.0655  0.3562
 5921TIP3   OH239253   0.085   5.895   2.422  0.1126  0.2041 -0.2294
 5921TIP3    H139254   0.130   5.810   2.431 -2.2522 -1.7413 -4.2009
 5921TIP3    H239255   0.002   5.882   2.468  0.3039  0.8938  0.3163
 5922TIP3   OH239256   6.514   4.575   1.977  0.1390 -0.0724  0.3207
 5922TIP3    H139257   6.430   4.600   1.938  0.2267 -1.7944 -1.1334
 5922TIP3    H239258   6.579   4.606   1.913  0.6419  1.1365  1.3757
 5923TIP3   OH239259   1.400   4.131  11.960  0.6517  0.5692  0.4006
 5923TIP3    H139260   1.487   4.152  11.924  1.3135 -0.4178  1.3552
 5923TIP3    H239261   1.406   4.039  11.983 -0.9247  0.2928 -0.2064
 5924TIP3   OH239262   6.268   3.823   3.218  0.0379 -0.1216 -0.9053
 5924TIP3    H139263   6.216   3.780   3.285  0.0562  0.8589 -0.2476
 5924TIP3    H239264   6.357   3.792   3.233  0.1489  0.5839 -0.0662
 5925TIP3   OH239265   1.504   1.662   6.812  0.1249  0.0399 -0.2805
 5925TIP3    H139266   1.488   1.736   6.755 -0.3365  0.5340  0.4800
 5925TIP3    H239267   1.486   1.585   6.758 -1.4515  0.5134 -0.4676
 5926TIP3   OH239268   3.533   0.010  13.998 -0.0030  0.5374 -0.1594
 5926TIP3    H139269   3.439   0.006  13.976 -0.1894  0.2205  0.6349
 5926TIP3    H239270   3.537  -0.027  14.086  0.9036  0.3688 -0.2708
 5927TIP3   OH239271   5.260   6.301   2.452 -0.3199  0.3513 -0.0684
 5927TIP3    H139272   5.329   6.295   2.386  0.6670 -2.8280  1.0437
 5927TIP3    H239273   5.200   6.229   2.431 -0.3195 -0.3567  2.0319
 5928TIP3   OH239274   1.404   1.019   3.851 -0.1671 -0.0360  0.1253
 5928TIP3    H139275   1.380   0.987   3.764 -2.5715  2.4535 -0.2747
 5928TIP3    H239276   1.354   0.963   3.911  2.4148 -2.5562  0.1437
 5929TIP3   OH239277   3.353   5.341  10.284 -0.3817  0.7167 -0.4861
 5929TIP3    H139278   3.429   5.299  10.325 -2.4130 -0.7680  2.0519
 5929TIP3    H239279   3.389   5.418  10.240  2.6980 -0.4712 -0.2615
 5930TIP3   OH239280   6.465   1.469   0.499  0.3713  0.6431 -0.3053
 5930TIP3    H139281   6.400   1.465   0.569  1.8535  1.3821  1.1712
 5930TIP3    H239282   6.445   1.393   0.444  0.3791 -1.1700  2.0320
 5931TIP3   OH239283   2.850   5.286  13.016  0.4176  0.1242 -0.0441
 5931TIP3    H139284   2.810   5.319  12.935 -1.1546  0.7142  0.9353
 5931TIP3    H239285   2.866   5.193  12.998  1.8008  0.6115 -1.6468
 5932TIP3   OH239286   4.734   1.160  15.067  0.3865 -0.1630  0.1059
 5932TIP3    H139287   4.808   1.164  15.007  0.2421  1.7291 -0.0185
 5932TIP3    H239288   4.666   1.211  15.025 -1.6190 -3.1310 -0.4982
 5933TIP3   OH239289   1.604   2.674   3.768  0.2928 -0.2855  0.2289
 5933TIP3    H139290   1.699   2.673   3.755  0.6840 -1.5803  2.6085
 5933TIP3    H239291   1.568   2.655   3.681  2.3779 -3.5783 -0.0995
 5934TIP3   OH239292   5.859   3.832   4.166  0.0571 -0.0582 -0.2685
 5934TIP3    H139293   5.786   3.791   4.119  1.7096 -0.7573 -2.3816
 5934TIP3    H239294   5.865   3.920   4.128  0.3587 -0.0411 -0.1830
 5935TIP3   OH239295   0.512   3.277   4.428  0.0562  0.1116 -0.2479
 5935TIP3    H139296   0.536   3.354   4.376  3.5246 -0.8423 -0.2777
 5935TIP3    H239297   0.527   3.203   4.370 -2.0929 -0.7222  0.1693
 5936TIP3   OH239298   0.812   2.931  13.397  0.6854 -0.5579 -0.3040
 5936TIP3    H139299   0.868   2.854  13.386 -2.6429 -3.3379  0.3622
 5936TIP3    H239300   0.819   2.952  13.491  1.2094 -0.3364 -0.3876
 5937TIP3   OH239301   3.471   5.050  15.927  0.4531  0.1664 -0.1357
 5937TIP3    H139302   3.459   5.113  15.856 -0.0232  1.4918  1.0534
 5937TIP3    H239303   3.404   4.984  15.912  0.4219  0.3834 -0.9696
 5938TIP3   OH239304   5.285   5.810   2.240 -0.5872  0.8928 -0.0263
 5938TIP3    H139305   5.258   5.817   2.148 -1.0968 -2.7000 -0.3079
 5938TIP3    H239306   5.372   5.771   2.236 -1.6208 -1.7931  0.8789
 5939TIP3   OH239307   4.141   6.534  10.980  0.1912  0.0428 -0.4120
 5939TIP3    H139308   4.231   6.559  11.001 -0.0168 -0.4635  1.1772
 5939TIP3    H239309   4.089   6.566  11.053 -0.8404 -0.2831 -0.9745
 5940TIP3   OH239310   2.028   0.797  11.642  0.5753 -0.4297 -0.0455
 5940TIP3    H139311   2.085   0.874  11.647 -0.5896  0.4331  0.5565
 5940TIP3    H239312   1.940   0.834  11.633  0.0933 -1.7188 -0.9444
 5941TIP3   OH239313   3.839   3.442  15.518 -0.1984 -0.4912  0.3098
 5941TIP3    H139314   3.823   3.370  15.579 -1.9161 -1.2677 -0.9909
 5941TIP3    H239315   3.910   3.410  15.462 -0.3423 -0.8001  0.3027
 5942TIP3   OH239316   2.097   1.630   1.209  0.0917  0.2482  0.5760
 5942TIP3    H139317   2.029   1.688   1.175 -0.0700 -0.6244 -0.6540
 5942TIP3    H239318   2.080   1.627   1.304 -0.4982  1.4031  0.5271
 5943TIP3   OH239319   1.024   2.484   3.770 -0.4343  0.1709 -0.0913
 5943TIP3    H139320   1.051   2.405   3.724 -0.4945  1.2224 -2.0667
 5943TIP3    H239321   0.949   2.457   3.822 -0.8774 -0.9477 -1.2516
 5944TIP3   OH239322   5.692   2.917   5.978 -0.0305  0.6604  0.6128
 5944TIP3    H139323   5.691   2.889   6.070  0.8867  1.2442  0.8197
 5944TIP3    H239324   5.673   3.011   5.981 -1.5469  0.3906  0.0589
 5945TIP3   OH239325   5.350   2.487  16.371  0.9162 -0.8517  0.3092
 5945TIP3    H139326   5.278   2.440  16.329  1.9232 -0.4666 -1.9980
 5945TIP3    H239327   5.411   2.418  16.399 -0.2436 -1.1747  2.2176
 5946TIP3   OH239328   5.482   3.332   0.581 -0.2184  0.5497 -0.0880
 5946TIP3    H139329   5.444   3.270   0.643  0.1451 -1.1349 -1.4847
 5946TIP3    H239330   5.439   3.313   0.498 -0.8758  2.9233 -0.3607
 5947TIP3   OH239331   2.881   4.146  16.109  0.0954 -0.9230 -0.2752
 5947TIP3    H139332   2.949   4.101  16.158 -0.1477 -0.0342  0.9124
 5947TIP3    H239333   2.801   4.132  16.160  0.0742  1.0906  0.3201
 5948TIP3   OH239334   4.325   6.209   2.888  0.3150 -0.8114  0.3284
 5948TIP3    H139335   4.378   6.272   2.839  0.8934  0.1286  2.1100
 5948TIP3    H239336   4.387   6.166   2.947 -0.3347 -2.0746  0.1261
 5949TIP3   OH239337   1.225   3.461   5.036 -0.2621  0.3183  0.2266
 5949TIP3    H139338   1.272   3.489   5.115  1.0273  1.4216 -0.8784
 5949TIP3    H239339   1.162   3.531   5.019 -0.5035  0.1078  0.2479
 5950TIP3   OH239340   0.392   0.375  14.881  0.0736 -0.0130 -0.5753
 5950TIP3    H139341   0.366   0.425  14.958 -0.1738 -1.5086  0.3543
 5950TIP3    H239342   0.488   0.369  14.888  0.0179 -0.4816 -0.1556
 5951TIP3   OH239343   0.389   3.383   5.196  0.3660  0.1105  0.0036
 5951TIP3    H139344   0.404   3.350   5.108  0.9222  0.5209 -0.0591
 5951TIP3    H239345   0.432   3.319   5.253  0.3412  0.0529 -0.0417
 5952TIP3   OH239346   5.911   1.809   3.395  0.2282  0.4089 -0.0788
 5952TIP3    H139347   5.868   1.800   3.310  2.3116  0.9949 -1.2785
 5952TIP3    H239348   5.888   1.897   3.425 -0.0477  0.4149 -0.3061
 5953TIP3   OH239349   6.295   4.943  16.119  0.4282 -0.0382 -0.2512
 5953TIP3    H139350   6.230   4.877  16.095 -0.3309  0.0513  1.3877
 5953TIP3    H239351   6.316   4.988  16.037 -2.0928  0.3630 -0.7453
 5954TIP3   OH239352   6.011   3.048  12.444  0.8299 -0.3265  0.8954
 5954TIP3    H139353   6.058   3.104  12.505 -1.6687 -0.3446  2.9957
 5954TIP3    H239354   5.979   3.107  12.376  0.3528  0.4166  1.7430
 5955TIP3   OH239355   4.450   1.217  11.362 -0.1377  0.2046 -0.1126
 5955TIP3    H139356   4.523   1.230  11.422 -0.9133  0.7749  0.7353
 5955TIP3    H239357   4.372   1.241  11.413 -0.9289 -0.4959 -0.9511
 5956TIP3   OH239358   3.573   3.763   3.133 -0.3736 -0.0625  0.4426
 5956TIP3    H139359   3.546   3.754   3.042 -0.5452  0.1922  0.4692
 5956TIP3    H239360   3.631   3.839   3.134  0.4242 -0.6573  0.3695
 5957TIP3   OH239361   3.694   2.201  16.769 -0.5525 -0.4177 -0.5347
 5957TIP3    H139362   3.753   2.256  16.820 -1.5962  0.3540 -0.1247
 5957TIP3    H239363   3.663   2.136  16.832  0.1841 -1.0951 -0.8595
 5958TIP3   OH239364   4.874   0.026  12.474 -0.3073  0.2981  0.1737
 5958TIP3    H139365   4.907  -0.042  12.533  2.3254  0.6745 -0.7433
 5958TIP3    H239366   4.896   0.108  12.517 -1.0429  0.5945  0.0050
 5959TIP3   OH239367   5.291   2.643  16.049  0.0827 -0.1834 -0.5024
 5959TIP3    H139368   5.273   2.616  15.959 -0.1600 -2.5985  0.1966
 5959TIP3    H239369   5.385   2.632  16.059  0.1895  0.5882 -0.5860
 5960TIP3   OH239370   4.277   5.232  10.621  0.2660 -0.4710  0.4988
 5960TIP3    H139371   4.336   5.306  10.606 -1.9369  0.9586 -2.0148
 5960TIP3    H239372   4.221   5.260  10.693 -0.9727  0.6884 -0.8537
 5961TIP3   OH239373   0.423   4.437   1.144 -0.5389 -0.1832 -0.1180
 5961TIP3    H139374   0.466   4.371   1.198  1.5598  0.3198 -1.0521
 5961TIP3    H239375   0.387   4.388   1.070  1.1298 -0.3457 -0.8777
 5962TIP3   OH239376   1.492   5.686   0.479 -0.1243 -0.2240 -0.3693
 5962TIP3    H139377   1.572   5.643   0.507  0.2750  1.1704  0.7391
 5962TIP3    H239378   1.513   5.723   0.393  0.5409  0.4255  0.0668
 5963TIP3   OH239379   5.269   3.722  13.393  0.3221 -0.1184  0.2216
 5963TIP3    H139380   5.271   3.660  13.466 -0.5709 -1.7124 -1.0530
 5963TIP3    H239381   5.223   3.798  13.428  1.6724 -0.0283  1.8980
 5964TIP3   OH239382   4.180   2.846   4.233 -0.5314 -0.6258 -0.4846
 5964TIP3    H139383   4.252   2.784   4.222 -0.1206 -0.1826 -0.3596
 5964TIP3    H239384   4.203   2.919   4.175 -0.5606 -0.2079  0.0222
 5965TIP3   OH239385   1.904   0.507  11.631  0.0188  0.3210  0.2636
 5965TIP3    H139386   1.861   0.550  11.558 -3.9984 -1.3783  1.3609
 5965TIP3    H239387   1.902   0.571  11.702  0.0181  0.5025  0.1014
 5966TIP3   OH239388   5.404   5.198  12.500  0.2081  0.0938 -0.1961
 5966TIP3    H139389   5.340   5.159  12.559  0.5924 -0.8637 -0.3867
 5966TIP3    H239390   5.352   5.249  12.438 -0.2375  0.6254  0.6040
 5967TIP3   OH239391   4.653   3.771   0.068  0.1985  0.0599 -0.5822
 5967TIP3    H139392   4.583   3.757   0.004  1.1330  1.2063 -1.9262
 5967TIP3    H239393   4.651   3.692   0.123 -1.3287 -0.4846 -1.3450
 5968TIP3   OH239394   5.054   2.404  14.613 -0.8714 -0.6815 -0.3156
 5968TIP3    H139395   5.088   2.321  14.578 -2.7024 -0.5777 -2.5728
 5968TIP3    H239396   5.022   2.382  14.700  2.1614 -1.4053  0.7472
 5969TIP3   OH239397   5.559   6.576   3.509 -0.0421 -0.1398 -0.0729
 5969TIP3    H139398   5.476   6.528   3.500 -0.7084  0.7943  0.7501
 5969TIP3    H239399   5.561   6.635   3.434 -0.0124 -0.3255 -0.2181
 5970TIP3   OH239400   3.438   0.202  13.664  0.5057 -0.2651 -0.1164
 5970TIP3    H139401   3.436   0.217  13.758  1.7707 -1.7200  0.1800
 5970TIP3    H239402   3.518   0.151  13.649  1.0850  1.1268 -2.1661
 5971TIP3   OH239403   2.383   3.284  11.295 -0.1646  0.3368 -0.4192
 5971TIP3    H139404   2.345   3.228  11.362 -0.0890 -1.5740 -1.8962
 5971TIP3    H239405   2.310   3.337  11.263 -0.1429  1.4843  1.2953
 5972TIP3   OH239406   6.379   5.168  11.221 -0.2918 -0.5795  0.3109
 5972TIP3    H139407   6.367   5.211  11.137  0.3850 -0.7384  0.1221
 5972TIP3    H239408   6.448   5.103  11.205  1.3623  0.7961  1.4675
 5973TIP3   OH239409   3.573   0.626   2.049 -0.0109 -0.0846 -0.2621
 5973TIP3    H139410   3.626   0.696   2.086  0.8230 -1.1962  0.7406
 5973TIP3    H239411   3.562   0.563   2.121  1.3844 -2.1662 -1.7511
 5974TIP3   OH239412   0.918   1.777   4.415 -0.3132 -0.1710 -0.4278
 5974TIP3    H139413   0.983   1.707   4.420  1.0097  1.1201  1.7898
 5974TIP3    H239414   0.836   1.735   4.442  0.6321 -0.7281  1.8071
 5975TIP3   OH239415   0.033   1.703  13.334  0.5490 -0.0281  0.8405
 5975TIP3    H139416  -0.044   1.685  13.279  1.7101  1.3725 -1.4190
 5975TIP3    H239417   0.063   1.617  13.362 -0.8211 -0.7232  0.2860
 5976TIP3   OH239418   6.597   6.554  13.423 -0.2910 -0.3602  0.1398
 5976TIP3    H139419   6.629   6.484  13.367  0.9082  0.0413  0.2970
 5976TIP3    H239420   6.675   6.606  13.443 -1.1304  0.9214  0.1639
 5977TIP3   OH239421   0.851   1.388   1.435 -0.0176  0.1034  0.6294
 5977TIP3    H139422   0.875   1.461   1.379 -0.3538 -0.3625 -0.1300
 5977TIP3    H239423   0.784   1.423   1.493 -1.6003 -0.0761 -1.0095
 5978TIP3   OH239424   5.625   0.224   5.880 -0.1146  0.3510  0.2530
 5978TIP3    H139425   5.655   0.203   5.968  0.0931 -0.0359  0.0937
 5978TIP3    H239426   5.702   0.262   5.837  0.5360 -1.7315 -0.5284
 5979TIP3   OH239427   3.179   2.846   5.252  0.0243  0.0211  0.0988
 5979TIP3    H139428   3.221   2.923   5.212 -2.3491  0.4944 -1.7187
 5979TIP3    H239429   3.109   2.823   5.191  1.2564 -4.2876  0.0138
 5980TIP3   OH239430   0.860   3.475  15.839  0.1433 -0.3472  0.5832
 5980TIP3    H139431   0.786   3.536  15.837  0.8214  0.5707  1.7393
 5980TIP3    H239432   0.861   3.442  15.929  1.7189  0.4252  0.8839
 5981TIP3   OH239433   6.393   5.639   0.313  0.3855 -0.4410 -0.4293
 5981TIP3    H139434   6.478   5.599   0.295  1.2387  0.9927  0.2089
 5981TIP3    H239435   6.414   5.720   0.360 -1.3691 -0.4292  0.4352
 5982TIP3   OH239436   3.639   1.448  10.918 -0.0597  0.4246  0.1863
 5982TIP3    H139437   3.546   1.470  10.912 -0.1460 -0.1949 -1.4370
 5982TIP3    H239438   3.659   1.409  10.833  1.7331  0.7132  0.4393
 5983TIP3   OH239439   2.031   5.946  15.450  0.1024  0.0044  0.3844
 5983TIP3    H139440   1.952   5.994  15.424 -0.9347 -2.6603 -1.7235
 5983TIP3    H239441   2.009   5.910  15.536  0.4784  2.1814  1.4797
 5984TIP3   OH239442   3.267   2.038  15.062 -0.1087  0.1745  0.2488
 5984TIP3    H139443   3.234   2.043  14.972  0.4870  0.2313  0.0285
 5984TIP3    H239444   3.250   1.948  15.089 -1.4118  0.4826  0.5259
 5985TIP3   OH239445   1.174   5.345   4.035 -0.2117  0.1355 -0.1939
 5985TIP3    H139446   1.245   5.303   3.986 -0.1216  0.9357 -0.7747
 5985TIP3    H239447   1.114   5.273   4.056 -0.1290 -0.2632 -1.2716
 5986TIP3   OH239448   4.077   6.789   1.004  0.3270 -0.1261 -0.2203
 5986TIP3    H139449   4.012   6.731   1.043 -0.2974  0.2473 -0.6855
 5986TIP3    H239450   4.161   6.748   1.024 -0.0821 -0.9465 -0.1515
 5987TIP3   OH239451   1.399   5.484   5.430 -0.5535 -0.1420  1.0930
 5987TIP3    H139452   1.452   5.408   5.406 -0.2439  0.6400 -0.8969
 5987TIP3    H239453   1.360   5.513   5.347 -1.0221  1.5876  1.8795
 5988TIP3   OH239454   6.016   3.032  14.072  0.2915  0.5370  0.3949
 5988TIP3    H139455   6.101   3.018  14.114  0.0906  0.5566  0.8164
 5988TIP3    H239456   6.035   3.029  13.978  0.4858 -1.3571  0.4377
 5989TIP3   OH239457   3.183   6.044   3.883 -0.2833  0.3718 -0.7116
 5989TIP3    H139458   3.148   6.131   3.903 -1.5480  0.3649 -2.6617
 5989TIP3    H239459   3.138   5.985   3.944 -0.3405  0.9089 -0.2220
 5990TIP3   OH239460   6.562   5.828   2.263  0.4409 -0.0214 -0.0847
 5990TIP3    H139461   6.577   5.922   2.268 -0.9625  0.2868 -1.1008
 5990TIP3    H239462   6.544   5.811   2.170 -1.8569 -0.8643  0.4485
 5991TIP3   OH239463   5.571   6.506   1.616 -0.3297  0.0802  0.4275
 5991TIP3    H139464   5.508   6.460   1.561 -0.3795 -0.0574  0.5979
 5991TIP3    H239465   5.655   6.464   1.596 -0.7253 -1.7870  2.3771
 5992TIP3   OH239466   0.532   0.671  15.060  0.1495  0.2893  0.2220
 5992TIP3    H139467   0.476   0.613  15.113 -1.0803  0.3286 -0.9929
 5992TIP3    H239468   0.516   0.644  14.970  2.3476  0.1092 -0.1757
 5993TIP3   OH239469   5.557   0.873   0.539 -0.0745  0.1916  0.2493
 5993TIP3    H139470   5.535   0.965   0.558 -0.7999 -0.1097  0.8971
 5993TIP3    H239471   5.581   0.874   0.446  1.2855  1.2773  0.5793
 5994TIP3   OH239472   1.456   3.231   0.272 -0.0899 -0.1796 -0.2135
 5994TIP3    H139473   1.399   3.223   0.196 -0.3808  1.3786 -0.1885
 5994TIP3    H239474   1.527   3.169   0.256  0.8171  1.3615 -2.6276
 5995TIP3   OH239475   4.339   3.940   5.991  0.3215  0.1352 -0.2915
 5995TIP3    H139476   4.418   3.920   5.940 -0.1645 -0.9214 -0.6518
 5995TIP3    H239477   4.348   4.033   6.012  1.9812 -0.1036  0.2444
 5996TIP3   OH239478   5.958   6.782   3.354 -0.3256  0.8217 -0.3386
 5996TIP3    H139479   5.902   6.858   3.336 -0.9392  0.2914 -0.7691
 5996TIP3    H239480   5.920   6.743   3.433 -0.5925  0.4442 -0.6483
 5997TIP3   OH239481   6.655   4.193  15.345  0.3112  0.0259  0.3348
 5997TIP3    H139482   6.669   4.245  15.266  0.6562 -0.8112 -0.1711
 5997TIP3    H239483   6.738   4.198  15.392  0.4665 -0.3600  0.1051
 5998TIP3   OH239484   5.426   5.549   0.143  1.1536  0.1382  0.4759
 5998TIP3    H139485   5.394   5.638   0.156 -0.5624 -0.4357  0.4952
 5998TIP3    H239486   5.415   5.506   0.228  1.2559 -0.2872  0.2796
 5999TIP3   OH239487   3.758   3.979  13.677  0.0654  0.3682 -0.2011
 5999TIP3    H139488   3.664   3.972  13.661 -0.0144  0.3152  0.2698
 5999TIP3    H239489   3.799   3.952  13.595 -0.3210 -0.1911 -0.2120
 6000TIP3   OH239490   1.055   3.665  14.505  0.2718 -0.3406 -0.2766
 6000TIP3    H139491   0.992   3.627  14.444  0.5180  0.1179 -0.8307
 6000TIP3    H239492   1.062   3.757  14.479  2.2735 -0.6929 -1.2327
 6001TIP3   OH239493   3.534   5.424   6.230  0.0023 -0.0685 -0.5869
 6001TIP3    H139494   3.514   5.331   6.220 -1.9048  0.2212  0.1250
 6001TIP3    H239495   3.597   5.428   6.302 -0.1120 -0.7833 -0.4409
 6002TIP3   OH239496   5.695   0.599  12.484  0.1004  0.4998 -0.2111
 6002TIP3    H139497   5.634   0.663  12.521 -1.2868 -0.3725 -0.8954
 6002TIP3    H239498   5.658   0.577  12.398  1.7869  0.4737 -0.9785
 6003TIP3   OH239499   6.417   5.177   0.756  0.0507 -0.2669  0.2059
 6003TIP3    H139500   6.422   5.189   0.851  2.2147  1.8939 -0.0704
 6003TIP3    H239501   6.394   5.264   0.723  1.9964 -0.2805 -1.3378
 6004TIP3   OH239502   6.659   1.061  14.411  0.0806 -0.7633  0.3930
 6004TIP3    H139503   6.643   1.100  14.497 -0.5906 -0.2149  0.0324
 6004TIP3    H239504   6.674   1.135  14.353 -2.7958 -0.8362 -0.6291
 6005TIP3   OH239505   1.818   6.214  12.188 -0.6882  0.1793 -0.5945
 6005TIP3    H139506   1.874   6.234  12.264  0.8648  0.0237 -1.6555
 6005TIP3    H239507   1.831   6.121  12.172 -1.2707  0.1396 -0.8528
 6006TIP3   OH239508   3.380   6.061   3.717  0.5027  0.4565 -0.0813
 6006TIP3    H139509   3.316   6.053   3.787 -0.1307  3.1103 -0.2779
 6006TIP3    H239510   3.404   6.153   3.716  0.5464  0.5256 -3.2828
 6007TIP3   OH239511   4.311   1.649  13.205 -0.0362  0.1315 -0.1374
 6007TIP3    H139512   4.357   1.567  13.225 -0.0456  0.6319  2.1868
 6007TIP3    H239513   4.221   1.622  13.186  0.1376 -0.4617 -0.1445
 6008TIP3   OH239514   4.289   6.531  15.966  0.0796  0.2792  0.7366
 6008TIP3    H139515   4.353   6.559  15.901 -0.0097  2.4214  1.5134
 6008TIP3    H239516   4.226   6.603  15.972 -0.3003 -0.1491  2.6789
 6009TIP3   OH239517   2.081   0.943   4.780  0.4217 -1.0055  0.0309
 6009TIP3    H139518   2.040   0.858   4.790  0.6256 -0.8946  2.1020
 6009TIP3    H239519   2.113   0.966   4.867 -0.0868  1.4228 -0.3353
 6010TIP3   OH239520   3.648   6.750  12.907 -0.1327  0.4795  0.2964
 6010TIP3    H139521   3.712   6.692  12.864 -0.1925  0.5493  0.1093
 6010TIP3    H239522   3.644   6.719  12.997 -0.9702 -0.5031 -0.0657
 6011TIP3   OH239523   4.413   2.126  14.507 -0.0916  0.0621 -0.1783
 6011TIP3    H139524   4.367   2.068  14.568 -0.0857 -0.0892 -0.3157
 6011TIP3    H239525   4.476   2.068  14.463 -0.2376  0.1263 -0.4754
 6012TIP3   OH239526   1.975   6.032  13.093 -0.2484 -0.6580 -0.8201
 6012TIP3    H139527   1.946   6.050  13.183  0.3325  0.4270 -0.8305
 6012TIP3    H239528   1.992   6.119  13.056  1.2222 -1.1633 -1.4005
 6013TIP3   OH239529   0.891   1.162  16.792 -0.1475 -0.4390  0.1869
 6013TIP3    H139530   0.955   1.193  16.727 -1.4275 -0.4429 -1.1357
 6013TIP3    H239531   0.897   1.225  16.863  0.0090  0.6662 -0.7680
 6014TIP3   OH239532   2.385   5.401  13.524 -0.3298  0.2251 -0.4821
 6014TIP3    H139533   2.347   5.488  13.526  0.4725  0.5989 -0.8065
 6014TIP3    H239534   2.478   5.416  13.505 -0.1542 -0.6883 -0.4019
 6015TIP3   OH239535   2.645   5.698  15.464  0.0666  0.2403 -0.0742
 6015TIP3    H139536   2.556   5.728  15.485  0.0113  1.0215 -1.3187
 6015TIP3    H239537   2.692   5.702  15.547 -0.8602  0.5457  0.4506
 6016TIP3   OH239538   6.154   4.920   4.745  0.2499  0.2567  0.0538
 6016TIP3    H139539   6.138   4.825   4.741 -0.4455  0.2892  1.4387
 6016TIP3    H239540   6.236   4.928   4.793  0.2441  0.3618  0.0448
 6017TIP3   OH239541   1.112   0.935  17.092  0.1217  0.6063  0.7076
 6017TIP3    H139542   1.165   1.013  17.074  0.9673 -0.2250 -0.5083
 6017TIP3    H239543   1.153   0.895  17.169  1.2667 -0.0150 -0.2046
 6018TIP3   OH239544   3.634   0.753  13.610  0.3284 -0.2090  0.5329
 6018TIP3    H139545   3.657   0.728  13.520 -1.1125 -1.9913  0.6030
 6018TIP3    H239546   3.658   0.677  13.663 -1.4859 -0.3577  1.2086
 6019TIP3   OH239547   3.719   5.616  17.012 -0.5196 -0.0184 -0.3297
 6019TIP3    H139548   3.756   5.655  16.933 -0.6662  0.3307 -0.2292
 6019TIP3    H239549   3.635   5.660  17.024 -0.6771 -0.3488 -0.1979
 6020TIP3   OH239550   3.797   5.437   3.358 -0.2829 -0.1105  0.5177
 6020TIP3    H139551   3.833   5.350   3.338  1.1333  0.7262 -0.7221
 6020TIP3    H239552   3.702   5.426   3.349 -0.1200 -1.4936  0.2551
 6021TIP3   OH239553   0.773   3.044   0.669 -0.4139 -0.2734 -0.4835
 6021TIP3    H139554   0.819   3.104   0.728  1.7003 -1.3235 -0.9546
 6021TIP3    H239555   0.746   2.971   0.724  0.5306 -0.7063 -0.5700
 6022TIP3   OH239556   2.090   4.613  15.455  0.3354 -0.6473  0.1430
 6022TIP3    H139557   2.156   4.545  15.470  0.5736 -0.1973  1.1933
 6022TIP3    H239558   2.016   4.566  15.415  0.6129 -1.4636  0.5619
 6023TIP3   OH239559   2.869   0.724  16.103 -0.4305  0.0307  0.2081
 6023TIP3    H139560   2.786   0.728  16.150 -0.2872 -0.0563  0.4715
 6023TIP3    H239561   2.845   0.689  16.017 -0.5451 -0.9258  0.6046
 6024TIP3   OH239562   1.584   5.462  14.614  0.4640 -0.4145  0.8610
 6024TIP3    H139563   1.553   5.540  14.567  0.2846 -0.6393  0.6066
 6024TIP3    H239564   1.606   5.495  14.702  0.4061 -0.0728  0.7503
 6025TIP3   OH239565   3.569   5.750  16.591 -0.4028  0.0198 -0.3423
 6025TIP3    H139566   3.529   5.794  16.666 -1.5872  0.0161 -0.9575
 6025TIP3    H239567   3.661   5.777  16.594 -0.7842  1.3430  0.1557
 6026TIP3   OH239568   5.848   2.027   0.430  0.1716 -0.4374  0.6150
 6026TIP3    H139569   5.808   2.103   0.472 -0.9272 -1.4413  1.4548
 6026TIP3    H239570   5.789   2.007   0.357  1.0000  0.0944 -0.2216
 6027TIP3   OH239571   2.434   6.365   1.293  0.0721  0.0371  0.7124
 6027TIP3    H139572   2.443   6.450   1.337 -0.8969 -0.0197  1.0454
 6027TIP3    H239573   2.441   6.301   1.364  0.9840 -0.1793  0.4367
 6028TIP3   OH239574   6.794   0.145   4.094  1.0105 -0.3748  0.1595
 6028TIP3    H139575   6.731   0.192   4.148  1.2165  0.9924 -0.7578
 6028TIP3    H239576   6.746   0.068   4.063 -0.6609  1.2801 -1.5654
 6029TIP3   OH239577   6.758   1.331  16.675 -0.1112  0.5592 -0.6389
 6029TIP3    H139578   6.736   1.413  16.632  0.7382  0.9445 -0.3538
 6029TIP3    H239579   6.681   1.276  16.662 -0.7210  1.4245 -0.7615
 6030TIP3   OH239580   0.991   3.571  13.990  0.2918  0.2335  0.6695
 6030TIP3    H139581   0.899   3.588  13.967 -0.4520 -0.9874  2.5055
 6030TIP3    H239582   1.013   3.490  13.945  1.5761  2.0883 -2.3446
 6031TIP3   OH239583   4.748   2.105  10.538  0.2539 -0.2500 -0.1509
 6031TIP3    H139584   4.656   2.087  10.521  0.0612 -0.1611  0.7784
 6031TIP3    H239585   4.792   2.083  10.455 -0.9839  2.9479 -1.8047
 6032TIP3   OH239586   3.151   0.916  16.591  0.1039  1.2981  0.3610
 6032TIP3    H139587   3.147   0.822  16.607  0.6917  1.3262  0.6908
 6032TIP3    H239588   3.066   0.937  16.551 -0.0042  0.6222  0.2232
 6033TIP3   OH239589   1.587   1.448  15.875 -0.2714  0.1399 -0.0416
 6033TIP3    H139590   1.506   1.460  15.826 -1.2692  2.0856  1.9439
 6033TIP3    H239591   1.655   1.485  15.819 -0.6848 -1.4390 -1.6950
 6034TIP3   OH239592   0.824   5.828  13.075 -0.3369 -0.0380  0.6185
 6034TIP3    H139593   0.788   5.898  13.021  1.4738  0.7118  0.3264
 6034TIP3    H239594   0.911   5.857  13.098 -0.6109 -0.9081  2.9776
 6035TIP3   OH239595   3.174   2.708   0.933  0.1751  0.1106 -0.2471
 6035TIP3    H139596   3.204   2.630   0.887  1.0780  0.6874 -0.6770
 6035TIP3    H239597   3.187   2.689   1.026  1.5931  0.1943 -0.4000
 6036TIP3   OH239598   6.522   0.599  14.616  0.1679 -0.6556 -0.6191
 6036TIP3    H139599   6.467   0.567  14.544 -0.9681 -0.0218 -0.0724
 6036TIP3    H239600   6.486   0.686  14.635  1.5081 -0.1374 -0.3643
 6037TIP3   OH239601   2.251   2.965   4.156  0.5782  0.2301  0.2439
 6037TIP3    H139602   2.197   2.891   4.131 -0.5215  0.8787  0.6076
 6037TIP3    H239603   2.242   2.970   4.251 -0.8842  1.9114  0.0753
 6038TIP3   OH239604   4.867   2.926   2.569  0.0624  0.4172 -0.1059
 6038TIP3    H139605   4.870   2.906   2.662  0.4868 -1.2196 -0.4346
 6038TIP3    H239606   4.888   3.019   2.563  0.8890  0.3523  1.3708
 6039TIP3   OH239607   6.030   4.698   0.456 -0.0493  0.0065  0.5563
 6039TIP3    H139608   6.076   4.661   0.380 -0.3924 -1.1603  0.8920
 6039TIP3    H239609   6.097   4.701   0.525 -0.1054 -0.3371  0.6287
 6040TIP3   OH239610   3.038   0.480  14.647  0.0232  0.2303  0.3434
 6040TIP3    H139611   3.061   0.479  14.554 -0.6389 -0.9290  0.1730
 6040TIP3    H239612   3.095   0.413  14.686 -1.0339 -0.6691  0.4088
 6041TIP3   OH239613   6.220   6.391  10.566 -0.2589  0.0903  0.2652
 6041TIP3    H139614   6.299   6.432  10.530 -1.3859  1.5484 -0.6743
 6041TIP3    H239615   6.206   6.436  10.650  0.7293 -1.2696  1.2156
 6042TIP3   OH239616   5.982   5.555   0.523  0.6518  0.6550 -0.0545
 6042TIP3    H139617   5.916   5.485   0.517 -1.2930  2.4828 -2.0477
 6042TIP3    H239618   6.007   5.571   0.432  0.2346  3.2067  0.2161
 6043TIP3   OH239619   1.217   1.497   4.785  0.1572 -0.5822  0.2637
 6043TIP3    H139620   1.177   1.582   4.800 -0.8945 -0.7443 -1.3470
 6043TIP3    H239621   1.241   1.465   4.872 -0.2668  0.9451  0.9593
 6044TIP3   OH239622   4.188   1.586   4.949  0.3903  0.2887  0.3099
 6044TIP3    H139623   4.144   1.571   4.866  0.3402  0.0650  0.3768
 6044TIP3    H239624   4.282   1.583   4.928  0.3995  2.4145 -0.1428
 6045TIP3   OH239625   4.451   4.597  17.053 -0.1141  0.3012 -0.6860
 6045TIP3    H139626   4.464   4.678  17.004 -2.6356  1.2498  0.0035
 6045TIP3    H239627   4.376   4.555  17.011  0.0443 -0.7654  0.0511
 6046TIP3   OH239628   6.398   3.393  16.109  0.2632 -0.3522 -0.4656
 6046TIP3    H139629   6.359   3.478  16.090 -1.0873 -0.0722  2.8976
 6046TIP3    H239630   6.471   3.412  16.166 -1.5373 -1.4363  2.4222
 6047TIP3   OH239631   5.543   0.856  11.922 -0.5637 -0.7532 -0.5022
 6047TIP3    H139632   5.458   0.839  11.963 -0.3889 -2.8618 -0.8886
 6047TIP3    H239633   5.546   0.796  11.847  1.0530 -0.3725 -0.7870
 6048TIP3   OH239634   4.061   3.439  11.588 -0.1369  0.5064 -0.3671
 6048TIP3    H139635   4.052   3.426  11.494 -1.3218  1.5445 -0.4192
 6048TIP3    H239636   4.098   3.357  11.620 -0.2976 -0.0886 -1.6405
 6049TIP3   OH239637   0.380   2.382  17.087  0.0523  0.7039 -0.0667
 6049TIP3    H139638   0.460   2.425  17.117  0.9343 -0.3262 -0.8536
 6049TIP3    H239639   0.385   2.294  17.125 -2.3408  1.5533  2.6022
 6050TIP3   OH239640   0.158   5.695   0.460  0.2818  0.0533 -0.4062
 6050TIP3    H139641   0.231   5.639   0.488  0.0046 -0.2994 -0.3902
 6050TIP3    H239642   0.087   5.674   0.520  0.6745  1.6254  0.6809
 6051TIP3   OH239643   3.094   5.903   0.307 -0.5994  0.4183 -0.2681
 6051TIP3    H139644   3.048   5.898   0.223 -1.2188  0.0703  0.0820
 6051TIP3    H239645   3.161   5.971   0.294 -1.0143  0.7200 -0.8828
 6052TIP3   OH239646   3.206   5.652  16.525 -0.0018 -0.3756  0.4931
 6052TIP3    H139647   3.250   5.615  16.448  2.3168  0.2471  1.4395
 6052TIP3    H239648   3.128   5.597  16.537  1.3564 -2.6089 -0.3434
 6053TIP3   OH239649   4.189   4.982  12.115  0.5735  0.9437  0.9435
 6053TIP3    H139650   4.104   4.942  12.096  0.9448  0.6651 -0.2010
 6053TIP3    H239651   4.253   4.920  12.080  1.2754  1.0081  2.0552
 6054TIP3   OH239652   3.487   2.611  16.428  0.4282 -0.1407  0.0299
 6054TIP3    H139653   3.521   2.693  16.464  0.2911 -0.2171  0.3424
 6054TIP3    H239654   3.561   2.550  16.436  0.2911 -0.2511  0.5168
 6055TIP3   OH239655   3.442   2.645   4.910 -0.3591 -0.3166  0.2186
 6055TIP3    H139656   3.348   2.625   4.912 -0.7807  1.4782  1.4445
 6055TIP3    H239657   3.477   2.603   4.989 -1.1222  2.8479  2.4317
 6056TIP3   OH239658   0.736   2.402  11.949  0.5512  0.7741 -0.6102
 6056TIP3    H139659   0.770   2.452  11.874  0.2533  2.0528  0.0748
 6056TIP3    H239660   0.677   2.463  11.993 -0.0171 -0.2862  0.1320
 6057TIP3   OH239661   4.047   0.267  12.581 -0.0952  0.3407  0.4974
 6057TIP3    H139662   4.046   0.323  12.658  2.2008  2.4766 -0.8756
 6057TIP3    H239663   4.108   0.197  12.604  1.4082  1.5425  0.3292
 6058TIP3   OH239664   0.111   4.901  16.725  0.3705  0.6805 -0.0131
 6058TIP3    H139665   0.088   4.954  16.648 -2.9076  1.5567  1.3813
 6058TIP3    H239666   0.045   4.832  16.726  0.2069  0.8030  2.0596
 6059TIP3   OH239667   6.697   4.650   4.869 -0.1197 -0.2764 -0.4055
 6059TIP3    H139668   6.625   4.599   4.906  0.0874  0.9530  1.8941
 6059TIP3    H239669   6.752   4.672   4.944  0.2970  2.4974 -1.4052
 6060TIP3   OH239670   4.444   2.113   0.822  0.2971  0.9778 -0.6091
 6060TIP3    H139671   4.537   2.105   0.803  0.1083  1.7935 -1.9202
 6060TIP3    H239672   4.424   2.205   0.808 -0.2620  1.3043  1.8638
 6061TIP3   OH239673   4.848   4.834   0.274 -0.4207  0.4780  0.5137
 6061TIP3    H139674   4.832   4.768   0.341  1.6617  0.5611  1.1514
 6061TIP3    H239675   4.895   4.788   0.205 -0.5124  0.9036  0.1612
 6062TIP3   OH239676   5.131   4.193   2.679  0.1322  0.2240  0.2250
 6062TIP3    H139677   5.086   4.179   2.763 -0.6637  1.4694  0.0270
 6062TIP3    H239678   5.206   4.134   2.682 -0.7073 -0.8495  1.1874
 6063TIP3   OH239679   3.579   3.009   3.535 -0.3005 -0.0691  0.6691
 6063TIP3    H139680   3.523   3.042   3.605 -1.3048  1.2823 -0.6931
 6063TIP3    H239681   3.529   2.939   3.495  0.1863 -0.7066  1.1575
 6064TIP3   OH239682   2.699   0.771  16.753  0.1346 -0.2226  0.0044
 6064TIP3    H139683   2.619   0.822  16.744  1.8353  2.6559 -0.0778
 6064TIP3    H239684   2.697   0.738  16.843  0.3448  2.6900  1.1582
 6065TIP3   OH239685   2.212   5.577   5.126  0.2328 -0.0310 -0.0656
 6065TIP3    H139686   2.279   5.623   5.076  0.2641 -0.0330 -0.0252
 6065TIP3    H239687   2.255   5.496   5.155 -0.0825 -0.5010 -0.8779
 6066TIP3   OH239688   0.983   3.726  13.226  0.2182 -0.5842 -0.5707
 6066TIP3    H139689   0.959   3.659  13.290  1.7199 -1.2700 -0.6803
 6066TIP3    H239690   1.047   3.683  13.169 -0.8096  0.1283 -2.3314
 6067TIP3   OH239691   0.865   0.554  14.924 -0.1530 -0.4942  0.1684
 6067TIP3    H139692   0.770   0.549  14.935 -0.3015 -0.3327 -0.8550
 6067TIP3    H239693   0.893   0.462  14.919 -0.0940 -0.5689  1.5483
 6068TIP3   OH239694   1.565   2.764   0.545 -0.3976 -0.0109 -0.2743
 6068TIP3    H139695   1.483   2.746   0.591 -0.8482 -0.4691 -1.2279
 6068TIP3    H239696   1.555   2.721   0.460 -0.1017  1.8381 -1.2989
 6069TIP3   OH239697   5.009   5.057   5.442  0.2326 -0.2233  0.2782
 6069TIP3    H139698   4.981   5.130   5.387 -3.1385 -2.1187 -0.7435
 6069TIP3    H239699   5.072   5.009   5.388 -0.9164 -0.5143 -0.8225
 6070TIP3   OH239700   4.812   2.883   4.042  0.5586  0.0597 -0.0076
 6070TIP3    H139701   4.815   2.977   4.059 -0.5591 -0.2516  2.2089
 6070TIP3    H239702   4.865   2.844   4.111 -0.6717 -1.0366  0.3723
 6071TIP3   OH239703   3.623   6.700   5.778  0.3783  0.1365  0.8357
 6071TIP3    H139704   3.545   6.644   5.776  1.1175 -0.9285  0.5083
 6071TIP3    H239705   3.605   6.765   5.845  0.1977 -1.5870  2.5534
 6072TIP3   OH239706   2.386   1.603   1.133  0.3531 -0.6614  0.0809
 6072TIP3    H139707   2.435   1.683   1.152  1.2910 -1.1411 -0.2550
 6072TIP3    H239708   2.295   1.625   1.154  0.4633  0.7570 -0.7909
 6073TIP3   OH239709   1.234   4.919   2.316  0.2800  0.1790  0.3571
 6073TIP3    H139710   1.175   4.892   2.246  1.2694 -0.9471 -0.0945
 6073TIP3    H239711   1.227   4.849   2.381  0.1545  0.6882  0.8915
 6074TIP3   OH239712   1.921   0.054  11.630  0.4983  0.2129  0.0158
 6074TIP3    H139713   1.910   0.130  11.573 -0.2742  0.1667  0.0996
 6074TIP3    H239714   1.904   0.087  11.718  2.4138  0.4593  0.3523
 6075TIP3   OH239715   5.007   4.119  11.395 -0.3144  0.2789 -0.5900
 6075TIP3    H139716   4.999   4.203  11.350  1.2641  0.7069 -0.1492
 6075TIP3    H239717   5.092   4.084  11.365  0.1901 -0.0016  1.0956
 6076TIP3   OH239718   1.817   5.893  12.437  0.5647 -0.1784  0.3133
 6076TIP3    H139719   1.857   5.811  12.467  0.0512 -0.0992  1.2317
 6076TIP3    H239720   1.819   5.950  12.513 -0.3929  0.1687  0.0870
 6077TIP3   OH239721   4.071   1.440  16.261 -0.2114 -0.3373 -0.7990
 6077TIP3    H139722   4.055   1.406  16.349 -1.3354 -0.5480 -1.0710
 6077TIP3    H239723   4.166   1.453  16.258  0.0265 -1.6308 -0.0283
 6078TIP3   OH239724   6.237   5.305   3.524  0.3417  0.5474 -0.8013
 6078TIP3    H139725   6.170   5.368   3.496  0.8956  1.0194 -1.0900
 6078TIP3    H239726   6.291   5.353   3.586 -1.1203 -0.6135  1.4763
 6079TIP3   OH239727   2.097   0.601  13.279 -0.2760 -0.3341  0.0459
 6079TIP3    H139728   2.062   0.529  13.331 -1.3686  0.2486  0.1250
 6079TIP3    H239729   2.021   0.652  13.254  0.6110  1.9040  1.6104
 6080TIP3   OH239730   6.387   5.512   4.596 -0.1939  0.1365 -0.4548
 6080TIP3    H139731   6.357   5.426   4.627 -0.5269  0.6369  0.6650
 6080TIP3    H239732   6.326   5.536   4.527 -0.7020 -0.0800 -0.0827
 6081TIP3   OH239733   4.444   4.083  15.246  0.0489  0.1857  0.2919
 6081TIP3    H139734   4.515   4.126  15.294 -0.3554 -0.5564  1.6232
 6081TIP3    H239735   4.447   4.122  15.159 -0.7610  3.5190  1.5902
 6082TIP3   OH239736   2.064   4.511  16.163 -0.2881 -0.3623 -0.4600
 6082TIP3    H139737   2.049   4.553  16.248  0.2720 -0.1174 -0.4782
 6082TIP3    H239738   2.058   4.417  16.180  3.0679 -0.5082  0.5477
 6083TIP3   OH239739   5.159   5.646   1.084 -0.6632 -0.0489 -0.0595
 6083TIP3    H139740   5.085   5.702   1.110 -0.6325 -0.4070  0.8453
 6083TIP3    H239741   5.201   5.694   1.013  1.2418  2.7499  2.6657
 6084TIP3   OH239742   2.954   3.858  15.767  0.6069  0.0903 -0.5501
 6084TIP3    H139743   2.991   3.789  15.822  0.5733  0.3379 -0.2162
 6084TIP3    H239744   3.021   3.927  15.766 -0.7979  1.6553  2.1197
 6085TIP3   OH239745   5.204   0.072  16.728  0.1931  0.1952  0.2807
 6085TIP3    H139746   5.291   0.083  16.690 -0.6505 -0.4345 -2.0163
 6085TIP3    H239747   5.200  -0.020  16.753  0.8984  0.7055  2.4185
 6086TIP3   OH239748   0.171   1.655  16.656 -0.1723 -0.3809  0.2154
 6086TIP3    H139749   0.142   1.599  16.727 -0.3018 -2.0451 -1.0882
 6086TIP3    H239750   0.104   1.724  16.650  0.0551  0.0137  1.9178
 6087TIP3   OH239751   4.221   6.379   3.308  0.2413  0.9280 -0.0795
 6087TIP3    H139752   4.298   6.322   3.313  0.1215  0.7945  0.2306
 6087TIP3    H239753   4.179   6.354   3.225  0.3224  0.7342 -0.0629
 6088TIP3   OH239754   4.550   6.201  12.692  0.2098 -0.6679  0.0770
 6088TIP3    H139755   4.538   6.108  12.675  1.2130 -0.6997 -0.5272
 6088TIP3    H239756   4.602   6.205  12.772  0.7381 -0.6552 -0.2585
 6089TIP3   OH239757   1.363   5.907  15.993 -0.1267 -0.1117 -0.4574
 6089TIP3    H139758   1.399   5.993  16.011 -0.7658 -0.0913  0.7602
 6089TIP3    H239759   1.271   5.914  16.015 -0.2564 -1.0169 -0.6723
 6090TIP3   OH239760   3.624   3.678  12.180 -0.3351  0.1692 -0.2810
 6090TIP3    H139761   3.612   3.770  12.203  1.4082 -0.0580  1.9187
 6090TIP3    H239762   3.535   3.645  12.168 -1.1506  1.5633  1.4356
 6091TIP3   OH239763   2.103   2.260  10.690 -0.0420  0.1530  0.3004
 6091TIP3    H139764   2.020   2.214  10.680 -0.0716 -0.0673  1.4104
 6091TIP3    H239765   2.163   2.193  10.723 -0.0388  0.8352  1.7731
 6092TIP3   OH239766   6.673   3.228  13.330 -0.2525 -0.1115  0.2212
 6092TIP3    H139767   6.733   3.236  13.404  0.4122 -0.9381 -0.2261
 6092TIP3    H239768   6.701   3.296  13.269 -0.2819  0.0301  0.3648
 6093TIP3   OH239769   2.355   5.746  13.035  0.1008  0.6685  0.1041
 6093TIP3    H139770   2.309   5.693  12.970 -0.5890  0.7019  0.5579
 6093TIP3    H239771   2.292   5.756  13.107  0.9238  0.4801  0.8551
 6094TIP3   OH239772   3.189   2.165  15.564  0.2052  0.0968  0.2792
 6094TIP3    H139773   3.237   2.154  15.482  0.8173 -0.3453  0.6899
 6094TIP3    H239774   3.174   2.260  15.571 -1.8266 -0.0212 -1.4427
 6095TIP3   OH239775   1.644   0.203   0.395 -0.5456  0.1287 -0.9409
 6095TIP3    H139776   1.668   0.293   0.371  0.6873  0.1495  0.2407
 6095TIP3    H239777   1.724   0.166   0.431 -0.6778 -1.8960 -2.5531
 6096TIP3   OH239778   3.954   3.490  10.612 -0.2490 -0.1873  0.2406
 6096TIP3    H139779   4.030   3.458  10.661 -0.7269  0.2139  1.2716
 6096TIP3    H239780   3.992   3.531  10.534  0.5339 -0.7078  0.3307
 6097TIP3   OH239781   6.770   6.126   5.801  0.1006  0.1041  0.0816
 6097TIP3    H139782   6.780   6.058   5.868 -0.9188  0.3530  0.5012
 6097TIP3    H239783   6.815   6.202   5.838  1.9999 -0.5501 -0.7595
 6098TIP3   OH239784   1.883   4.666  12.598  0.2500  0.6532  0.2615
 6098TIP3    H139785   1.808   4.628  12.552  0.2141 -0.2941  1.0744
 6098TIP3    H239786   1.945   4.594  12.606  0.8306  1.1710  0.4801
 6099TIP3   OH239787   3.735   0.557   4.093  0.1604  0.0550 -0.0654
 6099TIP3    H139788   3.760   0.471   4.059  2.6943  0.7852 -0.2394
 6099TIP3    H239789   3.775   0.620   4.034  0.3564  1.3715  1.3782
 6100TIP3   OH239790   0.500   3.654   5.595  0.1490  0.1030  0.1217
 6100TIP3    H139791   0.423   3.654   5.539  0.0574 -1.3224  0.2066
 6100TIP3    H239792   0.467   3.674   5.683 -0.3265 -1.5220  0.3543
 6101TIP3   OH239793   3.202   3.204  12.223  0.5183  0.1930  0.5757
 6101TIP3    H139794   3.153   3.230  12.300 -0.3609 -2.3345  0.9663
 6101TIP3    H239795   3.135   3.183  12.158  1.1453 -0.6816  0.1942
 6102TIP3   OH239796   0.448   2.300   1.299  0.1609 -0.2456 -0.1574
 6102TIP3    H139797   0.474   2.390   1.281 -0.0708 -0.7410 -3.6791
 6102TIP3    H239798   0.386   2.307   1.372  0.1450  2.4409 -0.3268
 6103TIP3   OH239799   6.365   1.039   0.606  0.3121 -0.1293  0.1309
 6103TIP3    H139800   6.322   0.957   0.580  0.3102  0.3319 -1.4439
 6103TIP3    H239801   6.320   1.106   0.555  0.7059  0.7837  0.9707
 6104TIP3   OH239802   2.156   6.315  13.810 -0.4452  0.7905  0.2224
 6104TIP3    H139803   2.173   6.314  13.904  2.4011  0.5155 -0.2129
 6104TIP3    H239804   2.193   6.398  13.780  2.6491 -0.9297 -1.1762
 6105TIP3   OH239805   6.786   6.150  16.155  0.4031  0.1059  0.8027
 6105TIP3    H139806   6.776   6.065  16.199 -0.5789 -0.3844 -0.3174
 6105TIP3    H239807   6.841   6.131  16.079 -1.4400  0.0437 -0.5541
 6106TIP3   OH239808   1.065   4.078  12.329 -0.1041 -0.3314 -0.3029
 6106TIP3    H139809   0.981   4.033  12.337 -0.8494  1.0558  0.0335
 6106TIP3    H239810   1.042   4.171  12.329  1.3588  0.0638 -1.1393
 6107TIP3   OH239811   0.936   0.367  11.530 -0.2501 -0.2449 -0.1502
 6107TIP3    H139812   0.870   0.299  11.522 -0.5102 -0.0785  0.5073
 6107TIP3    H239813   0.890   0.441  11.570  0.1396  0.1565 -0.4347
 6108TIP3   OH239814   2.639   3.903  15.941 -0.9334  0.1912 -0.3040
 6108TIP3    H139815   2.734   3.890  15.948 -0.8247  1.4296  0.8331
 6108TIP3    H239816   2.615   3.859  15.859  0.3184 -1.6691  0.2740
 6109TIP3   OH239817   3.573   6.464   1.135 -0.3724 -0.1299 -0.3178
 6109TIP3    H139818   3.569   6.501   1.223  0.0261  0.6497 -0.6065
 6109TIP3    H239819   3.486   6.429   1.119 -0.1715 -1.1644  0.7495
 6110TIP3   OH239820   4.331   2.281   2.394 -0.8022  0.0699  0.1953
 6110TIP3    H139821   4.321   2.195   2.436 -0.1520  0.2638  0.7589
 6110TIP3    H239822   4.372   2.335   2.461  0.3077  0.3807 -0.7149
 6111TIP3   OH239823   0.956   6.460   2.011 -0.0120 -0.1524  0.1562
 6111TIP3    H139824   0.886   6.524   1.994 -0.2481 -0.8019 -1.5249
 6111TIP3    H239825   0.910   6.380   2.036  0.0232 -0.8232 -1.7506
 6112TIP3   OH239826   4.193   6.338   4.109  0.2414 -0.2215  0.2945
 6112TIP3    H139827   4.154   6.425   4.112  0.0351 -0.2736 -0.5118
 6112TIP3    H239828   4.194   6.309   4.200 -0.2696  0.3689  0.5006
 6113TIP3   OH239829   3.288   4.268  12.004 -0.8951  0.7054  0.7138
 6113TIP3    H139830   3.305   4.361  12.017 -1.3082  0.9354 -0.3541
 6113TIP3    H239831   3.246   4.262  11.918 -0.0040 -0.5661  0.3385
 6114TIP3   OH239832   1.977   4.160   5.274  0.0826  0.7109  0.3953
 6114TIP3    H139833   2.057   4.193   5.315  0.1728  0.6921  0.2322
 6114TIP3    H239834   1.909   4.172   5.342  0.0993  1.2884  0.3149
 6115TIP3   OH239835   1.348   0.104  16.232  0.3679 -0.1855  0.0235
 6115TIP3    H139836   1.353   0.128  16.324  0.3603 -0.4950  0.1065
 6115TIP3    H239837   1.297   0.174  16.192  0.0693 -0.2296  0.3211
 6116TIP3   OH239838   0.226   1.308  10.887  0.1659 -0.0819  0.3246
 6116TIP3    H139839   0.193   1.221  10.910 -1.4440  0.4671  0.2453
 6116TIP3    H239840   0.193   1.365  10.957  0.1079  0.6677 -0.3034
 6117TIP3   OH239841   6.416   3.576   0.101  0.2990 -0.4821  0.7436
 6117TIP3    H139842   6.459   3.506   0.053  0.7701 -0.4261  1.0835
 6117TIP3    H239843   6.467   3.587   0.181 -0.7167 -0.8605  1.4718
 6118TIP3   OH239844   5.081   2.744   3.121  0.2452  0.0782  0.0845
 6118TIP3    H139845   5.012   2.700   3.171  1.7909 -0.5952  1.7371
 6118TIP3    H239846   5.129   2.794   3.186  0.5892  1.5511 -1.2440
 6119TIP3   OH239847   1.006   4.965   1.681  0.2242  0.3769 -0.2759
 6119TIP3    H139848   1.028   4.873   1.694  1.6889  0.5443 -1.3641
 6119TIP3    H239849   0.916   4.973   1.714  0.4470 -1.1906  0.8136
 6120TIP3   OH239850   6.504   4.375  12.477  0.5537 -0.2728  0.3245
 6120TIP3    H139851   6.439   4.315  12.441  1.3507 -0.6022 -0.6180
 6120TIP3    H239852   6.456   4.455  12.497 -0.2961 -0.8130  0.4700
 6121TIP3   OH239853   5.261   3.513   3.637 -0.2890  0.9587  0.0711
 6121TIP3    H139854   5.318   3.444   3.672 -0.2487 -0.3171 -2.3394
 6121TIP3    H239855   5.317   3.591   3.636  0.7003  0.2654 -0.1353
 6122TIP3   OH239856   1.434   0.725   2.192  0.5280 -0.0224 -0.1579
 6122TIP3    H139857   1.502   0.660   2.173 -0.4302 -0.9062 -0.6343
 6122TIP3    H239858   1.413   0.711   2.285  0.8569  0.1277 -0.0584
 6123TIP3   OH239859   5.324   1.134  15.671  0.5125 -0.3404 -0.1509
 6123TIP3    H139860   5.393   1.149  15.607 -0.4376 -0.2511 -1.1884
 6123TIP3    H239861   5.370   1.117  15.754  1.7866 -1.3751 -1.0365
 6124TIP3   OH239862   1.425   6.220   5.609  0.0940  0.3869 -0.3570
 6124TIP3    H139863   1.479   6.152   5.648 -0.6748 -0.4024 -0.6366
 6124TIP3    H239864   1.441   6.298   5.663  0.3367 -0.2309  0.4743
 6125TIP3   OH239865   1.629   2.730  14.648  0.0857  0.3459 -0.3249
 6125TIP3    H139866   1.615   2.823  14.634 -0.8471 -0.1611 -3.3875
 6125TIP3    H239867   1.551   2.700  14.694  0.4711  1.0549  0.8331
 6126TIP3   OH239868   1.966   6.491  12.786 -0.0477 -0.0152 -0.2062
 6126TIP3    H139869   2.018   6.455  12.714 -1.2288 -1.6482 -0.2839
 6126TIP3    H239870   1.921   6.415  12.824 -1.2601  1.1436  0.7683
 6127TIP3   OH239871   3.889   0.758   3.993 -0.3300  0.1877  0.2821
 6127TIP3    H139872   3.979   0.778   4.019 -0.6539  0.9492  0.8849
 6127TIP3    H239873   3.874   0.811   3.915 -0.5894  0.8847  0.7979
 6128TIP3   OH239874   6.815   2.162   0.481  0.5175 -0.7501 -0.1234
 6128TIP3    H139875   6.789   2.199   0.565  0.3360  0.6076 -0.7519
 6128TIP3    H239876   6.754   2.199   0.418  1.0735 -1.2061 -0.9546
 6129TIP3   OH239877   0.981   1.444   3.541  0.0390  0.0212  0.0928
 6129TIP3    H139878   0.945   1.436   3.453  0.6084 -1.9532 -0.0105
 6129TIP3    H239879   0.938   1.521   3.578  1.2992  2.1641 -2.5901
 6130TIP3   OH239880   4.215   3.013   2.509 -0.4004 -0.6751 -1.0762
 6130TIP3    H139881   4.309   2.997   2.504 -0.5414 -1.1557 -4.2000
 6130TIP3    H239882   4.198   3.078   2.441 -2.4130 -1.1742 -1.1263
 6131TIP3   OH239883   4.603   2.884  14.502 -0.0876  0.1266 -0.4141
 6131TIP3    H139884   4.613   2.977  14.481 -0.0523  0.1614 -0.2474
 6131TIP3    H239885   4.586   2.883  14.596  0.1031 -0.0490 -0.3802
 6132TIP3   OH239886   0.617   5.154   3.875  0.2508 -0.1186 -0.0207
 6132TIP3    H139887   0.685   5.139   3.809 -0.7184  1.4783 -1.4893
 6132TIP3    H239888   0.658   5.211   3.940  0.3634  0.8594 -0.9120
 6133TIP3   OH239889   1.366   0.214  16.513  0.2078 -0.3957  0.6463
 6133TIP3    H139890   1.423   0.136  16.514  0.7758 -0.0357 -0.7491
 6133TIP3    H239891   1.417   0.281  16.559  0.4977 -0.3433  0.2499
 6134TIP3   OH239892   4.351   5.601  11.213  0.0059  0.0313 -0.5648
 6134TIP3    H139893   4.281   5.602  11.278 -0.7322  0.1371 -1.3434
 6134TIP3    H239894   4.307   5.579  11.131  0.8679  0.2237 -1.0914
 6135TIP3   OH239895   4.582   1.177  15.783 -0.0324  0.9447  0.2373
 6135TIP3    H139896   4.653   1.233  15.810 -0.0902  1.3537 -0.4375
 6135TIP3    H239897   4.624   1.098  15.750  0.0387  0.4462  1.4620
 6136TIP3   OH239898   2.830   4.986   0.011  0.0131 -0.0600  0.3494
 6136TIP3    H139899   2.848   4.899  -0.026  0.5908  0.1522  0.1240
 6136TIP3    H239900   2.916   5.025   0.024 -0.1995  0.0436  1.5342
 6137TIP3   OH239901   2.925   2.256  15.453 -0.0398 -0.2204  0.0414
 6137TIP3    H139902   2.988   2.323  15.479  1.1431 -1.5076  0.5969
 6137TIP3    H239903   2.862   2.252  15.525  1.1822 -1.2472  1.1156
 6138TIP3   OH239904   3.804   0.757  13.378  0.4747 -0.8276 -0.2159
 6138TIP3    H139905   3.889   0.758  13.334  0.9675 -1.9582  0.6490
 6138TIP3    H239906   3.777   0.665  13.376 -1.1866 -0.3624 -1.2756
 6139TIP3   OH239907   6.281   4.369   1.765 -0.1187  0.7204  0.2892
 6139TIP3    H139908   6.304   4.410   1.682 -2.9458  1.7804 -0.0835
 6139TIP3    H239909   6.311   4.279   1.757  0.5402  1.0593 -1.4894
 6140TIP3   OH239910   5.076   5.062  14.063  0.2088  0.4804  0.1493
 6140TIP3    H139911   5.168   5.054  14.042  0.1013  0.3912 -0.2917
 6140TIP3    H239912   5.073   5.126  14.134  0.6755 -0.0502  0.6569
 6141TIP3   OH239913   4.504   1.810   5.089 -0.5103  0.0402 -0.1736
 6141TIP3    H139914   4.450   1.809   5.168 -0.1971 -2.0418  0.0704
 6141TIP3    H239915   4.455   1.865   5.027 -1.3926  0.6530  1.0271
 6142TIP3   OH239916   6.527   3.260  15.774 -0.1930 -0.4077 -0.8605
 6142TIP3    H139917   6.587   3.213  15.716 -0.5112  0.8255 -2.2334
 6142TIP3    H239918   6.584   3.311  15.831  0.0882 -0.7003 -0.8740
 6143TIP3   OH239919   3.058   3.818   4.343 -0.3411  0.7927  0.2406
 6143TIP3    H139920   3.001   3.741   4.337 -0.0509  0.4574  1.4376
 6143TIP3    H239921   3.146   3.785   4.323  0.0251  0.4538  2.1791
 6144TIP3   OH239922   3.557   6.371   0.553 -0.1060  0.1926 -0.3651
 6144TIP3    H139923   3.581   6.335   0.638  0.7417  0.5126 -0.4542
 6144TIP3    H239924   3.462   6.365   0.550 -0.2352  1.1156  1.0238
 6145TIP3   OH239925   5.057   1.632   4.043  0.3241  0.2645  0.0871
 6145TIP3    H139926   4.981   1.685   4.022 -1.1809 -1.1781  1.6039
 6145TIP3    H239927   5.065   1.571   3.970 -1.4786 -1.0996  0.9378
 6146TIP3   OH239928   6.799   6.225   2.315 -0.1699  0.0967  0.1291
 6146TIP3    H139929   6.784   6.250   2.406  0.4149  0.2979  0.1762
 6146TIP3    H239930   6.713   6.200   2.282 -0.5257  0.8239  0.4926
 6147TIP3   OH239931   4.022   3.238  11.081 -0.1016 -0.2119 -0.5048
 6147TIP3    H139932   3.968   3.306  11.040  0.4552  0.9486  0.6301
 6147TIP3    H239933   4.110   3.254  11.047 -0.1952 -1.2198 -1.2619
 6148TIP3   OH239934   2.330   6.518  15.819  0.3613 -0.5596 -0.4131
 6148TIP3    H139935   2.313   6.427  15.795 -0.6264 -0.2126 -1.1077
 6148TIP3    H239936   2.424   6.530  15.804  0.1789 -0.9685 -2.1006
 6149TIP3   OH239937   3.596   6.028  16.113  0.4181  0.2073  0.4897
 6149TIP3    H139938   3.677   6.074  16.135  1.5940 -0.8307 -1.4273
 6149TIP3    H239939   3.610   5.938  16.142 -0.6093  0.2808  1.3142
 6150TIP3   OH239940   1.234   3.061   5.909 -0.1083  0.1523 -0.2097
 6150TIP3    H139941   1.141   3.057   5.931  0.1513 -0.2678  0.9004
 6150TIP3    H239942   1.278   3.058   5.994  1.0763 -3.9709 -0.7535
 6151TIP3   OH239943   3.152   1.245  14.765 -0.1154 -0.1057 -0.5505
 6151TIP3    H139944   3.103   1.322  14.739 -0.9248 -0.5295 -0.3273
 6151TIP3    H239945   3.214   1.277  14.831  0.5063  0.5873 -1.4542
 6152TIP3   OH239946   0.219   5.596  12.153  0.6451  0.2456  0.2379
 6152TIP3    H139947   0.266   5.658  12.209  0.3013  1.4617 -0.7705
 6152TIP3    H239948   0.128   5.602  12.182  0.5757  0.3863 -0.0025
 6153TIP3   OH239949   6.705   6.072   3.243 -0.2913  0.3616  0.3000
 6153TIP3    H139950   6.723   6.122   3.163  0.3861  0.8419  0.7402
 6153TIP3    H239951   6.766   6.107   3.307 -0.4379 -0.4115  0.8782
 6154TIP3   OH239952   5.071   6.247  14.448 -0.3878 -0.2477 -0.1814
 6154TIP3    H139953   5.063   6.278  14.358 -0.4353 -0.0181 -0.1011
 6154TIP3    H239954   5.067   6.152  14.442  2.9472 -0.4716 -0.7714
 6155TIP3   OH239955   2.484   2.271  11.459  0.1233  0.2360 -0.8123
 6155TIP3    H139956   2.393   2.281  11.435 -0.0292 -1.2948 -0.9540
 6155TIP3    H239957   2.491   2.182  11.494  1.8575 -0.2705 -2.2552
 6156TIP3   OH239958   4.795   0.633  14.867 -0.5390 -0.4242  0.3666
 6156TIP3    H139959   4.866   0.695  14.886  0.7300 -1.2518 -1.4470
 6156TIP3    H239960   4.724   0.687  14.834 -0.2065  0.2567  0.7387
 6157TIP3   OH239961   0.667   3.744   1.112  0.4590  0.1162 -0.0370
 6157TIP3    H139962   0.597   3.723   1.050  1.3167 -1.1002 -0.6358
 6157TIP3    H239963   0.747   3.716   1.069  1.3467  1.5470  0.6164
 6158TIP3   OH239964   2.165   5.031  16.510 -0.6145  0.5152  0.3322
 6158TIP3    H139965   2.123   5.002  16.429  0.1514 -0.2499  0.1944
 6158TIP3    H239966   2.124   4.978  16.578 -0.7324  0.6314  0.3524
 6159TIP3   OH239967   4.997   2.026   5.195 -0.3323 -0.0964 -0.2281
 6159TIP3    H139968   5.073   1.981   5.233 -0.3988  0.1015  0.1416
 6159TIP3    H239969   4.940   1.956   5.165  0.4206 -0.2510 -1.3729
 6160TIP3   OH239970   3.300   4.177  15.543  0.1794  0.1888 -0.4742
 6160TIP3    H139971   3.383   4.146  15.578 -0.6899 -1.4140  0.2557
 6160TIP3    H239972   3.280   4.254  15.597  1.1844  0.6146 -0.6777
 6161TIP3   OH239973   4.068   2.867   5.206  0.0385 -0.0902  0.7005
 6161TIP3    H139974   4.128   2.827   5.268  1.1731  0.9261  0.2936
 6161TIP3    H239975   4.072   2.810   5.129  1.4934  0.6550  0.1954
 6162TIP3   OH239976   2.476   4.151   0.819  0.0636 -0.3230  0.1771
 6162TIP3    H139977   2.570   4.167   0.813  0.0311  0.1670  0.8333
 6162TIP3    H239978   2.437   4.217   0.761  0.0726  0.3046  0.8585
 6163TIP3   OH239979   2.922   4.886   5.500  0.4374 -0.2771  0.5917
 6163TIP3    H139980   2.875   4.835   5.434  0.4021  0.7523 -0.2058
 6163TIP3    H239981   2.855   4.912   5.563 -0.1390  1.3032 -0.6144
 6164TIP3   OH239982   0.309   2.894   5.032  0.1751 -0.6898  0.1375
 6164TIP3    H139983   0.247   2.844   5.085 -0.7682 -1.3673 -1.5360
 6164TIP3    H239984   0.391   2.890   5.081 -0.2053 -2.7913  0.7028
 6165TIP3   OH239985   5.876   5.161   2.797 -0.0907 -0.7304 -0.2077
 6165TIP3    H139986   5.809   5.161   2.865  0.8716  2.3097  0.9087
 6165TIP3    H239987   5.959   5.155   2.845  0.6325  1.9239 -0.9561
 6166TIP3   OH239988   0.848   3.048  12.608 -0.2250  0.1328  0.3277
 6166TIP3    H139989   0.889   3.133  12.621  0.5470  0.3291 -2.5647
 6166TIP3    H239990   0.823   3.048  12.515  0.9986 -3.2547 -0.1578
 6167TIP3   OH239991   3.746   3.402   5.039  1.0095  0.7087 -0.5104
 6167TIP3    H139992   3.673   3.417   4.979  1.1422 -0.0295 -0.8629
 6167TIP3    H239993   3.719   3.327   5.092  2.3075 -0.9168 -2.0069
 6168TIP3   OH239994   3.818   1.575   1.749 -0.0986  0.3153  0.0128
 6168TIP3    H139995   3.865   1.503   1.707 -2.0643 -1.9537  1.4576
 6168TIP3    H239996   3.726   1.552   1.740 -0.7321  1.9150  1.8100
 6169TIP3   OH239997   5.931   3.362  13.762  0.2431  0.5233  0.1697
 6169TIP3    H139998   5.959   3.288  13.707  2.9894 -1.1534  3.4399
 6169TIP3    H239999   6.011   3.413  13.776 -0.3734  0.9728  2.3880
 6170TIP3   OH240000   3.633   6.135   4.180 -0.2265 -0.2168  0.4623
 6170TIP3    H140001   3.635   6.043   4.152  0.0955 -0.2585  0.6216
 6170TIP3    H240002   3.725   6.163   4.177  0.0136 -0.5954  2.7508
 6171TIP3   OH240003   1.496   2.574  12.849  0.0651  0.1810  0.2689
 6171TIP3    H140004   1.530   2.492  12.882  1.3214  0.0426 -1.2494
 6171TIP3    H240005   1.406   2.578  12.882  0.5067 -1.0057  1.6935
 6172TIP3   OH240006   2.249   1.281  15.795 -0.1122  0.3270 -0.0003
 6172TIP3    H140007   2.170   1.289  15.741  0.3136 -1.2405 -0.9155
 6172TIP3    H240008   2.253   1.188  15.818  2.1094  0.1063 -1.0186
 6173TIP3   OH240009   3.599   6.136   2.134 -0.2467 -0.4070 -0.6054
 6173TIP3    H140010   3.563   6.151   2.222  0.2332 -2.8610  0.0947
 6173TIP3    H240011   3.522   6.129   2.078 -0.5954  0.3581 -0.2325
 6174TIP3   OH240012   2.100   1.107  15.366 -0.1293 -0.0491 -0.1905
 6174TIP3    H140013   2.178   1.062  15.332 -1.1867 -1.5463 -0.7223
 6174TIP3    H240014   2.036   1.100  15.296 -0.8751  0.8791  0.3738
 6175TIP3   OH240015   2.026   3.514  11.840 -0.2933 -0.0146 -0.3607
 6175TIP3    H140016   2.054   3.578  11.774  0.6932  1.7643  1.6570
 6175TIP3    H240017   1.957   3.559  11.889 -1.9726 -1.8103 -0.9342
 6176TIP3   OH240018   0.360   6.704   1.657 -0.1764  0.3110 -0.3518
 6176TIP3    H140019   0.370   6.672   1.747  0.3851 -0.0641 -0.5444
 6176TIP3    H240020   0.368   6.799   1.664 -1.9646  0.4650  0.2442
 6177TIP3   OH240021   1.619   4.446  16.004  0.0805  0.6845  0.0002
 6177TIP3    H140022   1.625   4.506  15.930  0.5878 -0.3872 -0.8467
 6177TIP3    H240023   1.647   4.498  16.079  1.5389  1.2176 -0.8810
 6178TIP3   OH240024   5.822   4.373   1.927  0.2146 -0.0226 -0.5440
 6178TIP3    H140025   5.854   4.388   1.838  0.4919 -3.1576 -1.0966
 6178TIP3    H240026   5.842   4.281   1.944 -1.5381 -0.0213  2.0736
 6179TIP3   OH240027   4.554   1.430  16.617 -0.0163  0.0932 -0.6961
 6179TIP3    H140028   4.480   1.415  16.557 -1.2081 -1.1464  0.9855
 6179TIP3    H240029   4.631   1.402  16.567 -1.0538 -1.7193 -1.3836
 6180TIP3   OH240030   4.371   3.008  11.759 -0.0383 -0.3820 -0.3012
 6180TIP3    H140031   4.429   2.983  11.832 -0.6685 -0.4258  0.1870
 6180TIP3    H240032   4.303   2.941  11.759  0.6093 -1.1014 -1.7170
 6181TIP3   OH240033   3.783   3.583   3.859  0.3539 -0.3479 -0.1112
 6181TIP3    H140034   3.770   3.492   3.888  0.6481  0.2915  2.2467
 6181TIP3    H240035   3.873   3.586   3.828 -0.4921 -1.4749 -3.0509
 6182TIP3   OH240036   1.145   2.982   1.370  0.7672 -0.0967 -0.7415
 6182TIP3    H140037   1.111   3.032   1.296  0.1783  1.1496  0.3398
 6182TIP3    H240038   1.067   2.940   1.408  0.9622 -0.1707 -0.4177
 6183TIP3   OH240039   2.094   2.129  17.112  0.2367 -0.4329  0.0101
 6183TIP3    H140040   2.082   2.111  17.018  0.2352  2.4179 -0.6205
 6183TIP3    H240041   2.069   2.220  17.122 -3.3337 -1.5407  3.5254
 6184TIP3   OH240042   2.181   6.781   4.712 -1.0067  0.1028 -0.7412
 6184TIP3    H140043   2.104   6.796   4.658 -0.7920  1.6209 -0.6546
 6184TIP3    H240044   2.147   6.765   4.800 -1.2495 -0.0827 -0.8686
 6185TIP3   OH240045   2.225   4.831   5.095 -0.2040 -0.3316 -0.6438
 6185TIP3    H140046   2.227   4.744   5.055 -0.1687  0.5457 -2.6738
 6185TIP3    H240047   2.274   4.887   5.034 -0.6978  1.2122  0.3215
 6186TIP3   OH240048   3.298   2.773  15.144  0.1048 -0.5806 -0.7699
 6186TIP3    H140049   3.242   2.843  15.178 -0.8539 -2.0212  0.8080
 6186TIP3    H240050   3.238   2.714  15.099  0.4761 -1.6307  0.0634
 6187TIP3   OH240051   5.174   3.510   0.623  0.4918  0.3835  0.1171
 6187TIP3    H140052   5.173   3.457   0.702 -0.8569 -0.1464 -0.2302
 6187TIP3    H240053   5.114   3.582   0.642 -0.7392 -0.3640 -0.8092
 6188TIP3   OH240054   5.869   1.338  12.471  0.1591 -0.3794  0.4831
 6188TIP3    H140055   5.927   1.290  12.412  0.5336 -1.7186  1.8818
 6188TIP3    H240056   5.811   1.270  12.507 -1.8283  0.7896 -0.2929
 6189TIP3   OH240057   2.781   0.419  14.624  0.4070  0.0307 -0.4060
 6189TIP3    H140058   2.866   0.449  14.594  0.0862  1.6906  0.2464
 6189TIP3    H240059   2.790   0.324  14.630  1.7775  0.0539 -1.6232
 6190TIP3   OH240060   0.005   1.970  13.263 -1.0739 -0.0364 -0.3639
 6190TIP3    H140061   0.046   1.908  13.324  2.1035  0.9978 -1.2925
 6190TIP3    H240062  -0.046   1.915  13.204 -0.9345 -1.4385  0.7642
 6191TIP3   OH240063   3.029   2.213  15.874 -0.3148  0.0393 -0.3856
 6191TIP3    H140064   3.124   2.205  15.859 -0.4303 -0.6686 -0.8262
 6191TIP3    H240065   3.005   2.130  15.916 -0.2853  1.3173  2.3728
 6192TIP3   OH240066   1.201   4.291   2.017  0.2706 -0.1845  0.6409
 6192TIP3    H140067   1.271   4.255   2.071  2.1646 -0.1134 -1.5771
 6192TIP3    H240068   1.190   4.381   2.049  1.9590  0.1434  0.4048
 6193TIP3   OH240069   2.427   6.213  10.038 -0.1932 -0.7589 -0.4688
 6193TIP3    H140070   2.406   6.273  10.110 -1.4608 -1.5670 -0.1309
 6193TIP3    H240071   2.418   6.267   9.959 -0.2922 -0.2458 -0.1113
 6194TIP3   OH240072   5.991   0.768  12.628  0.7068  0.7409  0.3852
 6194TIP3    H140073   5.940   0.766  12.547 -0.1772  1.2542  0.8976
 6194TIP3    H240074   6.067   0.713  12.611  0.1347  0.2045 -0.5222
 6195TIP3   OH240075   4.482   1.119   1.462 -0.1151 -0.0547 -0.3202
 6195TIP3    H140076   4.405   1.171   1.484  0.3467 -0.0131  1.3359
 6195TIP3    H240077   4.463   1.031   1.495  1.4268  0.4947  2.3778
 6196TIP3   OH240078   1.230   3.107   5.455  0.5924 -0.3094 -0.3446
 6196TIP3    H140079   1.197   3.157   5.380  1.0498 -0.1137 -0.4219
 6196TIP3    H240080   1.260   3.173   5.517 -2.2490 -0.3547  1.2276
 6197TIP3   OH240081   6.276   0.164  16.163 -0.0213 -0.1186 -0.5722
 6197TIP3    H140082   6.309   0.142  16.250 -0.4861 -0.9201 -0.5877
 6197TIP3    H240083   6.333   0.117  16.103 -0.6733 -0.8646 -0.6280
 6198TIP3   OH240084   2.090   4.513   6.421 -0.1670 -0.1315  0.2098
 6198TIP3    H140085   2.089   4.417   6.421 -1.3969 -0.1756 -1.5540
 6198TIP3    H240086   2.018   4.537   6.479 -0.2891 -0.2895  0.1250
 6199TIP3   OH240087   4.222   6.305  16.098 -0.2002 -0.6286 -0.4722
 6199TIP3    H140088   4.253   6.351  16.176  0.3291 -0.8808 -0.5263
 6199TIP3    H240089   4.243   6.364  16.026  0.1131 -0.7769 -0.5039
 6200TIP3   OH240090   2.871   0.171  11.587 -0.4094  0.6090  0.4647
 6200TIP3    H140091   2.851   0.167  11.493  0.6332  3.3019  0.0362
 6200TIP3    H240092   2.950   0.225  11.592 -0.7035  0.9139  2.9419
 6201TIP3   OH240093   2.544   3.131   4.187 -0.2490 -0.1879 -0.6557
 6201TIP3    H140094   2.592   3.118   4.268 -0.0190  1.0272 -0.5819
 6201TIP3    H240095   2.526   3.042   4.155 -0.2496 -0.6734  0.6534
 6202TIP3   OH240096   0.941   5.799  11.428 -0.4111 -0.6417  0.0862
 6202TIP3    H140097   0.939   5.865  11.359 -2.5571 -1.5014 -0.7756
 6202TIP3    H240098   0.918   5.846  11.507  0.4647  0.0604 -0.0659
 6203TIP3   OH240099   0.312   3.245  15.712  0.1021  0.6567 -0.4517
 6203TIP3    H140100   0.396   3.292  15.719  0.1706  0.9605 -2.6451
 6203TIP3    H240101   0.293   3.244  15.619 -0.5504 -2.6020 -0.3994
 6204TIP3   OH240102   5.133   1.727   4.859  0.4848  0.3968  0.3886
 6204TIP3    H140103   5.188   1.648   4.857  0.2298  0.1961  1.1523
 6204TIP3    H240104   5.098   1.730   4.948 -2.3189 -0.5525 -0.5751
 6205TIP3   OH240105   2.890   2.672   0.963 -0.7649 -0.0672 -0.2578
 6205TIP3    H140106   2.853   2.652   1.049  0.1047 -1.4222 -0.1756
 6205TIP3    H240107   2.981   2.697   0.981  0.0711 -2.3815 -0.9041
 6206TIP3   OH240108   2.628   1.815   5.407 -0.8971  0.0449 -0.4076
 6206TIP3    H140109   2.685   1.816   5.484 -1.4314 -2.5550  0.1336
 6206TIP3    H240110   2.540   1.831   5.442 -0.8718  1.3416 -0.8703
 6207TIP3   OH240111   0.793   0.837  11.814 -0.1739 -0.2629 -0.0879
 6207TIP3    H140112   0.724   0.903  11.815 -0.2398 -0.2996 -1.1454
 6207TIP3    H240113   0.779   0.786  11.895 -0.3006  0.8135  0.5842
 6208TIP3   OH240114   0.980   3.266  13.743  0.5385 -0.2933 -0.1864
 6208TIP3    H140115   0.896   3.242  13.781  0.8759 -1.8242 -0.3542
 6208TIP3    H240116   0.958   3.321  13.668 -0.2728 -0.0115  0.2480
 6209TIP3   OH240117   1.700   0.683  16.533 -0.7065  0.6643 -0.0685
 6209TIP3    H140118   1.775   0.724  16.490 -0.1900  0.2971  0.4651
 6209TIP3    H240119   1.632   0.750  16.532 -0.3346  1.0407 -0.4524
 6210TIP3   OH240120   1.918   3.065   4.954 -0.1789 -0.1115 -0.0203
 6210TIP3    H140121   2.001   3.105   4.928  1.0645 -2.1419  0.5399
 6210TIP3    H240122   1.935   3.030   5.042 -2.4101  1.4665  1.1176
 6211TIP3   OH240123   5.397   5.201   0.991 -0.3123  0.4026  0.0652
 6211TIP3    H140124   5.363   5.161   0.911  1.0015 -1.3212  0.2966
 6211TIP3    H240125   5.337   5.273   1.010 -0.5214  0.9884 -2.5588
 6212TIP3   OH240126   0.836   6.387  14.463  0.6023  0.2758 -0.6630
 6212TIP3    H140127   0.879   6.367  14.380 -2.7612 -1.7661 -2.0791
 6212TIP3    H240128   0.852   6.310  14.518  1.4914  0.9629  0.0928
 6213TIP3   OH240129   5.657   1.583   5.295  0.5321 -0.5599  0.5956
 6213TIP3    H140130   5.612   1.629   5.365 -0.9116 -0.7396 -0.1648
 6213TIP3    H240131   5.639   1.490   5.312 -2.6161 -0.5101 -1.6924
 6214TIP3   OH240132   1.021   2.002  12.171 -0.0230 -0.0314 -0.5743
 6214TIP3    H140133   1.033   1.915  12.134  1.1817  0.1733 -0.6976
 6214TIP3    H240134   0.967   2.048  12.107 -0.2537 -0.5230 -0.7391
 6215TIP3   OH240135   4.234   3.914   0.795  0.4240  0.2234  0.6315
 6215TIP3    H140136   4.299   3.850   0.767  0.7928  1.0072 -0.3885
 6215TIP3    H240137   4.158   3.862   0.819  0.6210 -0.6060 -0.4374
 6216TIP3   OH240138   0.339   5.647  11.594  0.0127  0.1880  0.5723
 6216TIP3    H140139   0.311   5.607  11.676 -0.7557  0.4095  0.4247
 6216TIP3    H240140   0.358   5.738  11.617  0.8610 -0.0211  0.7209
 6217TIP3   OH240141   5.330   0.748   2.020 -0.1351 -0.3406 -0.2649
 6217TIP3    H140142   5.297   0.810   1.955  2.3743  0.2841 -1.0931
 6217TIP3    H240143   5.280   0.767   2.099 -0.5633  1.6766 -0.9452
 6218TIP3   OH240144   2.297   6.467  14.376  0.0079  0.6355 -0.4036
 6218TIP3    H140145   2.302   6.556  14.341  0.1796  1.3329  1.2856
 6218TIP3    H240146   2.297   6.411  14.299  2.4976  1.9724 -1.4785
 6219TIP3   OH240147   4.962   4.045  13.193  0.2448 -0.2493  0.1821
 6219TIP3    H140148   4.888   4.002  13.236  0.7948 -0.4654  0.9262
 6219TIP3    H240149   4.972   4.128  13.241  0.8165 -0.4605  0.4275
 6220TIP3   OH240150   6.292   5.930  17.092 -0.5284  0.3186  0.4524
 6220TIP3    H140151   6.229   5.910  17.161 -0.6130 -0.2138  0.2263
 6220TIP3    H240152   6.366   5.873  17.109  0.4764  1.8525  1.4819
 6221TIP3   OH240153   4.866   3.255   4.485  0.0819 -0.4782  0.6879
 6221TIP3    H140154   4.815   3.221   4.412  0.2021  0.3781  0.1858
 6221TIP3    H240155   4.811   3.242   4.562 -0.6676 -0.0688  0.2312
 6222TIP3   OH240156   1.886   5.311   2.542 -0.8583  0.5695  0.0858
 6222TIP3    H140157   1.806   5.304   2.490 -1.5787  0.5710  1.1706
 6222TIP3    H240158   1.909   5.221   2.564 -1.3909  0.6427  0.9897
 6223TIP3   OH240159   2.594   5.838   1.343 -0.3025  0.3527 -0.0481
 6223TIP3    H140160   2.583   5.743   1.333 -1.2877  0.3426  0.9588
 6223TIP3    H240161   2.506   5.873   1.335 -0.3054  0.9316  1.9578
 6224TIP3   OH240162   2.348   3.937   5.290 -0.4935  0.3727 -0.7718
 6224TIP3    H140163   2.410   4.009   5.276 -0.5838  0.3766 -1.1910
 6224TIP3    H240164   2.267   3.981   5.317  0.2215  0.2479  1.7983
 6225TIP3   OH240165   5.427   1.284  13.544 -0.3171 -0.1687 -0.0094
 6225TIP3    H140166   5.461   1.372  13.526  0.0564 -0.4932 -0.9133
 6225TIP3    H240167   5.342   1.300  13.585  1.5139  0.7323  3.9562
 6226TIP3   OH240168   4.988   3.314   1.203 -0.5459 -0.6289 -0.5441
 6226TIP3    H140169   5.065   3.312   1.260 -0.7932  1.8451  0.0127
 6226TIP3    H240170   5.013   3.373   1.132 -2.1956  1.0784  0.1955
 6227TIP3   OH240171   1.776   4.433  15.227 -0.5794 -0.3134  0.2419
 6227TIP3    H140172   1.696   4.403  15.271 -1.9084  2.1877 -0.2823
 6227TIP3    H240173   1.799   4.514  15.272  1.8135 -1.0288  0.4561
 6228TIP3   OH240174   3.893   0.043  16.752  0.1569 -0.4342 -0.3660
 6228TIP3    H140175   3.937   0.037  16.837 -0.3487  0.1986 -0.0505
 6228TIP3    H240176   3.909  -0.042  16.711 -1.0320 -1.4093  1.0764
 6229TIP3   OH240177   1.220   0.295  16.828  0.1132 -0.4807 -0.0430
 6229TIP3    H140178   1.260   0.356  16.766  0.5070 -0.1404  0.5333
 6229TIP3    H240179   1.148   0.255  16.779  1.1811 -1.1618 -1.1239
 6230TIP3   OH240180   3.829   6.124  16.261  0.0314  0.3859 -0.7218
 6230TIP3    H140181   3.809   6.186  16.191 -0.2253  0.3356 -0.6945
 6230TIP3    H240182   3.754   6.130  16.320 -0.1665 -0.2169 -0.9077
 6231TIP3   OH240183   4.355   5.661  15.069  0.0819 -0.0279  0.1383
 6231TIP3    H140184   4.412   5.613  15.129  0.3853 -0.2151 -0.2892
 6231TIP3    H240185   4.307   5.593  15.021  0.0149  0.1109  0.0071
 6232TIP3   OH240186   4.645   5.616   1.045 -0.2030  0.5711 -0.0697
 6232TIP3    H140187   4.590   5.686   1.010  0.3679  1.4759  0.7880
 6232TIP3    H240188   4.642   5.547   0.979 -1.3949  1.0948 -0.5769
 6233TIP3   OH240189   5.101   1.002  16.036 -0.1159 -0.2723 -0.1005
 6233TIP3    H140190   5.099   1.006  15.941  0.7467 -2.2272 -0.2522
 6233TIP3    H240191   5.010   0.985  16.061 -0.1179 -1.1770 -0.6886
 6234TIP3   OH240192   5.918   0.608   6.356  0.3282 -0.2480 -0.6554
 6234TIP3    H140193   5.847   0.672   6.356 -0.0820 -0.6715 -1.7748
 6234TIP3    H240194   5.879   0.529   6.395  0.9363  0.2479  1.0623
 6235TIP3   OH240195   3.144   6.674   3.358 -0.2171  0.3269 -0.0368
 6235TIP3    H140196   3.219   6.643   3.309 -0.6162 -2.1914  0.7613
 6235TIP3    H240197   3.068   6.639   3.311 -0.9037  2.2297 -0.4396
 6236TIP3   OH240198   6.228   4.742   0.645  0.1242 -0.2204  0.6190
 6236TIP3    H140199   6.307   4.779   0.686  2.1090 -1.8765 -1.4451
 6236TIP3    H240200   6.214   4.659   0.689 -0.5772  0.1201  1.0586
 6237TIP3   OH240201   6.326   3.876  15.517  0.2741 -0.0841  0.9095
 6237TIP3    H140202   6.343   3.932  15.441 -0.7534 -2.0635 -0.8822
 6237TIP3    H240203   6.261   3.924  15.568  0.6615  1.1036  0.3159
 6238TIP3   OH240204   0.419   4.759  13.116 -0.4403  0.2789 -0.1006
 6238TIP3    H140205   0.388   4.848  13.103 -0.4406 -0.0738 -3.1508
 6238TIP3    H240206   0.412   4.745  13.211 -2.8034  2.6236  0.1933
 6239TIP3   OH240207   6.187   6.090  11.262  0.7128 -0.2954  0.1652
 6239TIP3    H140208   6.243   6.077  11.338  0.4646 -0.5129  0.3151
 6239TIP3    H240209   6.099   6.072  11.295  0.6734 -1.0290 -0.3296
 6240TIP3   OH240210   1.437   4.380  12.035 -0.1718  0.5377  0.0827
 6240TIP3    H140211   1.451   4.394  12.128 -0.3299  1.8640 -0.0745
 6240TIP3    H240212   1.410   4.289  12.028  0.7339  0.1619  1.2298
 6241TIP3   OH240213   1.085   1.875   4.632 -0.3819 -0.1969  0.0873
 6241TIP3    H140214   1.034   1.865   4.712 -0.1665  0.1551  0.2702
 6241TIP3    H240215   1.034   1.829   4.565 -0.4504 -0.6868  0.4695
 6242TIP3   OH240216   0.991   5.263   2.750  0.4748  0.2536 -0.0893
 6242TIP3    H140217   0.961   5.351   2.772  0.2243 -0.1740  1.3704
 6242TIP3    H240218   0.928   5.205   2.793  0.0412 -0.6539 -1.8738
 6243TIP3   OH240219   0.521   6.046   1.678  0.2356 -0.3483 -0.5915
 6243TIP3    H140220   0.470   5.965   1.676  0.6157 -0.5814 -0.9459
 6243TIP3    H240221   0.456   6.116   1.672 -0.2624 -0.5532  1.4879
 6244TIP3   OH240222   5.151   6.079   3.265  0.0333  0.1830 -0.1832
 6244TIP3    H140223   5.128   6.082   3.358  0.7668  0.3951 -0.0012
 6244TIP3    H240224   5.068   6.060   3.221  0.1903 -3.3451  0.7311
 6245TIP3   OH240225   0.114   5.091   0.033  0.1095 -0.3086  0.2173
 6245TIP3    H140226   0.045   5.063   0.093 -0.7168  1.1902  0.0205
 6245TIP3    H240227   0.077   5.075  -0.054  1.4572 -2.8536  0.0189
 6246TIP3   OH240228   2.533   5.671   5.865 -1.0264  0.1532 -0.2162
 6246TIP3    H140229   2.490   5.701   5.946  0.3248 -1.1317  1.0457
 6246TIP3    H240230   2.526   5.576   5.869  2.4884 -0.1900  0.4459
 6247TIP3   OH240231   1.268   1.450   5.424 -0.2109 -0.2634  0.3939
 6247TIP3    H140232   1.351   1.439   5.471  0.1345  1.3217  0.2192
 6247TIP3    H240233   1.290   1.508   5.351 -0.9063 -1.9682 -1.2745
 6248TIP3   OH240234   4.449   5.172  15.625  0.2954  0.0121 -0.5831
 6248TIP3    H140235   4.391   5.223  15.682 -0.5476 -0.2091 -1.2181
 6248TIP3    H240236   4.517   5.138  15.684 -1.0934 -1.0321  0.5020
 6249TIP3   OH240237   4.664   4.254  16.010  0.0345 -0.1469 -0.4816
 6249TIP3    H140238   4.751   4.233  15.976 -0.1345 -2.4694  0.3774
 6249TIP3    H240239   4.607   4.184  15.977 -0.4195 -1.7240  3.1505
 6250TIP3   OH240240   4.566   6.010   3.935  0.1116  0.2445  0.0716
 6250TIP3    H140241   4.480   6.048   3.955 -0.0123  0.1679 -0.2970
 6250TIP3    H240242   4.582   5.947   4.005  0.1574  0.7136  0.4952
 6251TIP3   OH240243   5.577   0.327   3.337  0.0742  0.2762 -0.5703
 6251TIP3    H140244   5.530   0.264   3.391  1.1291 -0.3836 -0.3827
 6251TIP3    H240245   5.514   0.354   3.271 -1.4711  1.6104  1.3474
 6252TIP3   OH240246   3.022   3.115  12.017  0.6024 -0.1655 -0.2349
 6252TIP3    H140247   3.070   3.044  11.974 -0.3334 -0.7116 -0.4173
 6252TIP3    H240248   2.935   3.111  11.978  0.4859  0.9823 -0.1116
 6253TIP3   OH240249   0.449   2.645  15.619 -0.3020 -0.1323  0.3696
 6253TIP3    H140250   0.452   2.740  15.609 -1.3891 -0.2906 -2.2449
 6253TIP3    H240251   0.379   2.630  15.683 -0.9632  0.8088 -0.1110
 6254TIP3   OH240252   1.207   6.570   1.202  0.2274  0.3612 -0.4424
 6254TIP3    H140253   1.244   6.485   1.227 -0.6119  0.0429 -0.2438
 6254TIP3    H240254   1.191   6.561   1.108  0.8829  0.5937 -0.5811
 6255TIP3   OH240255   0.071   6.153  11.068  0.2199  0.0675 -0.4416
 6255TIP3    H140256   0.045   6.068  11.033  0.9163 -1.5813  2.7017
 6255TIP3    H240257  -0.011   6.202  11.076 -0.9712 -2.0756  1.8861
 6256TIP3   OH240258   0.105   6.616   0.248  0.3391 -0.0650 -0.1569
 6256TIP3    H140259   0.081   6.611   0.341 -0.7740 -0.4234 -0.4487
 6256TIP3    H240260   0.183   6.560   0.241 -0.0054 -0.6396  0.4350
 6257TIP3   OH240261   1.891   6.253   0.764  0.7170  0.7446 -0.0857
 6257TIP3    H140262   1.836   6.271   0.840 -1.3669 -2.1197 -0.7558
 6257TIP3    H240263   1.873   6.325   0.704 -0.2656  1.2346  0.7679
 6258TIP3   OH240264   3.298   5.184   0.013  0.4074  0.1240  0.2362
 6258TIP3    H140265   3.227   5.121  -0.001 -0.9169  1.7303 -0.8104
 6258TIP3    H240266   3.258   5.269  -0.008  1.6335  1.5320  3.0994
 6259TIP3   OH240267   2.849   3.940  16.337  0.2140  0.0121 -0.1941
 6259TIP3    H140268   2.806   3.872  16.389  0.0557  0.7467  0.6569
 6259TIP3    H240269   2.806   4.021  16.363  1.1922  0.5927 -0.3267
 6260TIP3   OH240270   0.830   1.790  15.854 -0.2496  0.0481 -0.1919
 6260TIP3    H140271   0.774   1.777  15.777  2.3171 -1.1150 -2.0030
 6260TIP3    H240272   0.910   1.829  15.818  1.3467 -1.2684  1.7482
 6261TIP3   OH240273   1.062   3.224   3.675  0.0587  0.1555 -0.2689
 6261TIP3    H140274   1.031   3.138   3.702  0.2164  0.1140 -0.2185
 6261TIP3    H240275   1.033   3.283   3.745  1.3375 -0.1058  0.5147
 6262TIP3   OH240276   0.437   6.578  17.102  0.0198 -0.2245 -0.4923
 6262TIP3    H140277   0.348   6.602  17.075 -0.3915  1.7504  2.2068
 6262TIP3    H240278   0.494   6.636  17.052 -0.4922  0.9897  0.2851
 6263TIP3   OH240279   1.260   6.490  14.904  0.0623  0.2197  0.2506
 6263TIP3    H140280   1.243   6.466  14.995 -1.4153 -2.3935 -0.5970
 6263TIP3    H240281   1.351   6.464  14.888  0.4378  1.0225  1.0555
 6264TIP3   OH240282   0.215   5.474  13.637 -0.0996 -0.1957  0.1513
 6264TIP3    H140283   0.124   5.464  13.665  0.0848  0.6832  1.1551
 6264TIP3    H240284   0.238   5.564  13.661  0.8119 -0.1604 -0.7674
 6265TIP3   OH240285   0.305   2.287   5.548  0.0924  0.3769 -0.0452
 6265TIP3    H140286   0.270   2.205   5.581  1.3512  0.3340  1.2873
 6265TIP3    H240287   0.278   2.353   5.612 -0.2365  0.8791 -0.6814
 6266TIP3   OH240288   0.595   4.641  14.317  0.0118  0.2287  0.0624
 6266TIP3    H140289   0.545   4.702  14.373  1.8510  0.5675  1.4190
 6266TIP3    H240290   0.585   4.556  14.360  0.1235  0.1810 -0.0079
 6267TIP3   OH240291   3.470   6.618   4.609  0.2865  0.0247  0.2264
 6267TIP3    H140292   3.525   6.586   4.681  0.3783 -1.7450 -0.5752
 6267TIP3    H240293   3.384   6.578   4.625  0.4718 -0.8922 -0.9467
 6268TIP3   OH240294   5.673   5.392  12.464  0.4223  0.0458 -0.2974
 6268TIP3    H140295   5.600   5.336  12.490 -0.1037  1.1556  0.6690
 6268TIP3    H240296   5.744   5.330  12.445  0.1480 -0.9410  1.6320
 6269TIP3   OH240297   2.134   4.862   3.277 -0.0530  0.2369 -0.5397
 6269TIP3    H140298   2.171   4.822   3.199  2.7740 -0.2734  0.9337
 6269TIP3    H240299   2.085   4.791   3.320  0.2988 -0.1035 -0.6988
 6270TIP3   OH240300   2.742   3.599   0.315  0.2503  0.4161 -0.0019
 6270TIP3    H140301   2.790   3.622   0.395  0.5547  3.2976 -0.9128
 6270TIP3    H240302   2.810   3.590   0.249 -0.1747  0.3350 -0.4320
 6271TIP3   OH240303   1.203   4.966  13.572  0.0345 -0.0875  0.5613
 6271TIP3    H140304   1.289   4.985  13.535  0.4031 -0.1983  1.3351
 6271TIP3    H240305   1.205   4.871  13.588  0.0956  0.0393  1.3604
 6272TIP3   OH240306   0.305   1.741   3.907 -0.6665  0.4725 -0.5945
 6272TIP3    H140307   0.305   1.720   3.813 -0.1554 -0.2282 -0.4474
 6272TIP3    H240308   0.295   1.656   3.950  2.1585  0.3611  0.0466
 6273TIP3   OH240309   1.073   5.358   3.285  0.3338 -0.2011  0.0159
 6273TIP3    H140310   0.979   5.348   3.300  0.5936 -1.0741  1.2536
 6273TIP3    H240311   1.080   5.409   3.204 -1.1972  0.0037 -0.0094
 6274TIP3   OH240312   4.203   5.523  12.122 -0.4106  0.2000  0.1011
 6274TIP3    H140313   4.284   5.481  12.094 -0.8759 -0.6501 -0.0125
 6274TIP3    H240314   4.179   5.580  12.050 -0.6757 -0.6583 -0.5140
 6275TIP3   OH240315   3.742   5.728   0.918 -0.0159  0.2693 -0.0185
 6275TIP3    H140316   3.788   5.708   0.836  0.6589 -1.4150  0.7342
 6275TIP3    H240317   3.687   5.804   0.896 -0.4295 -0.5854 -2.2453
 6276TIP3   OH240318   0.093   3.202   4.155 -0.3359 -0.0719  0.1977
 6276TIP3    H140319   0.025   3.174   4.216  0.2702  0.9926  1.4191
 6276TIP3    H240320   0.075   3.295   4.139 -0.0714 -0.1678 -0.6939
 6277TIP3   OH240321   5.311   2.511  13.671  0.5838  0.1598 -0.2560
 6277TIP3    H140322   5.269   2.483  13.589 -1.5838  3.3852 -0.4285
 6277TIP3    H240323   5.246   2.494  13.738  2.3274 -2.4034  0.9520
 6278TIP3   OH240324   0.071   4.988   3.552 -0.0638  0.2073  0.4915
 6278TIP3    H140325   0.062   4.969   3.459  0.8107  0.1385  0.4109
 6278TIP3    H240326   0.014   5.063   3.567  0.4902  0.8076 -0.3024
 6279TIP3   OH240327   4.240   4.883   3.804  0.2397  0.7279  0.5491
 6279TIP3    H140328   4.266   4.914   3.718  0.3476  1.1806  0.7407
 6279TIP3    H240329   4.312   4.828   3.834  0.8836  1.7699  0.9730
 6280TIP3   OH240330   1.186   1.047   0.617  0.5769 -0.3257  0.5106
 6280TIP3    H140331   1.103   1.074   0.658  0.0021 -1.1804 -0.0595
 6280TIP3    H240332   1.250   1.109   0.651  0.0420 -0.7104  2.3623
 6281TIP3   OH240333   2.376   1.285  11.455  0.1041 -0.0715 -0.0646
 6281TIP3    H140334   2.396   1.379  11.454 -0.8644  0.1540 -1.4396
 6281TIP3    H240335   2.341   1.268  11.368  1.3792 -1.9780 -0.2587
 6282TIP3   OH240336   3.043   1.601   1.576 -0.2856  0.1805  0.2759
 6282TIP3    H140337   3.081   1.593   1.664  1.0164  0.3807 -0.2490
 6282TIP3    H240338   2.994   1.520   1.564 -0.0269 -0.0875  0.9788
 6283TIP3   OH240339   5.628   5.535   6.059 -0.1921  0.5306  0.0040
 6283TIP3    H140340   5.636   5.596   6.133 -1.4876  0.4400  0.2410
 6283TIP3    H240341   5.545   5.490   6.074 -1.2679  1.5723 -2.2640
 6284TIP3   OH240342   4.196   4.577  15.218 -0.5430  0.1369  0.4543
 6284TIP3    H140343   4.175   4.602  15.308 -1.3212  1.7584 -0.1381
 6284TIP3    H240344   4.284   4.539  15.224 -0.0134  1.4649  1.7248
 6285TIP3   OH240345   4.931   6.203  16.301  0.7349  0.7429  0.1788
 6285TIP3    H140346   4.949   6.287  16.258 -0.3853  1.2949  0.7307
 6285TIP3    H240347   4.864   6.224  16.366  0.2958 -0.6271  0.1944
 6286TIP3   OH240348   0.283   4.500  12.327 -0.0773  0.3414  0.0053
 6286TIP3    H140349   0.356   4.551  12.292 -0.6389  1.2810  0.1666
 6286TIP3    H240350   0.283   4.518  12.421  2.8472 -3.9191  1.1288
 6287TIP3   OH240351   6.011   4.377  15.357  0.1645 -0.4884  0.2702
 6287TIP3    H140352   5.957   4.414  15.287 -0.6607 -1.5907  0.2960
 6287TIP3    H240353   5.972   4.291  15.374 -0.3688  0.2199  2.9097
 6288TIP3   OH240354   3.473   2.900   4.945 -0.2655 -0.2162 -0.0008
 6288TIP3    H140355   3.449   2.807   4.947 -0.6211 -0.1259 -0.0375
 6288TIP3    H240356   3.466   2.925   4.854 -0.4498 -0.0790  0.0520
 6289TIP3   OH240357   5.666   2.097   4.736  0.0829 -0.4265  0.1595
 6289TIP3    H140358   5.593   2.159   4.732  0.8159  0.4342 -0.2140
 6289TIP3    H240359   5.625   2.011   4.730 -0.7020  0.0374 -3.9566
 6290TIP3   OH240360   2.206   3.676   2.923 -0.1148 -0.4062  0.1165
 6290TIP3    H140361   2.250   3.596   2.895 -0.0023 -0.2880 -0.0489
 6290TIP3    H240362   2.127   3.680   2.869 -1.5896 -1.8488  2.0170
 6291TIP3   OH240363   0.445   0.722   5.816 -0.3434 -0.1608  0.0445
 6291TIP3    H140364   0.503   0.798   5.811 -1.6208  0.9028  0.7986
 6291TIP3    H240365   0.432   0.695   5.725  0.3719  0.3070 -0.2069
 6292TIP3   OH240366   2.203   4.508  14.363 -0.2314 -0.0188 -0.4963
 6292TIP3    H140367   2.225   4.424  14.323 -1.1098 -0.9439  0.8473
 6292TIP3    H240368   2.249   4.508  14.447 -1.5184  0.0924  0.2454
 6293TIP3   OH240369   0.722   4.211  16.963  0.6582 -0.1287  0.4693
 6293TIP3    H140370   0.629   4.189  16.965  0.9269 -1.4944 -0.5769
 6293TIP3    H240371   0.725   4.301  16.932 -0.3266 -0.0024  0.7270
 6294TIP3   OH240372   0.523   4.610  14.052 -0.5526  0.1165  0.3736
 6294TIP3    H140373   0.561   4.614  14.139  0.2680 -0.2590  0.0488
 6294TIP3    H240374   0.574   4.672  14.000  0.7367 -1.5313 -0.4524
 6295TIP3   OH240375   4.799   5.914  13.743  0.1239 -0.1740  0.2584
 6295TIP3    H140376   4.817   5.848  13.810  2.2294 -1.0053 -1.0302
 6295TIP3    H240377   4.786   5.995  13.792 -0.4091 -1.1255  1.7583
 6296TIP3   OH240378   5.020   1.099  13.246 -0.6353 -0.1913 -0.5049
 6296TIP3    H140379   5.046   1.009  13.262 -1.9390 -0.6999 -1.0972
 6296TIP3    H240380   5.096   1.151  13.272  0.1664 -1.4535 -0.2377
 6297TIP3   OH240381   3.018   1.288   6.590 -0.4312 -0.2765  0.4757
 6297TIP3    H140382   2.975   1.282   6.675 -1.6864  2.6945  0.1866
 6297TIP3    H240383   2.967   1.230   6.533 -0.9016 -0.6661  1.2797
 6298TIP3   OH240384   6.307   1.195  15.543 -0.2663 -0.5570 -0.3629
 6298TIP3    H140385   6.242   1.132  15.573 -0.6765  0.1388  0.2256
 6298TIP3    H240386   6.279   1.219  15.455  0.5046 -2.0130 -1.0358
 6299TIP3   OH240387   0.932   4.288   4.190 -0.0744  0.1408  0.0775
 6299TIP3    H140388   1.009   4.232   4.200  1.5901  2.4586  1.3008
 6299TIP3    H240389   0.903   4.306   4.279  0.1253  2.0207 -0.1854
 6300TIP3   OH240390   4.497   6.528   4.117  0.0333 -0.0333 -0.4728
 6300TIP3    H140391   4.443   6.467   4.167  0.1145  0.4014  0.1676
 6300TIP3    H240392   4.506   6.604   4.175  0.7343  0.1858 -0.8606
 6301TIP3   OH240393   2.367   6.117  16.509  0.3576  0.0434 -0.6495
 6301TIP3    H140394   2.357   6.205  16.473 -0.6682 -0.0847 -0.7177
 6301TIP3    H240395   2.363   6.060  16.432  0.2377 -0.1076 -0.5312
 6302TIP3   OH240396   6.644   4.728   3.253  0.0372 -0.4219 -0.3876
 6302TIP3    H140397   6.598   4.663   3.307 -1.1161  1.8752  1.6282
 6302TIP3    H240398   6.611   4.812   3.285  3.5857  1.3061 -0.8134
 6303TIP3   OH240399   1.014   5.227   6.370  0.5720  0.4281 -0.2111
 6303TIP3    H140400   0.962   5.301   6.402  2.6084  1.6562  0.4421
 6303TIP3    H240401   0.949   5.162   6.343 -1.2797  1.8861  0.5075
 6304TIP3   OH240402   1.695   6.627   0.843 -0.1415 -0.2253  0.1292
 6304TIP3    H140403   1.644   6.639   0.922 -1.5709 -0.8547 -0.6531
 6304TIP3    H240404   1.675   6.538   0.815  0.2244  0.0312 -1.0060
 6305TIP3   OH240405   3.910   3.128  14.989  0.3416 -0.0719  0.2391
 6305TIP3    H140406   3.936   3.038  14.972 -0.7321 -0.3928  0.2033
 6305TIP3    H240407   3.815   3.123  15.003  0.5022  0.8211  1.8296
 6306TIP3   OH240408   3.653   6.420  13.780  0.1823 -0.0467  0.4362
 6306TIP3    H140409   3.694   6.505  13.793  0.7291  0.1780 -2.1963
 6306TIP3    H240410   3.561   6.440  13.761  0.4966  0.0919 -1.0872
 6307TIP3   OH240411   0.431   1.310  15.105  0.1634  0.3510 -0.2214
 6307TIP3    H140412   0.381   1.329  15.184 -2.3200 -0.5545 -1.4530
 6307TIP3    H240413   0.471   1.225  15.122 -0.1873  0.2577  0.1652
 6308TIP3   OH240414   0.700   2.871   5.535  0.0355  0.2611 -0.0925
 6308TIP3    H140415   0.607   2.865   5.554 -0.0566 -4.1885 -0.9583
 6308TIP3    H240416   0.705   2.882   5.440  0.3189 -1.3885 -0.2931
 6309TIP3   OH240417   4.797   2.219   2.540 -0.0597 -0.4006  0.2994
 6309TIP3    H140418   4.706   2.224   2.571 -0.5668  0.8870 -1.2386
 6309TIP3    H240419   4.792   2.172   2.457  0.6300 -0.0230  0.0320
 6310TIP3   OH240420   3.898   0.189   2.317  0.0627 -0.3127  0.0528
 6310TIP3    H140421   3.876   0.173   2.225  1.8490 -1.3870 -0.2355
 6310TIP3    H240422   3.960   0.262   2.314  0.5942 -0.7482  0.3401
 6311TIP3   OH240423   4.098   1.548  11.623 -0.2679 -0.3250 -0.0819
 6311TIP3    H140424   4.084   1.625  11.567 -2.4421 -0.8018 -0.2740
 6311TIP3    H240425   4.050   1.478  11.579  2.2584 -2.0488 -0.3084
 6312TIP3   OH240426   5.921   6.136   2.854 -0.3182  0.3256 -0.2758
 6312TIP3    H140427   5.840   6.094   2.824 -0.4161  0.5383 -0.3105
 6312TIP3    H240428   5.955   6.077   2.922  0.4558 -0.7092 -1.5152
 6313TIP3   OH240429   1.749   4.700   3.405  0.2889 -0.0095 -0.3067
 6313TIP3    H140430   1.808   4.666   3.337  2.3961  2.0988  0.3134
 6313TIP3    H240431   1.758   4.795   3.398 -1.3841  0.3099  1.2927
 6314TIP3   OH240432   0.267   1.108  16.329 -0.1477  0.3149  0.3601
 6314TIP3    H140433   0.323   1.030  16.334 -1.5432 -0.9108 -1.7376
 6314TIP3    H240434   0.179   1.076  16.347 -0.6663  1.5190  0.0572
 6315TIP3   OH240435   6.544   2.663   0.147 -0.6992 -0.0479 -0.9620
 6315TIP3    H140436   6.594   2.599   0.097 -3.3494 -1.3183 -2.2046
 6315TIP3    H240437   6.582   2.748   0.124  1.6372 -0.9808 -0.8061
 6316TIP3   OH240438   6.754   0.257  12.075 -0.6269  0.3916  0.6366
 6316TIP3    H140439   6.700   0.252  12.154 -0.4994 -1.5777  0.6451
 6316TIP3    H240440   6.692   0.266  12.004 -0.8432  0.4676  0.8327
 6317TIP3   OH240441   4.354   2.773  13.944  0.1735 -0.0307 -0.2292
 6317TIP3    H140442   4.423   2.773  13.877 -0.7690  0.3512 -1.2407
 6317TIP3    H240443   4.317   2.861  13.939  0.1355  0.0199  0.8699
 6318TIP3   OH240444   3.041   3.829  14.086  0.7424  0.4780 -0.0673
 6318TIP3    H140445   3.093   3.758  14.124  1.3618  1.2571  0.5665
 6318TIP3    H240446   3.083   3.909  14.116  0.2441  1.1289 -1.0365
 6319TIP3   OH240447   2.504   2.601   4.342 -0.1957 -0.3738 -0.1640
 6319TIP3    H140448   2.503   2.517   4.387  1.3938  0.0035  0.6364
 6319TIP3    H240449   2.491   2.579   4.250 -0.7564 -1.4025  0.1512
 6320TIP3   OH240450   4.849   6.382  15.573  0.1733 -0.0336 -0.0014
 6320TIP3    H140451   4.783   6.327  15.531 -0.3621 -0.3302  1.1769
 6320TIP3    H240452   4.799   6.435  15.636  1.1997 -1.4338  2.1294
 6321TIP3   OH240453   4.921   5.415   2.400  0.4359  0.4744  0.1777
 6321TIP3    H140454   4.937   5.480   2.332  4.0521 -0.1764  0.1957
 6321TIP3    H240455   4.948   5.332   2.360  0.6610 -0.2240  1.7077
 6322TIP3   OH240456   1.314   5.858  16.497 -0.1081 -0.1234 -0.4598
 6322TIP3    H140457   1.253   5.905  16.554 -0.0234  0.8478 -1.1427
 6322TIP3    H240458   1.328   5.774  16.540 -0.8615  0.1838  0.4035
 6323TIP3   OH240459   0.238   2.729  14.847  0.5979  0.2574  0.3402
 6323TIP3    H140460   0.288   2.686  14.778 -0.1330 -1.8124  1.0127
 6323TIP3    H240461   0.152   2.745  14.808  0.8600  1.1459  0.1002
 6324TIP3   OH240462   3.230   5.701   2.184  0.2983 -0.7218 -0.4970
 6324TIP3    H140463   3.251   5.793   2.201  0.3352  0.1366 -4.3244
 6324TIP3    H240464   3.311   5.655   2.201  1.1813  0.4455 -1.3313
 6325TIP3   OH240465   1.454   5.884  13.660  0.0665 -0.0350 -0.1617
 6325TIP3    H140466   1.466   5.978  13.648 -1.5114  0.1265 -0.6012
 6325TIP3    H240467   1.426   5.875  13.751  1.1006 -0.1861  0.1544
 6326TIP3   OH240468   5.361   0.141   0.560 -0.2084 -0.6030  0.1733
 6326TIP3    H140469   5.371   0.056   0.602  1.1148 -0.6352 -0.1557
 6326TIP3    H240470   5.372   0.122   0.467 -1.6755 -0.3183 -0.0832
 6327TIP3   OH240471   3.752   1.998   3.540 -0.3872  0.2749  0.1789
 6327TIP3    H140472   3.826   1.971   3.486 -1.2273 -0.6803 -0.5225
 6327TIP3    H240473   3.768   1.957   3.625  0.3747  0.8838  0.3418
 6328TIP3   OH240474   0.625   3.317  11.369  0.5269  0.1860  0.0437
 6328TIP3    H140475   0.571   3.242  11.392 -0.0497 -0.4996 -3.0290
 6328TIP3    H240476   0.569   3.393  11.385  0.2889 -0.1824  1.0280
 6329TIP3   OH240477   5.574   4.903  11.899  0.3694  0.4710  0.4553
 6329TIP3    H140478   5.614   4.990  11.897  2.8078 -0.5406  1.6305
 6329TIP3    H240479   5.645   4.845  11.926 -1.3123 -1.8379  0.1419
 6330TIP3   OH240480   3.763   2.805   3.459  0.2953 -0.0276  0.2452
 6330TIP3    H140481   3.727   2.884   3.498 -1.6377 -0.0995 -1.2314
 6330TIP3    H240482   3.731   2.733   3.514 -1.4975 -0.0482 -0.7566
 6331TIP3   OH240483   6.393   4.498  12.966 -0.5529  0.5299  0.5548
 6331TIP3    H140484   6.362   4.411  12.994  1.3154 -0.4540 -0.2821
 6331TIP3    H240485   6.407   4.489  12.872  2.2656  0.8533  0.8679
 6332TIP3   OH240486   3.666   4.000   4.806 -0.0433 -0.2820  0.1646
 6332TIP3    H140487   3.740   4.052   4.836 -0.2850 -0.4888  1.1412
 6332TIP3    H240488   3.701   3.911   4.796  0.4935  0.1212 -1.9798
 6333TIP3   OH240489   3.409   1.076   1.506 -0.8220  0.1118  0.5759
 6333TIP3    H140490   3.403   0.994   1.455  1.6710  0.3893 -0.3331
 6333TIP3    H240491   3.502   1.096   1.506 -1.3240  2.7074  1.2332
 6334TIP3   OH240492   3.656   1.840  14.816  0.5505  0.1631  0.4960
 6334TIP3    H140493   3.747   1.867  14.805  0.9882 -0.7947  1.5475
 6334TIP3    H240494   3.619   1.904  14.878  0.6977  0.1814  0.5663
 6335TIP3   OH240495   6.703   2.932  11.938 -0.1022  0.3450  0.5492
 6335TIP3    H140496   6.668   2.912  12.025 -0.4871 -2.3509 -0.1453
 6335TIP3    H240497   6.759   2.858  11.917 -0.0434  0.9184 -1.5441
 6336TIP3   OH240498   5.674   5.462  13.534  0.0985 -0.5496 -0.0924
 6336TIP3    H140499   5.712   5.458  13.446 -0.8412 -3.0734 -0.4884
 6336TIP3    H240500   5.749   5.472  13.592  0.7950  0.5364 -1.1393
 6337TIP3   OH240501   6.585   0.518   3.456 -0.3997  0.1286  0.3833
 6337TIP3    H140502   6.624   0.489   3.539 -2.6393  0.1726  1.5268
 6337TIP3    H240503   6.613   0.453   3.392  1.0274 -0.1481  1.2364
 6338TIP3   OH240504   0.851   4.715   3.669  0.0089 -0.3155 -0.4003
 6338TIP3    H140505   0.801   4.796   3.680  1.4464  0.5561  0.0014
 6338TIP3    H240506   0.831   4.686   3.580 -1.8034 -0.4358  0.0178
 6339TIP3   OH240507   1.292   6.090  11.992  0.2121  0.5127  0.8011
 6339TIP3    H140508   1.385   6.106  11.981  0.1097  1.4532  1.2134
 6339TIP3    H240509   1.285   6.043  12.075  0.6193 -2.9744 -0.9488
 6340TIP3   OH240510   4.510   4.462  14.611  0.4096 -0.7061 -0.4072
 6340TIP3    H140511   4.519   4.460  14.706 -0.7387 -0.7357 -0.2911
 6340TIP3    H240512   4.477   4.550  14.592 -0.0064 -0.9284 -0.7173
 6341TIP3   OH240513   3.286   0.621  13.719 -0.3344  0.3492  0.5716
 6341TIP3    H140514   3.252   0.579  13.798  1.2498 -1.2015  0.4872
 6341TIP3    H240515   3.375   0.587  13.710 -0.2692  0.9425 -1.5597
 6342TIP3   OH240516   1.611   6.042  15.803 -0.4397  0.1047  0.6733
 6342TIP3    H140517   1.657   6.124  15.785 -0.0523  0.2742  2.2607
 6342TIP3    H240518   1.535   6.068  15.855  0.2007 -0.6058  2.0149
 6343TIP3   OH240519   6.198   1.820   1.473 -0.5728 -0.1062 -0.4160
 6343TIP3    H140520   6.259   1.878   1.428 -1.3249 -0.2703 -1.6759
 6343TIP3    H240521   6.113   1.837   1.432 -1.3859  0.0128  1.1960
 6344TIP3   OH240522   2.827   5.566   1.410  0.2238 -0.5666  0.1288
 6344TIP3    H140523   2.836   5.471   1.405 -2.0407 -0.7591 -2.2131
 6344TIP3    H240524   2.917   5.599   1.403  1.0640 -2.4819  1.1127
 6345TIP3   OH240525   6.482   4.136   5.865  0.0708  0.1209  0.0406
 6345TIP3    H140526   6.557   4.088   5.900  0.9784  1.6538  0.2895
 6345TIP3    H240527   6.497   4.227   5.891 -1.3660  0.6374 -0.7877
 6346TIP3   OH240528   1.000   5.567  15.944 -0.0494  0.1628 -0.1143
 6346TIP3    H140529   1.030   5.520  16.022  0.0872  0.0411 -0.2404
 6346TIP3    H240530   0.968   5.651  15.977 -2.7364 -0.9711  0.4654
 6347TIP3   OH240531   2.829   3.236  14.490  0.0704  0.5166  0.5466
 6347TIP3    H140532   2.741   3.201  14.499  0.5630 -0.5772  1.4408
 6347TIP3    H240533   2.857   3.254  14.580 -0.2605  3.6039  0.1445
 6348TIP3   OH240534   2.121   0.128   1.426  0.0717 -0.4814  0.4878
 6348TIP3    H140535   2.179   0.059   1.394  0.2361  0.2710 -0.9260
 6348TIP3    H240536   2.176   0.206   1.430 -0.4274 -0.1388  0.7949
 6349TIP3   OH240537   5.883   2.834  10.440  0.2981 -0.2485 -0.4828
 6349TIP3    H140538   5.924   2.899  10.497 -1.1602  1.4674 -1.2838
 6349TIP3    H240539   5.913   2.750  10.474  1.3968  0.7923  1.2818
 6350TIP3   OH240540   6.005   5.162  12.968  0.1209  0.5353 -0.3021
 6350TIP3    H140541   5.910   5.163  12.981  0.2084 -1.3123  0.9654
 6350TIP3    H240542   6.018   5.113  12.887 -0.0405  2.8590 -1.8131
 6351TIP3   OH240543   2.333   1.536   4.050  0.0573  0.3683  0.0870
 6351TIP3    H140544   2.266   1.520   3.983  0.2043 -0.6876  0.1727
 6351TIP3    H240545   2.318   1.467   4.115 -0.1532  1.4310  1.2093
 6352TIP3   OH240546   1.926   2.641  13.433  0.3151  0.6222  0.3226
 6352TIP3    H140547   1.843   2.594  13.436 -0.5284  1.9057 -1.0121
 6352TIP3    H240548   1.902   2.733  13.444  1.6065  0.9853  0.3097
 6353TIP3   OH240549   5.127   2.729  15.420  0.5817 -0.1467  0.0178
 6353TIP3    H140550   5.159   2.815  15.392  0.2253 -0.3198 -0.9731
 6353TIP3    H240551   5.032   2.742  15.432  0.3305 -0.6612 -1.2645
 6354TIP3   OH240552   5.040   0.992  16.384  0.5310 -0.0075 -1.0856
 6354TIP3    H140553   5.034   1.057  16.455 -1.2846 -1.1552 -0.1125
 6354TIP3    H240554   5.017   1.041  16.305  3.0233  1.4093 -1.0614
 6355TIP3   OH240555   6.593   0.292  15.757  0.3308 -0.1753  0.7126
 6355TIP3    H140556   6.660   0.351  15.722 -0.6658  0.0055 -0.9978
 6355TIP3    H240557   6.638   0.209  15.767  0.0567 -1.2087 -4.2419
 6356TIP3   OH240558   0.659   0.953  12.082 -0.2691  0.2374 -0.2029
 6356TIP3    H140559   0.733   0.963  12.142 -0.9415  1.2675  0.4926
 6356TIP3    H240560   0.667   0.864  12.048  0.6757 -0.0322  0.6825
 6357TIP3   OH240561   5.140   4.495   0.458  0.5508 -0.0121 -0.0985
 6357TIP3    H140562   5.137   4.437   0.534  0.1370 -0.2212 -0.2734
 6357TIP3    H240563   5.119   4.439   0.384  1.1189  0.1606 -0.3904
 6358TIP3   OH240564   2.061   1.035   1.125  0.0340 -0.0577 -0.0786
 6358TIP3    H140565   2.088   0.953   1.083 -0.2359  0.3184 -1.0191
 6358TIP3    H240566   1.983   1.062   1.077  0.2754  0.8851  0.0461
 6359TIP3   OH240567   0.384   6.387  15.865 -0.1338 -0.1297 -0.7356
 6359TIP3    H140568   0.469   6.378  15.822 -0.1673 -0.1092 -0.8069
 6359TIP3    H240569   0.404   6.431  15.948  0.0358 -0.8904 -0.3616
 6360TIP3   OH240570   4.864   5.867   1.830 -0.1916 -0.2305 -0.0590
 6360TIP3    H140571   4.893   5.790   1.781  0.5801 -0.8469  1.2973
 6360TIP3    H240572   4.791   5.836   1.883 -1.4120  0.5754 -1.2220
 6361TIP3   OH240573   0.878   6.731  15.796  0.2948  0.4907 -0.1915
 6361TIP3    H140574   0.936   6.654  15.800  1.4946  1.3905  0.4006
 6361TIP3    H240575   0.790   6.694  15.789  0.6661 -1.0107  1.9946
 6362TIP3   OH240576   5.007   1.992  11.060 -0.3585  0.2334 -0.3345
 6362TIP3    H140577   5.020   1.928  11.129  0.7442  0.3706 -0.3985
 6362TIP3    H240578   4.980   2.072  11.106  0.7532  0.4363 -0.0068
 6363TIP3   OH240579   1.874   3.142   2.341 -0.7495 -0.5489  0.6718
 6363TIP3    H140580   1.934   3.068   2.353  0.2850  0.1860  0.2206
 6363TIP3    H240581   1.811   3.133   2.413 -0.4007 -1.6193  0.8719
 6364TIP3   OH240582   2.444   2.542   2.729  0.0962 -0.1890  0.1525
 6364TIP3    H140583   2.460   2.637   2.735  0.4976 -0.2842  0.6985
 6364TIP3    H240584   2.518   2.503   2.774  0.3269 -0.8029 -0.7378
 6365TIP3   OH240585   5.218   5.469  13.799 -0.1403  0.4367  0.2646
 6365TIP3    H140586   5.302   5.428  13.782  0.7209  2.2414 -0.1185
 6365TIP3    H240587   5.210   5.535  13.730 -0.8997  1.6817  1.4877
 6366TIP3   OH240588   2.353   3.063   3.405  0.4850 -0.8145 -0.1833
 6366TIP3    H140589   2.370   3.135   3.466 -0.6326 -0.5086 -0.2210
 6366TIP3    H240590   2.264   3.035   3.425  0.3598 -1.1804 -1.2092
 6367TIP3   OH240591   6.487   5.332  12.982  0.6793 -0.0533  0.0545
 6367TIP3    H140592   6.417   5.358  13.042  2.1635 -1.9314  2.7654
 6367TIP3    H240593   6.535   5.413  12.965 -1.1905  0.9717 -0.6542
 6368TIP3   OH240594   4.072   4.328   3.642 -0.4581 -0.4935  0.1356
 6368TIP3    H140595   4.005   4.268   3.608 -0.5908 -0.1930 -0.1429
 6368TIP3    H240596   4.067   4.404   3.584  1.2958 -1.1611 -0.9663
 6369TIP3   OH240597   2.934   3.534  15.609  0.1780 -0.5846  0.3339
 6369TIP3    H140598   2.926   3.443  15.637  0.0566 -0.6681  0.0349
 6369TIP3    H240599   2.989   3.531  15.530 -0.3579 -0.4785 -0.0527
 6370TIP3   OH240600   3.597   5.828   0.092 -0.1922 -0.2124  0.2465
 6370TIP3    H140601   3.578   5.739   0.124  1.9690 -0.0431  2.3140
 6370TIP3    H240602   3.564   5.885   0.161 -1.6773  0.6920 -1.1296
 6371TIP3   OH240603   5.393   6.415   2.889  0.7269 -0.5881  0.1127
 6371TIP3    H140604   5.359   6.423   2.978  0.4852 -3.4161  0.3593
 6371TIP3    H240605   5.326   6.456   2.834  0.3442  0.1675  1.1122
 6372TIP3   OH240606   2.135   2.441  12.386 -0.2981 -0.2407 -0.3148
 6372TIP3    H140607   2.204   2.488  12.433  0.2774 -0.0104 -1.3449
 6372TIP3    H240608   2.068   2.508  12.368 -0.5952 -0.3662  0.3054
 6373TIP3   OH240609   0.670   6.173  17.177 -0.2926  0.2103  0.0325
 6373TIP3    H140610   0.700   6.240  17.115 -0.9608 -0.8379 -1.4778
 6373TIP3    H240611   0.727   6.098  17.161 -0.0984  0.1047  1.1166
 6374TIP3   OH240612   4.139   0.126   6.264 -0.1784  0.1456 -0.4191
 6374TIP3    H140613   4.149   0.201   6.206  2.2717  1.2904  1.3113
 6374TIP3    H240614   4.121   0.165   6.350  1.0926 -1.2319  0.5194
 6375TIP3   OH240615   1.650   2.068   4.542 -0.5261 -0.6214  0.0792
 6375TIP3    H140616   1.679   1.999   4.482 -0.8953 -1.3185  0.6774
 6375TIP3    H240617   1.657   2.149   4.491 -1.1336 -1.2301 -1.0117
 6376TIP3   OH240618   4.941   5.276   1.113 -0.4517 -0.3809  0.1590
 6376TIP3    H140619   4.990   5.205   1.155  0.0045  0.7534  1.6506
 6376TIP3    H240620   4.874   5.232   1.062  0.9833 -1.9405 -0.4915
 6377TIP3   OH240621   1.936   5.891  15.689  0.0297  0.2210  0.1975
 6377TIP3    H140622   1.894   5.964  15.733  0.9340  0.2071  1.1282
 6377TIP3    H240623   1.984   5.845  15.758  0.6598 -0.4002 -0.6209
 6378TIP3   OH240624   0.140   0.939  15.197 -0.0633 -0.7794 -0.1939
 6378TIP3    H140625   0.224   0.958  15.157 -0.7911  2.3799 -0.4888
 6378TIP3    H240626   0.126   1.010  15.260 -1.5312 -2.4550  1.5204
 6379TIP3   OH240627   3.539   4.499  15.735 -0.1189 -0.3656  0.4082
 6379TIP3    H140628   3.496   4.568  15.685  1.7962  0.4802 -0.1794
 6379TIP3    H240629   3.532   4.527  15.826  0.7166  0.6802  0.1696
 6380TIP3   OH240630   2.049   0.416  15.516 -0.2459 -0.2902  0.4022
 6380TIP3    H140631   2.107   0.340  15.514  0.3534 -0.0387  3.6499
 6380TIP3    H240632   2.080   0.472  15.445  1.5111 -1.5427  0.1219
 6381TIP3   OH240633   5.445   0.587  16.113  0.5417  0.8110 -0.0374
 6381TIP3    H140634   5.480   0.582  16.202 -0.9081  2.6338  0.7187
 6381TIP3    H240635   5.377   0.654  16.119 -1.1079 -0.5692 -2.0325
 6382TIP3   OH240636   0.042   6.184   5.142  0.0317  0.0007  0.1475
 6382TIP3    H140637   0.043   6.182   5.046 -0.7228  0.3265  0.1263
 6382TIP3    H240638   0.027   6.276   5.164  1.3470  0.1355  0.6038
 6383TIP3   OH240639   4.157   2.044  16.705  0.7319  0.4620  0.1089
 6383TIP3    H140640   4.166   1.949  16.716 -0.0556  0.5697  2.0318
 6383TIP3    H240641   4.219   2.081  16.768 -0.8524  1.1981  1.2842
 6384TIP3   OH240642   3.817   5.669  12.378  0.6931 -0.3842  0.2297
 6384TIP3    H140643   3.762   5.713  12.313 -0.1568  0.0654  1.2206
 6384TIP3    H240644   3.898   5.720  12.381  0.2600  0.3060  0.3685
 6385TIP3   OH240645   5.336   1.895  13.657  0.6144  0.0500  0.1681
 6385TIP3    H140646   5.305   1.924  13.572  2.0140  0.2100 -0.3213
 6385TIP3    H240647   5.258   1.890  13.712 -0.6473 -2.1770 -1.7046
 6386TIP3   OH240648   6.212   0.842  12.151 -0.1142 -0.2418  0.0193
 6386TIP3    H140649   6.253   0.782  12.212  1.8895  0.8449 -0.1688
 6386TIP3    H240650   6.132   0.798  12.124 -0.3555 -1.3710  2.3195
 6387TIP3   OH240651   6.410   3.724   2.790 -0.2541  0.4988  0.2071
 6387TIP3    H140652   6.451   3.788   2.733 -2.6305  1.1505 -0.9101
 6387TIP3    H240653   6.356   3.776   2.849  0.4156 -0.3142  1.5919
 6388TIP3   OH240654   5.948   4.109   6.722  0.3134  0.2025 -0.1759
 6388TIP3    H140655   5.902   4.193   6.733  2.6537  1.4843  0.5981
 6388TIP3    H240656   5.883   4.043   6.744 -0.5623  1.9705  3.1565
 6389TIP3   OH240657   2.548   4.665  16.447 -0.1801  0.3218  0.0657
 6389TIP3    H140658   2.609   4.669  16.521  0.0978  1.4422 -0.2025
 6389TIP3    H240659   2.586   4.601  16.388  1.4652  1.8857 -0.6845
 6390TIP3   OH240660   5.687   0.944   5.190  0.4536 -0.7246 -0.5916
 6390TIP3    H140661   5.618   0.885   5.218  1.5039 -0.8746  2.0169
 6390TIP3    H240662   5.705   0.998   5.267  1.5803  0.9798 -1.9557
 6391TIP3   OH240663   5.539   5.076  16.673  0.1617  0.1992  0.2400
 6391TIP3    H140664   5.632   5.060  16.663  0.0745 -0.9320  1.0849
 6391TIP3    H240665   5.521   5.150  16.615  1.1546 -0.9782 -1.6654
 6392TIP3   OH240666   0.481   5.815  14.249 -0.1940  0.3442  0.0256
 6392TIP3    H140667   0.477   5.719  14.240 -1.4970  0.2074  1.4999
 6392TIP3    H240668   0.526   5.845  14.171  1.3273 -1.5694  0.0880
 6393TIP3   OH240669   3.059   5.077   3.545  0.0695 -0.1159 -0.0690
 6393TIP3    H140670   3.106   5.144   3.497  1.2704 -1.2122 -0.4744
 6393TIP3    H240671   3.053   5.111   3.634  0.2620  0.7187 -0.3693
 6394TIP3   OH240672   2.579   6.467  14.588 -0.4981 -0.0859 -0.4356
 6394TIP3    H140673   2.587   6.392  14.647 -0.7822  0.6752  0.5883
 6394TIP3    H240674   2.499   6.512  14.615 -1.3691 -0.4198 -2.2441
 6395TIP3   OH240675   3.396   5.835  16.398 -0.1705 -0.6584  0.5725
 6395TIP3    H140676   3.326   5.800  16.453 -0.4954  1.1816  1.4056
 6395TIP3    H240677   3.476   5.822  16.450 -0.0846 -1.4064  0.2654
 6396TIP3   OH240678   6.561   4.249   2.912 -0.5110  0.2141  0.0021
 6396TIP3    H140679   6.494   4.184   2.929 -2.3892  2.2536  0.8295
 6396TIP3    H240680   6.519   4.314   2.855  0.7148  1.5731  0.5575
 6397TIP3   OH240681   3.819   4.748  16.150 -0.2414  0.3197 -0.0112
 6397TIP3    H140682   3.824   4.661  16.191 -0.1007  0.2571 -0.1588
 6397TIP3    H240683   3.781   4.804  16.217  1.6064  0.6255  0.8560
 6398TIP3   OH240684   1.217   4.003   2.505 -0.4434 -0.6445  0.7803
 6398TIP3    H140685   1.148   3.938   2.513 -2.0326  0.7886 -0.5155
 6398TIP3    H240686   1.188   4.077   2.558  0.0431  0.0154  0.1523
 6399TIP3   OH240687   0.724   2.597  13.504 -0.2717 -0.3647 -0.0368
 6399TIP3    H140688   0.795   2.644  13.461 -0.0828  0.9291  1.6072
 6399TIP3    H240689   0.764   2.559  13.582 -1.0106 -1.0791  0.0031
 6400TIP3   OH240690   2.735   2.099   1.004 -0.7657  0.6911  0.2489
 6400TIP3    H140691   2.713   2.138   1.088  1.1954  0.9410  0.7135
 6400TIP3    H240692   2.809   2.152   0.973  1.0483 -1.7093  0.2029
 6401TIP3   OH240693   1.039   5.650  11.762 -0.1869  0.4466 -0.5363
 6401TIP3    H140694   1.107   5.627  11.825 -0.5952 -1.1179 -0.6155
 6401TIP3    H240695   0.971   5.693  11.814 -0.7281 -1.2497  0.2342
 6402TIP3   OH240696   5.781   5.196  15.242  0.9865 -0.2006 -0.5925
 6402TIP3    H140697   5.706   5.179  15.185  0.2166 -0.3171  0.4206
 6402TIP3    H240698   5.785   5.118  15.298  2.0699 -0.3380 -0.8575
 6403TIP3   OH240699   1.307   3.645   4.592  0.4113 -0.2503  0.3333
 6403TIP3    H140700   1.318   3.579   4.660  0.2059 -0.4385  0.1912
 6403TIP3    H240701   1.280   3.594   4.515 -0.6458  0.0810  0.4587
 6404TIP3   OH240702   3.817   1.537  12.024  0.1195 -0.1777 -0.3177
 6404TIP3    H140703   3.892   1.580  11.984 -0.7150 -0.8781 -2.8281
 6404TIP3    H240704   3.748   1.603  12.023  0.6394  0.5000  2.0775
 6405TIP3   OH240705   4.340   3.880  13.403  0.8974  0.2785  0.0995
 6405TIP3    H140706   4.326   3.809  13.341  1.8972  0.2655 -0.1245
 6405TIP3    H240707   4.327   3.960  13.351 -2.0344  0.3540  0.7366
 6406TIP3   OH240708   5.937   2.744   1.359 -0.3719  0.2888 -0.0990
 6406TIP3    H140709   6.003   2.724   1.293 -0.4107  0.0125 -0.0565
 6406TIP3    H240710   5.987   2.781   1.432 -0.3426  0.6919 -0.3224
 6407TIP3   OH240711   4.018   4.225  13.054 -0.5224  0.4614  0.3012
 6407TIP3    H140712   4.018   4.234  13.150 -0.4975  0.9434  0.2618
 6407TIP3    H240713   3.985   4.310  13.023  0.4440  0.6747 -0.1541
 6408TIP3   OH240714   0.588   1.509   1.186 -0.0657  0.7403  0.0873
 6408TIP3    H140715   0.656   1.442   1.184 -0.6731  0.1310 -2.3486
 6408TIP3    H240716   0.548   1.499   1.272  0.8504 -0.9857  0.3635
 6409TIP3   OH240717   3.889   1.139   0.569  0.6617 -0.0757  0.5051
 6409TIP3    H140718   3.810   1.190   0.553  2.0885  1.8379 -0.9630
 6409TIP3    H240719   3.931   1.181   0.644  1.4165  0.4298 -0.1763
 6410TIP3   OH240720   3.135   2.875  17.005  0.5016 -0.2984 -0.1544
 6410TIP3    H140721   3.174   2.820  17.073  0.0614 -0.3195  0.0866
 6410TIP3    H240722   3.118   2.959  17.049  3.4940  0.9546 -1.1557
 6411TIP3   OH240723   3.217   3.267   2.433 -0.8078 -0.3381  0.5216
 6411TIP3    H140724   3.163   3.332   2.479 -1.8584 -0.9577  0.2007
 6411TIP3    H240725   3.158   3.193   2.419 -0.6167 -0.0899 -2.0235
 6412TIP3   OH240726   1.387   1.983   4.070  0.1086 -0.4396  0.2266
 6412TIP3    H140727   1.425   1.895   4.071 -1.1512 -0.9957  0.6385
 6412TIP3    H240728   1.355   1.994   3.981 -2.3088 -1.5750  0.8826
 6413TIP3   OH240729   4.496   6.262   0.646 -0.3998 -0.6609  0.2262
 6413TIP3    H140730   4.414   6.268   0.597 -0.5638 -1.2303  0.4337
 6413TIP3    H240731   4.537   6.182   0.615  1.3778  0.9135 -1.8510
 6414TIP3   OH240732   5.875   2.432   4.095 -0.2759  0.2398 -0.0232
 6414TIP3    H140733   5.865   2.526   4.082 -0.7380  0.1637 -0.2652
 6414TIP3    H240734   5.835   2.393   4.017 -1.4775 -0.1951  0.7788
 6415TIP3   OH240735   4.803   4.158   1.211  0.1177 -0.1253 -0.6007
 6415TIP3    H140736   4.887   4.180   1.171  1.1562 -2.0966  0.3449
 6415TIP3    H240737   4.806   4.063   1.223 -1.6681 -0.0651  0.7345
 6416TIP3   OH240738   5.154   4.499   5.011 -0.0721 -0.2290 -0.3051
 6416TIP3    H140739   5.247   4.503   5.032 -0.1698 -2.4014  0.8581
 6416TIP3    H240740   5.134   4.405   5.009 -2.5556  0.1924  1.0112
 6417TIP3   OH240741   0.012   5.788  15.564  0.3442  0.0685 -0.6421
 6417TIP3    H140742   0.085   5.761  15.507 -1.3387 -0.8060 -2.4879
 6417TIP3    H240743  -0.066   5.779  15.509 -1.4387 -1.1452  1.8912
 6418TIP3   OH240744   1.793   1.547   1.112 -0.2692  0.1294  0.4814
 6418TIP3    H140745   1.861   1.545   1.045  0.6675 -0.7328  1.4109
 6418TIP3    H240746   1.840   1.571   1.192 -0.6243 -2.4770  1.5677
 6419TIP3   OH240747   2.688   6.235   1.560  0.4159  0.0122 -0.2208
 6419TIP3    H140748   2.603   6.279   1.551  0.7467  0.5805 -0.5575
 6419TIP3    H240749   2.702   6.192   1.476 -0.2227 -1.3307  0.3277
 6420TIP3   OH240750   3.436   2.336   0.168 -0.1674  0.1022  0.5876
 6420TIP3    H140751   3.386   2.383   0.235 -0.8685  1.6778 -0.9780
 6420TIP3    H240752   3.519   2.384   0.162  0.6603 -1.1086  1.5105
 6421TIP3   OH240753   2.018   6.101  10.624  0.1888  0.2298  0.0067
 6421TIP3    H140754   2.019   6.195  10.607  1.9469  0.0548 -1.1596
 6421TIP3    H240755   2.012   6.060  10.537  0.8261 -0.7145  0.3799
 6422TIP3   OH240756   1.890   2.592  14.014 -0.4266  0.0528 -0.2321
 6422TIP3    H140757   1.957   2.637  13.963 -0.8206  0.9247 -0.0085
 6422TIP3    H240758   1.900   2.499  13.991  0.0782  0.3084 -1.0955
 6423TIP3   OH240759   4.389   2.909   3.094  0.1801  0.0811 -0.1814
 6423TIP3    H140760   4.323   2.840   3.086  2.1784 -1.8609 -0.9683
 6423TIP3    H240761   4.399   2.944   3.005 -0.3369  0.9282  0.0854
 6424TIP3   OH240762   3.892   5.450   5.302 -0.2927 -0.4197 -0.9638
 6424TIP3    H140763   3.916   5.357   5.307 -1.3125 -0.7164 -1.3251
 6424TIP3    H240764   3.949   5.493   5.367  0.1137 -1.3075 -0.7149
 6425TIP3   OH240765   0.369   1.818  12.007 -0.4226  0.0119  0.0150
 6425TIP3    H140766   0.280   1.824  11.972 -0.5198 -1.5961 -0.1213
 6425TIP3    H240767   0.370   1.877  12.081 -1.8772 -0.5446  0.5158
 6426TIP3   OH240768   2.200   5.264  14.198  0.8321 -1.3596 -0.1658
 6426TIP3    H140769   2.191   5.170  14.180 -0.9025 -1.2508 -0.0163
 6426TIP3    H240770   2.134   5.305  14.144  2.0420 -0.1247 -0.7611
 6427TIP3   OH240771   0.286   4.737   1.154 -0.1008  0.0022 -0.2033
 6427TIP3    H140772   0.333   4.707   1.075 -0.6802 -2.4720  0.3021
 6427TIP3    H240773   0.343   4.805   1.191  3.0045 -2.5229  0.1467
 6428TIP3   OH240774   3.167   6.562  15.878 -0.2576 -0.6551  0.9522
 6428TIP3    H140775   3.162   6.654  15.852 -0.0034 -0.8969  0.0058
 6428TIP3    H240776   3.092   6.550  15.937 -0.0230  0.2624  1.4565
 6429TIP3   OH240777   0.645   3.946   0.287  0.3283  0.2473 -0.4260
 6429TIP3    H140778   0.559   3.959   0.327  0.1636 -0.6937 -0.4454
 6429TIP3    H240779   0.656   3.850   0.284  2.2584  0.3346  1.4727
 6430TIP3   OH240780   4.343   0.371   1.811  0.1770 -0.4175 -0.3718
 6430TIP3    H140781   4.429   0.328   1.808  0.9389  0.8001  1.8547
 6430TIP3    H240782   4.363   0.463   1.828 -1.5756 -0.3008  1.3574
 6431TIP3   OH240783   2.341   6.334  15.087  0.1005 -0.5324  0.6537
 6431TIP3    H140784   2.310   6.267  15.025  1.0262 -0.1731 -0.2148
 6431TIP3    H240785   2.288   6.319  15.165 -0.2256 -1.8141  0.2249
 6432TIP3   OH240786   1.806   1.783  14.467 -0.4745  0.3475  0.2836
 6432TIP3    H140787   1.723   1.737  14.479  0.1742 -0.7398  0.8205
 6432TIP3    H240788   1.791   1.870  14.504 -0.8646 -0.4297  2.0917
 6433TIP3   OH240789   5.995   1.742   3.846 -0.1777  0.2778  0.3243
 6433TIP3    H140790   6.042   1.667   3.884  0.6305  0.3832 -0.4465
 6433TIP3    H240791   5.905   1.710   3.835  0.3504 -0.8985 -0.8272
 6434TIP3   OH240792   1.843   0.885  16.430 -0.7487 -0.1104  0.2743
 6434TIP3    H140793   1.910   0.954  16.425 -0.1746 -0.7335 -1.0286
 6434TIP3    H240794   1.841   0.847  16.342 -0.4315 -2.3249  1.1671
 6435TIP3   OH240795   6.300   4.163   2.799  0.4951  0.3312  0.1395
 6435TIP3    H140796   6.265   4.160   2.888 -0.4531 -0.1572 -0.2348
 6435TIP3    H240797   6.252   4.233   2.756 -0.5046 -0.7358 -0.5568
 6436TIP3   OH240798   2.013   5.060   2.621 -0.5114  0.0042  0.0598
 6436TIP3    H140799   1.935   5.012   2.650 -0.6552  0.7717  1.0115
 6436TIP3    H240800   2.082   5.033   2.682  0.1931 -1.2623 -1.2504
 6437TIP3   OH240801   2.152   4.869  16.292 -0.1339  0.2906  0.7480
 6437TIP3    H140802   2.207   4.872  16.214  0.0141 -1.8955  0.7282
 6437TIP3    H240803   2.211   4.842  16.362 -1.0415 -1.7526  0.7881
 6438TIP3   OH240804   5.294   1.127  11.399  0.5905  0.4100  0.7357
 6438TIP3    H140805   5.203   1.121  11.431  0.6070  0.8032  0.8608
 6438TIP3    H240806   5.344   1.071  11.459  0.2934 -0.5478  0.1166
 6439TIP3   OH240807   1.375   5.869   4.981  0.1725 -0.4857  0.0019
 6439TIP3    H140808   1.312   5.847   5.050  0.0939 -0.1954  0.0222
 6439TIP3    H240809   1.447   5.912   5.026 -0.6088  1.1783 -0.2866
 6440TIP3   OH240810   3.035   1.241  16.625  0.2867  0.1066 -0.1685
 6440TIP3    H140811   3.119   1.223  16.582 -0.0657 -0.1583 -0.7678
 6440TIP3    H240812   3.056   1.308  16.691  0.8772  0.4114 -0.6470
 6441TIP3   OH240813   6.330   5.744  14.640 -0.9600  0.2747  0.2507
 6441TIP3    H140814   6.425   5.754  14.628 -0.6133 -1.1279  1.5157
 6441TIP3    H240815   6.322   5.687  14.717 -2.8235 -0.3316 -0.3612
 6442TIP3   OH240816   2.429   0.075  12.900  0.3743  0.5431  0.2398
 6442TIP3    H140817   2.397   0.114  12.819  1.0562  0.2577 -0.1654
 6442TIP3    H240818   2.456  -0.014  12.876  1.0913  0.6397  0.6593
 6443TIP3   OH240819   3.328   3.178   3.163  0.1230  0.9793  0.1717
 6443TIP3    H140820   3.343   3.166   3.257  0.4967  1.6234  0.2052
 6443TIP3    H240821   3.331   3.273   3.151  0.5721  0.8811 -0.5648
 6444TIP3   OH240822   6.119   5.115  15.223 -0.3274 -0.0116  0.1050
 6444TIP3    H140823   6.084   5.203  15.233  1.5030  0.6743  0.9064
 6444TIP3    H240824   6.065   5.061  15.281  0.3285  1.1348  1.8495
 6445TIP3   OH240825   0.618   5.249  13.152 -0.3211  0.1909  0.3742
 6445TIP3    H140826   0.561   5.189  13.102 -2.1215  1.8012  0.3663
 6445TIP3    H240827   0.560   5.286  13.219  1.4497 -0.0795  2.1316
 6446TIP3   OH240828   4.506   6.564  13.038  0.0516  0.4304  0.3929
 6446TIP3    H140829   4.519   6.658  13.052  1.5491  0.3094  0.0091
 6446TIP3    H240830   4.580   6.523  13.084 -0.0832 -0.5015 -0.2080
 6447TIP3   OH240831   0.269   4.926   4.576  0.9206 -0.0459 -0.2060
 6447TIP3    H140832   0.346   4.874   4.552  2.3501  0.2893  3.1339
 6447TIP3    H240833   0.216   4.866   4.628  1.9792  1.3127  2.6355
 6448TIP3   OH240834   0.714   1.967  10.578 -0.0143  0.1390 -0.4868
 6448TIP3    H140835   0.746   2.051  10.544 -1.5143  0.5463 -0.9636
 6448TIP3    H240836   0.663   1.989  10.655  4.0223 -0.8404  2.8330
 6449TIP3   OH240837   3.430   4.011   4.521 -0.0689  0.0189 -0.2656
 6449TIP3    H140838   3.491   4.055   4.462  0.3942  0.4097  0.4818
 6449TIP3    H240839   3.468   3.925   4.535 -0.2666 -0.1355 -0.6620
 6450TIP3   OH240840   6.416   5.951   1.790 -0.2337 -0.1715 -0.3569
 6450TIP3    H140841   6.385   6.020   1.849  1.3289 -0.2729  0.6344
 6450TIP3    H240842   6.363   5.875   1.812 -0.0440 -0.0520  0.5318
 6451TIP3   OH240843   1.894   6.511  14.540 -0.3228 -0.3150 -0.1428
 6451TIP3    H140844   1.955   6.477  14.475  0.8590  0.9343  0.2703
 6451TIP3    H240845   1.926   6.476  14.623 -1.0303 -0.8180 -0.0757
 6452TIP3   OH240846   0.633   1.214   2.589  0.1121 -0.1619  0.0649
 6452TIP3    H140847   0.716   1.170   2.575 -0.0113 -0.8481  1.2903
 6452TIP3    H240848   0.656   1.297   2.630  0.2492  0.1830 -0.6970
 6453TIP3   OH240849   3.623   5.344  13.990  0.0528  0.0065  0.1433
 6453TIP3    H140850   3.662   5.399  13.922  0.4796 -0.0461  0.3390
 6453TIP3    H240851   3.622   5.399  14.068  1.4751 -0.5810  0.6225
 6454TIP3   OH240852   6.721   4.551   1.553 -0.5196 -0.3568  0.4035
 6454TIP3    H140853   6.750   4.640   1.570 -1.5252 -0.0776  0.6970
 6454TIP3    H240854   6.631   4.548   1.585 -0.4260 -1.5391  0.6008
 6455TIP3   OH240855   2.553   3.227   2.799 -0.3004 -0.2519 -0.2615
 6455TIP3    H140856   2.632   3.242   2.851  0.8727 -0.7683 -1.7890
 6455TIP3    H240857   2.516   3.145   2.833  2.2312 -2.3667 -2.1446
 6456TIP3   OH240858   1.844   2.286  12.829 -0.8381 -1.1248  0.5759
 6456TIP3    H140859   1.913   2.308  12.892 -0.0397  3.7178 -1.5682
 6456TIP3    H240860   1.763   2.292  12.880 -0.0403 -1.3551  1.9449
 6457TIP3   OH240861   1.837   4.740  13.859  0.4399  0.2870  0.1399
 6457TIP3    H140862   1.930   4.717  13.849  0.3428  0.5551 -1.6592
 6457TIP3    H240863   1.792   4.690  13.791 -0.2144  3.0451 -1.6174
 6458TIP3   OH240864   6.372   4.500  13.363 -0.1523  0.4079  0.2424
 6458TIP3    H140865   6.438   4.431  13.362 -0.4375  0.0927  1.4845
 6458TIP3    H240866   6.347   4.509  13.455 -0.5095  1.8025  0.0452
 6459TIP3   OH240867   1.417   4.388   5.566  0.2831  0.4740 -0.0247
 6459TIP3    H140868   1.430   4.416   5.657 -0.1080  1.1715 -0.1738
 6459TIP3    H240869   1.461   4.455   5.514  2.0305 -0.8348 -0.3237
 6460TIP3   OH240870   5.794   2.650   3.255  0.3498  0.8722  0.1611
 6460TIP3    H140871   5.755   2.568   3.226  0.5121  0.6888  0.4576
 6460TIP3    H240872   5.802   2.703   3.176  1.8234 -0.0385 -0.3353
 6461TIP3   OH240873   2.156   0.472   5.341 -0.2058 -0.2534  0.3750
 6461TIP3    H140874   2.074   0.464   5.293  0.5695  0.1918 -1.0923
 6461TIP3    H240875   2.130   0.475   5.434 -1.9097  0.9386 -0.0929
 6462TIP3   OH240876   5.006   4.945  11.814  0.0243  0.1469 -0.0727
 6462TIP3    H140877   5.028   5.029  11.773  1.0316 -0.5584 -1.0335
 6462TIP3    H240878   5.085   4.919  11.860 -0.7095  0.3315  1.3776
 6463TIP3   OH240879   3.436   3.322  12.092 -0.2044  0.3250 -0.1981
 6463TIP3    H140880   3.354   3.300  12.137 -1.0432  0.8792 -1.3966
 6463TIP3    H240881   3.472   3.394  12.142 -1.2585  1.1082 -0.5218
 6464TIP3   OH240882   2.053   6.770   4.953  0.0686  0.5734 -0.0131
 6464TIP3    H140883   2.073   6.843   5.012  0.4179  1.1789 -0.8436
 6464TIP3    H240884   2.087   6.693   4.997  0.3100  1.0154  0.5823
 6465TIP3   OH240885   4.206   4.813   1.530 -0.2037 -0.5861 -0.3148
 6465TIP3    H140886   4.250   4.897   1.541 -0.3911 -0.4751 -0.4090
 6465TIP3    H240887   4.113   4.833   1.542 -0.2942 -0.6938 -0.7922
 6466TIP3   OH240888   0.657   5.858  17.157 -0.1112  0.3114  0.4327
 6466TIP3    H140889   0.747   5.863  17.188  0.4666  0.0168 -1.0874
 6466TIP3    H240890   0.629   5.769  17.180  0.6279 -0.2278 -0.6478
 6467TIP3   OH240891   3.580   0.437   2.667 -0.2646 -0.2459  0.0891
 6467TIP3    H140892   3.501   0.439   2.721 -1.2064 -0.9381 -1.2046
 6467TIP3    H240893   3.565   0.365   2.605  1.2749 -0.2224 -0.3522
 6468TIP3   OH240894   4.717   2.648  10.670  0.2472  0.5563 -0.0793
 6468TIP3    H140895   4.690   2.708  10.600  0.9153  1.3271  0.3124
 6468TIP3    H240896   4.690   2.562  10.639 -2.8187  1.2371  0.3179
 6469TIP3   OH240897   1.949   0.749   1.213 -0.5400 -0.0179  0.5202
 6469TIP3    H140898   1.945   0.777   1.122 -1.1087 -0.0872  0.5239
 6469TIP3    H240899   1.897   0.668   1.216 -0.8267  0.1771  0.9786
 6470TIP3   OH240900   0.757   5.475  10.428 -0.2781 -0.2880 -0.3885
 6470TIP3    H140901   0.703   5.549  10.401 -1.1565 -0.2606  1.3041
 6470TIP3    H240902   0.823   5.513  10.486  1.2106 -0.4178 -1.9237
 6471TIP3   OH240903   1.347   1.827   6.543 -0.2517  0.1607 -0.6255
 6471TIP3    H140904   1.274   1.881   6.512 -1.2421 -1.8742 -2.0212
 6471TIP3    H240905   1.349   1.752   6.484  1.5052 -1.0191  0.8216
 6472TIP3   OH240906   2.098   5.117   3.391  0.0949 -0.1227  0.0606
 6472TIP3    H140907   2.120   5.034   3.350  0.9651  0.9365 -1.7588
 6472TIP3    H240908   2.047   5.164   3.324  0.4012  1.1585  0.6942
 6473TIP3   OH240909   2.764   2.648  15.097  0.0538  0.3116  0.2941
 6473TIP3    H140910   2.766   2.562  15.139  2.9642  0.6497  1.0249
 6473TIP3    H240911   2.698   2.639  15.028  1.5038 -3.1001 -0.8321
 6474TIP3   OH240912   1.279   1.831   0.406  0.3771  0.1983  0.3998
 6474TIP3    H140913   1.194   1.791   0.422  1.1376 -1.1038  1.3105
 6474TIP3    H240914   1.318   1.840   0.493  0.4955  2.3934  0.1739
 6475TIP3   OH240915   6.507   0.086   2.347  0.2460 -0.2335 -0.6635
 6475TIP3    H140916   6.540   0.149   2.410  0.0660 -0.4115 -0.3880
 6475TIP3    H240917   6.583   0.063   2.294  0.3829 -0.0334 -0.5537
 6476TIP3   OH240918   4.966   5.908   0.477 -0.0657  0.1070  0.3084
 6476TIP3    H140919   4.997   5.900   0.387 -0.2269  0.4749  0.2183
 6476TIP3    H240920   4.918   5.991   0.479 -0.3871 -0.0814  0.6379
 6477TIP3   OH240921   6.044   0.262  12.526  0.2258  0.3553  0.0534
 6477TIP3    H140922   5.959   0.261  12.570  0.2165  1.7630  0.1113
 6477TIP3    H240923   6.024   0.241  12.435  0.0676 -1.1347  0.4069
 6478TIP3   OH240924   6.580   4.573  16.480 -0.1724  0.4277 -0.4520
 6478TIP3    H140925   6.513   4.555  16.546  0.8300 -0.1381  0.4497
 6478TIP3    H240926   6.537   4.630  16.416 -2.0244 -1.2839 -0.8186
 6479TIP3   OH240927   3.825   4.004  13.031 -0.5929 -0.6025 -0.4265
 6479TIP3    H140928   3.730   3.996  13.045 -1.0206  0.5947 -2.2982
 6479TIP3    H240929   3.850   4.081  13.083 -0.4154 -1.4726  0.8385
 6480TIP3   OH240930   1.262   2.915  14.763 -0.4236  0.3300  0.3825
 6480TIP3    H140931   1.260   2.982  14.833 -0.8270  0.4639  0.2464
 6480TIP3    H240932   1.268   2.966  14.682  0.5873  0.1604  0.3348
 6481TIP3   OH240933   3.020   0.931   0.618 -0.2300 -0.4604 -0.4585
 6481TIP3    H140934   2.969   0.989   0.561 -0.1957 -1.5670 -1.6651
 6481TIP3    H240935   2.991   0.843   0.595 -0.4137 -0.9544  1.4577
 6482TIP3   OH240936   6.824   5.588  15.749  0.1415 -0.1136  0.0342
 6482TIP3    H140937   6.889   5.519  15.763  0.3637 -0.7725 -3.4064
 6482TIP3    H240938   6.869   5.653  15.695 -1.3268  0.6592 -0.3115
 6483TIP3   OH240939   1.937   1.481   0.396  0.1089  0.2575 -0.4655
 6483TIP3    H140940   1.989   1.550   0.356  0.2296  0.4321 -0.0110
 6483TIP3    H240941   1.873   1.527   0.452 -1.2348  0.1050 -1.8092
 6484TIP3   OH240942   5.636   1.986  14.493 -0.1543 -0.0691 -0.1512
 6484TIP3    H140943   5.618   1.935  14.571  3.4652 -1.5959 -0.1329
 6484TIP3    H240944   5.656   2.074  14.526  2.4954 -0.9691  0.9237
 6485TIP3   OH240945   1.300   5.808   6.456  0.8791  0.0639  0.5038
 6485TIP3    H140946   1.231   5.768   6.403  2.0359  0.8615 -1.7085
 6485TIP3    H240947   1.353   5.734   6.485  0.3337 -0.3756  0.4003
 6486TIP3   OH240948   5.298   2.238  12.213  0.3704 -0.2058  0.3811
 6486TIP3    H140949   5.358   2.291  12.266  1.5961 -1.0092 -0.1599
 6486TIP3    H240950   5.330   2.148  12.223 -0.1661 -0.5343 -0.6928
 6487TIP3   OH240951   3.048   2.510  11.596  0.0678  0.1540  0.2260
 6487TIP3    H140952   3.070   2.446  11.528 -2.4749 -1.7770  1.0882
 6487TIP3    H240953   3.048   2.594  11.550  1.4665 -0.6638 -1.4021
 6488TIP3   OH240954   6.665   5.447   2.680 -0.0324  0.2541  0.0842
 6488TIP3    H140955   6.604   5.394   2.630  1.6798 -1.2332 -0.5132
 6488TIP3    H240956   6.736   5.388   2.704 -0.0784  1.2192  3.1304
 6489TIP3   OH240957   6.762   3.943   0.123  0.2098  0.1566  0.1859
 6489TIP3    H140958   6.668   3.931   0.133  0.0179  0.4987 -1.0940
 6489TIP3    H240959   6.796   3.945   0.213 -1.2767  2.1754  0.7743
 6490TIP3   OH240960   3.168   4.583  16.155  0.3427  0.5037  0.1462
 6490TIP3    H140961   3.232   4.613  16.092  1.3968 -1.1763  0.3538
 6490TIP3    H240962   3.125   4.508  16.113  0.4085 -0.0560  1.0287
 6491TIP3   OH240963   4.773   2.365  11.614  0.0518 -0.1910  0.1267
 6491TIP3    H140964   4.864   2.356  11.585 -0.0141  0.0793 -0.1640
 6491TIP3    H240965   4.733   2.425  11.552  0.4159  1.9916  1.8927
 6492TIP3   OH240966   2.055   2.188   2.146  0.5681 -0.4439  0.4371
 6492TIP3    H140967   2.061   2.283   2.156 -2.7250  0.0376 -0.9915
 6492TIP3    H240968   2.134   2.164   2.097  0.9802  1.7116 -0.0363
 6493TIP3   OH240969   5.380   1.192  10.271 -0.0750 -0.1238 -0.0048
 6493TIP3    H140970   5.309   1.196  10.207  1.1515 -0.2846 -1.4414
 6493TIP3    H240971   5.337   1.204  10.356 -1.9808 -1.5534 -0.7033
 6494TIP3   OH240972   2.725   5.047   2.680  0.5959  0.1514  0.0435
 6494TIP3    H140973   2.798   5.098   2.715  0.9077 -0.1203 -0.2031
 6494TIP3    H240974   2.676   5.019   2.757  0.3299  0.9537  0.1707
 6495TIP3   OH240975   5.749   6.798   0.728  0.1580  0.6525 -0.4983
 6495TIP3    H140976   5.799   6.844   0.796  2.2150  0.1134 -1.5663
 6495TIP3    H240977   5.785   6.831   0.646 -0.7239 -0.3606 -1.3160
 6496TIP3   OH240978   3.935   6.618   5.203  0.5964  0.0648 -0.2681
 6496TIP3    H140979   3.844   6.614   5.234  0.0435  0.0657 -1.8344
 6496TIP3    H240980   3.982   6.558   5.262 -0.5471 -0.4726  0.1291
 6497TIP3   OH240981   4.075   3.444   3.899  0.3016  0.1007  0.0046
 6497TIP3    H140982   4.013   3.372   3.893 -0.6064  0.9931 -3.2862
 6497TIP3    H240983   4.117   3.447   3.813 -0.3975  4.0450 -0.3704
 6498TIP3   OH240984   3.670   5.780  15.007  0.3403 -0.0449 -0.5736
 6498TIP3    H140985   3.718   5.710  15.052 -0.5699 -0.1088  0.3291
 6498TIP3    H240986   3.579   5.750  15.006  0.1140  0.6239 -1.1929
 6499TIP3   OH240987   6.248   5.147  13.104 -0.2944 -0.1352 -0.5620
 6499TIP3    H140988   6.255   5.239  13.128 -1.1773 -0.5179  1.3142
 6499TIP3    H240989   6.186   5.146  13.031 -1.2175  0.6747  0.1862
 6500TIP3   OH240990   4.410   3.298  13.178  0.4175  0.2120  0.0275
 6500TIP3    H140991   4.328   3.338  13.148  1.3966  0.1791 -3.0293
 6500TIP3    H240992   4.426   3.227  13.116  2.5502 -0.0677  0.8174
 6501TIP3   OH240993   6.514   3.990   0.195 -0.2004 -0.0448 -0.6015
 6501TIP3    H140994   6.436   3.962   0.147 -0.5756 -1.3625  0.7172
 6501TIP3    H240995   6.491   3.979   0.287  1.3119  0.1929 -0.1667
 6502TIP3   OH240996   0.459   6.811  15.607  0.1880 -0.1143  0.1402
 6502TIP3    H140997   0.525   6.781  15.545 -1.1683 -2.0221 -0.4853
 6502TIP3    H240998   0.375   6.793  15.564 -0.7808 -0.1865  1.9438
 6503TIP3   OH240999   4.809   3.002   2.886  0.2039  0.1475  0.2910
 6503TIP3    H141000   4.752   2.977   2.814  0.3103  1.4969 -0.2949
 6503TIP3    H241001   4.768   3.080   2.923 -0.0872 -0.7698  2.0033
 6504TIP3   OH241002   0.045   3.099  14.680  0.1385 -0.1339 -0.0478
 6504TIP3    H141003   0.025   3.186  14.717  2.2035  0.5026 -0.3056
 6504TIP3    H241004   0.076   3.118  14.591  0.0170 -1.2075 -0.3251
 6505TIP3   OH241005   4.178   0.674  15.752 -0.2267 -0.0399 -0.5562
 6505TIP3    H141006   4.201   0.754  15.705 -1.1271 -0.0589 -1.0346
 6505TIP3    H241007   4.185   0.698  15.845  0.6248  0.2623 -0.6901
 6506TIP3   OH241008   4.000   5.260   3.552  0.3655  0.5060  0.4454
 6506TIP3    H141009   3.968   5.349   3.534  1.6431  0.5985 -1.7957
 6506TIP3    H241010   4.095   5.268   3.545  0.5866 -0.7957  1.6286
 6507TIP3   OH241011   3.121   5.764  11.842  0.5890  0.2341 -0.1525
 6507TIP3    H141012   3.198   5.725  11.884  1.0494 -0.2716 -1.4083
 6507TIP3    H241013   3.054   5.696  11.848  0.6487  0.1699 -0.1989
 6508TIP3   OH241014   0.879   6.442   3.443  0.1091  0.1536  0.2658
 6508TIP3    H141015   0.858   6.453   3.536 -1.2853  0.7593 -0.1011
 6508TIP3    H241016   0.969   6.474   3.436  0.5589 -0.7332  1.5528
 6509TIP3   OH241017   0.587   0.363   0.975  0.3420 -0.2983  0.0327
 6509TIP3    H141018   0.497   0.350   0.946  0.2176 -1.4302  0.8509
 6509TIP3    H241019   0.639   0.301   0.923  0.1293 -2.2650  2.0020
 6510TIP3   OH241020   4.925   6.019   2.096 -0.3292  0.3409  0.0269
 6510TIP3    H141021   4.995   5.989   2.039 -1.1690  1.2768 -1.5809
 6510TIP3    H241022   4.855   5.955   2.084 -0.6288  0.7182 -0.2573
 6511TIP3   OH241023   2.535   4.009  14.060  0.0737  0.3346  0.4580
 6511TIP3    H141024   2.491   4.093  14.062 -0.9481 -0.0711 -1.9064
 6511TIP3    H241025   2.586   4.006  14.141 -2.2699  1.8888  2.1041
 6512TIP3   OH241026   6.784   4.657  11.313  0.0518  0.5197 -0.0079
 6512TIP3    H141027   6.842   4.716  11.265  1.2148 -1.1743 -0.7428
 6512TIP3    H241028   6.835   4.630  11.389 -0.1041 -0.3213 -0.1979
 6513TIP3   OH241029   0.586   6.490   2.646  0.0342 -0.4299 -0.3616
 6513TIP3    H141030   0.552   6.411   2.688 -1.0169  0.4738  0.5561
 6513TIP3    H241031   0.680   6.488   2.662 -0.1105 -1.0279  0.4605
 6514TIP3   OH241032   6.417   4.309   3.913  0.6736  0.7219  0.1710
 6514TIP3    H141033   6.343   4.270   3.866  0.6360 -0.9404  1.4936
 6514TIP3    H241034   6.448   4.379   3.856 -1.5398  1.0721 -0.6849
 6515TIP3   OH241035   1.574   4.453   3.691  0.1172  0.3242 -0.2451
 6515TIP3    H141036   1.484   4.486   3.689  0.6653  1.8521 -0.7092
 6515TIP3    H241037   1.603   4.470   3.781 -0.4441 -1.3393  0.2885
 6516TIP3   OH241038   4.281   4.284  14.637  0.9076 -0.5618 -0.2016
 6516TIP3    H141039   4.301   4.215  14.699  1.6507 -1.2837 -1.2317
 6516TIP3    H241040   4.350   4.349  14.650 -0.2035  0.4064  1.2964
 6517TIP3   OH241041   1.989   4.939   4.950  0.2118 -0.1366 -0.2664
 6517TIP3    H141042   2.082   4.926   4.932  0.4194  1.7550 -0.7413
 6517TIP3    H241043   1.977   4.909   5.040  1.1715 -0.8500 -0.3666
 6518TIP3   OH241044   1.986   4.714   4.332 -0.6583  0.0873 -0.0690
 6518TIP3    H141045   1.934   4.643   4.370  0.0069 -0.0063  0.6917
 6518TIP3    H241046   2.021   4.762   4.407  0.1952  0.2615 -0.5549
 6519TIP3   OH241047   3.283   6.233   2.756  0.6166 -0.2906  0.0414
 6519TIP3    H141048   3.333   6.166   2.709 -1.0248 -0.8162 -1.0461
 6519TIP3    H241049   3.242   6.285   2.686  0.4362  0.7414  0.8874
 6520TIP3   OH241050   1.504   0.877   4.832 -0.1834 -0.0756 -0.0200
 6520TIP3    H141051   1.430   0.832   4.874  1.1103 -1.4462  0.9197
 6520TIP3    H241052   1.542   0.931   4.901  0.2025 -0.0395 -0.2564
 6521TIP3   OH241053   4.025   4.099   1.394 -0.5398 -0.1991 -0.3648
 6521TIP3    H141054   4.062   4.107   1.483 -0.6276  0.8744 -0.4155
 6521TIP3    H241055   4.090   4.046   1.347 -1.2057 -2.0846  0.7206
 6522TIP3   OH241056   4.955   3.020  15.592 -0.0263 -0.0288 -0.1893
 6522TIP3    H141057   4.935   3.075  15.516  0.7748 -0.5591 -0.8016
 6522TIP3    H241058   4.927   2.932  15.567  1.2847 -0.4297 -0.3404
 6523TIP3   OH241059   2.562   4.154  15.840  0.0611 -0.1200  0.1096
 6523TIP3    H141060   2.606   4.167  15.756 -0.7318 -0.4973 -0.3852
 6523TIP3    H241061   2.614   4.088  15.885  1.0368  0.7782  0.3370
 6524TIP3   OH241062   5.751   5.875  16.376  0.0725 -0.2736 -0.1606
 6524TIP3    H141063   5.688   5.881  16.447 -0.0674 -1.0672 -0.2121
 6524TIP3    H241064   5.700   5.846  16.300  0.5322 -1.1255 -0.1521
 6525TIP3   OH241065   6.585   4.997   3.299 -0.3683 -0.1646 -0.0002
 6525TIP3    H141066   6.620   5.041   3.376 -0.2851  0.0077 -0.1357
 6525TIP3    H241067   6.503   5.043   3.280 -0.9557 -0.9175  0.6429
 6526TIP3   OH241068   1.767   3.842   3.079 -0.0796 -0.1143 -0.1523
 6526TIP3    H141069   1.731   3.804   2.999 -0.2598 -1.3141  0.4834
 6526TIP3    H241070   1.798   3.768   3.130  0.9474  0.7059  0.4669
 6527TIP3   OH241071   1.415   2.318  16.168  0.2474 -0.1210  0.0297
 6527TIP3    H141072   1.407   2.289  16.078  0.1359  0.9917 -0.3324
 6527TIP3    H241073   1.394   2.241  16.220 -0.1900 -0.6379 -0.8915
 6528TIP3   OH241074   4.561   0.896   1.860 -0.3890  0.1926  0.0348
 6528TIP3    H141075   4.474   0.937   1.863 -1.0948 -1.2496  0.2730
 6528TIP3    H241076   4.580   0.887   1.767  0.4632  2.3699 -0.0593
 6529TIP3   OH241077   2.391   1.737  16.323 -0.0627  0.3124 -0.1667
 6529TIP3    H141078   2.487   1.743  16.328 -0.1131  3.3188 -0.5975
 6529TIP3    H241079   2.360   1.819  16.363 -2.2975  0.8051 -2.6225
 6530TIP3   OH241080   3.947   4.272   4.077 -0.7275 -0.1614 -0.2332
 6530TIP3    H141081   3.870   4.237   4.122 -0.3983 -1.2081 -0.4611
 6530TIP3    H241082   3.967   4.353   4.124 -2.2250  0.3720 -0.4509
 6531TIP3   OH241083   0.543   1.423  16.105 -0.4846 -0.0960  0.0290
 6531TIP3    H141084   0.595   1.490  16.061  1.1987 -0.7997  0.8487
 6531TIP3    H241085   0.581   1.417  16.193 -1.8835 -0.7483  0.6182
 6532TIP3   OH241086   2.518   3.403   0.464 -0.2752  0.3142 -0.1985
 6532TIP3    H141087   2.567   3.352   0.528 -0.4559  0.0926 -0.2370
 6532TIP3    H241088   2.529   3.494   0.492  0.3303  0.2830 -0.3262
 6533TIP3   OH241089   3.441   5.674   3.065  0.6554 -0.3611 -0.1936
 6533TIP3    H141090   3.464   5.608   2.999 -0.3090 -1.8616  0.8995
 6533TIP3    H241091   3.525   5.700   3.103  0.9770 -2.0147  0.3039
 6534TIP3   OH241092   1.923   2.864   1.391 -0.0719  0.3672 -0.3221
 6534TIP3    H141093   1.861   2.935   1.375 -1.1192 -0.2783  0.6573
 6534TIP3    H241094   1.925   2.856   1.487 -2.3080 -2.8083 -0.3613
 6535TIP3   OH241095   5.284   2.083  16.131  0.0770 -0.4664 -0.3551
 6535TIP3    H141096   5.327   2.053  16.051 -0.3015  1.0867 -1.1679
 6535TIP3    H241097   5.265   2.176  16.116  0.8387  0.1350  1.8847
 6536TIP3   OH241098   6.693   5.681  14.048 -0.5391 -0.0904 -0.0967
 6536TIP3    H141099   6.640   5.719  13.978  0.5613  2.2099  0.2044
 6536TIP3    H241100   6.691   5.747  14.117  0.6656 -1.0670  0.9150
 6537TIP3   OH241101   2.190   2.212  12.798 -0.0688 -0.1606 -0.0694
 6537TIP3    H141102   2.137   2.254  12.866  0.4762  2.0940 -0.9384
 6537TIP3    H241103   2.252   2.156  12.846 -0.4477  0.4871  1.2125
 6538TIP3   OH241104   4.325   3.727  14.256 -0.0969  0.2709  0.5291
 6538TIP3    H141105   4.413   3.762  14.245 -0.8605  2.1623 -0.0049
 6538TIP3    H241106   4.274   3.800  14.291 -1.6375 -0.5140  0.0328
 6539TIP3   OH241107   1.970   3.092  12.484 -0.2044 -0.2233  0.0999
 6539TIP3    H141108   1.923   3.175  12.494 -1.3391 -0.4110 -2.5785
 6539TIP3    H241109   2.042   3.112  12.424  1.2634 -0.6280  1.6675
 6540TIP3   OH241110   0.492   5.552  14.177 -0.7527 -0.3478 -0.5733
 6540TIP3    H141111   0.410   5.518  14.142 -0.9861  1.5660 -2.0354
 6540TIP3    H241112   0.559   5.517  14.117 -0.7399 -0.1328 -0.6846
 6541TIP3   OH241113   4.799   5.169  13.616 -0.4445 -0.2104 -0.3470
 6541TIP3    H141114   4.734   5.114  13.660 -0.2778 -1.3471 -1.4711
 6541TIP3    H241115   4.760   5.189  13.531  0.0257  0.3881 -0.4267
 6542TIP3   OH241116   5.244   6.156   1.608  0.0079 -0.2768 -0.5909
 6542TIP3    H141117   5.297   6.191   1.536 -0.9829  0.2037 -1.1072
 6542TIP3    H241118   5.156   6.190   1.592 -0.4947 -1.1567  0.1806
 6543TIP3   OH241119   6.520   6.062   0.058 -0.2709  0.1767 -0.2963
 6543TIP3    H141120   6.495   6.084   0.148  1.1785 -2.0362  0.7568
 6543TIP3    H241121   6.442   6.081   0.006 -2.2667 -1.3058  1.9177
 6544TIP3   OH241122   0.041   2.674   4.900  0.0044 -0.0448 -0.2772
 6544TIP3    H141123  -0.041   2.712   4.932 -0.6553 -1.6533  0.0187
 6544TIP3    H241124   0.014   2.596   4.852  1.3978 -0.9841  0.4199
 6545TIP3   OH241125   4.599   4.128  13.443 -0.7242 -0.2723 -0.4808
 6545TIP3    H141126   4.626   4.214  13.476  0.7025 -1.5365  1.9181
 6545TIP3    H241127   4.508   4.119  13.470 -0.7806  0.3409 -0.4624
 6546TIP3   OH241128   2.722   2.463  14.484 -0.1030 -0.4961  0.1004
 6546TIP3    H141129   2.734   2.557  14.472 -0.2360 -0.4352  0.4263
 6546TIP3    H241130   2.811   2.428  14.485 -0.0829 -0.4835 -0.8443
 6547TIP3   OH241131   3.670   2.194  12.833 -0.0737  0.3157 -0.5193
 6547TIP3    H141132   3.643   2.103  12.850  0.9516 -0.5488 -2.9702
 6547TIP3    H241133   3.736   2.213  12.899  0.1264 -0.9680 -0.3277
 6548TIP3   OH241134   6.565   3.662  14.465 -0.6223  0.3058  0.2643
 6548TIP3    H141135   6.600   3.748  14.441 -0.8549 -0.0279 -1.4199
 6548TIP3    H241136   6.470   3.673  14.464 -0.6863  0.8084  3.2770
 6549TIP3   OH241137   5.527   5.513  14.624 -0.0940  0.3768  0.0041
 6549TIP3    H141138   5.545   5.420  14.606  1.0042  0.3634  1.0708
 6549TIP3    H241139   5.584   5.560  14.562  0.2584  0.3267  0.2838
 6550TIP3   OH241140   1.136   1.153  10.876 -0.3066 -0.1218 -0.1068
 6550TIP3    H141141   1.166   1.243  10.866 -0.2361  0.0409  1.3085
 6550TIP3    H241142   1.091   1.152  10.961 -0.8535 -1.2741 -0.3877
 6551TIP3   OH241143   0.743   2.358   6.754  0.2053 -0.8641  0.7236
 6551TIP3    H141144   0.775   2.271   6.733 -0.2928 -1.4905  2.3791
 6551TIP3    H241145   0.823   2.411   6.763  0.4463 -0.5279 -2.4713
 6552TIP3   OH241146   2.529   0.949   4.048  0.6121  0.1994 -0.7009
 6552TIP3    H141147   2.488   0.898   4.118 -0.8943 -0.8822 -2.2980
 6552TIP3    H241148   2.621   0.955   4.074  0.5068 -1.9011  0.3804
 6553TIP3   OH241149   6.034   0.634   3.282  0.2506 -0.3709  0.1045
 6553TIP3    H141150   6.038   0.722   3.319  1.3722 -0.0693 -0.7170
 6553TIP3    H241151   5.963   0.591   3.331  0.4289  0.6229  1.2697
 6554TIP3   OH241152   1.469   4.489   0.933  0.4833  0.0596  0.2440
 6554TIP3    H141153   1.562   4.511   0.922  0.0841  1.7441 -0.0843
 6554TIP3    H241154   1.458   4.480   1.028  0.7277  1.1288  0.3848
 6555TIP3   OH241155   3.507   1.816  11.048  0.7085  0.0085  0.3439
 6555TIP3    H141156   3.502   1.906  11.082 -0.8019  1.0917 -2.4328
 6555TIP3    H241157   3.600   1.801  11.035  1.0517  0.8379  1.5619
 6556TIP3   OH241158   5.056   3.596  15.591 -0.9022  0.0728 -0.0767
 6556TIP3    H141159   5.095   3.517  15.554 -1.2554  0.2599 -0.8987
 6556TIP3    H241160   4.997   3.627  15.522  0.5649  2.0552 -0.5301
 6557TIP3   OH241161   5.965   6.059   1.543 -0.0325 -0.0593 -0.1719
 6557TIP3    H141162   5.929   6.148   1.547  0.9345  0.3237  0.3426
 6557TIP3    H241163   5.911   6.015   1.478 -0.3099  1.0087 -0.6988
 6558TIP3   OH241164   3.760   2.104   5.952 -0.0722  0.1746  0.2095
 6558TIP3    H141165   3.705   2.069   5.882  0.9172 -0.5856 -0.2136
 6558TIP3    H241166   3.707   2.096   6.031 -0.3191 -1.1819 -0.0782
 6559TIP3   OH241167   4.083   6.712   4.870  0.3135  0.1632  0.1245
 6559TIP3    H141168   4.142   6.640   4.895 -1.5861 -0.9798  1.5842
 6559TIP3    H241169   4.101   6.781   4.934 -0.3217 -0.4218  0.9531
 6560TIP3   OH241170   0.781   5.054  15.900  0.4382  0.6584 -0.0405
 6560TIP3    H141171   0.873   5.034  15.916  0.3863  1.2061  1.0477
 6560TIP3    H241172   0.762   5.128  15.957 -1.2054 -0.7337  1.3503
 6561TIP3   OH241173   4.056   0.145   4.712  0.3756  0.1868  0.3880
 6561TIP3    H141174   4.008   0.149   4.630  1.3153 -2.2471 -0.3755
 6561TIP3    H241175   4.047   0.054   4.741  1.7725  0.4794  1.9067
 6562TIP3   OH241176   1.660   3.474  11.977  0.1144  0.0693  0.1736
 6562TIP3    H141177   1.576   3.486  11.931  0.6820  1.0959 -0.6445
 6562TIP3    H241178   1.693   3.391  11.943  0.0747  0.3465 -0.5727
 6563TIP3   OH241179   4.869   3.786  13.443 -0.5783  0.1965  0.8106
 6563TIP3    H141180   4.787   3.823  13.476 -2.2888 -0.3763 -2.3766
 6563TIP3    H241181   4.925   3.862  13.428 -1.2320  0.7867  1.2980
 6564TIP3   OH241182   6.408   5.973  12.996 -0.3964 -0.0477 -0.1736
 6564TIP3    H141183   6.350   5.922  13.052 -0.6550  0.3572 -0.0700
 6564TIP3    H241184   6.388   5.943  12.907 -1.1004  0.4183 -0.1802
 6565TIP3   OH241185   1.876   0.932  14.827 -1.0300 -0.3329 -0.8668
 6565TIP3    H141186   1.843   0.843  14.831  3.2419 -2.1160  1.3163
 6565TIP3    H241187   1.963   0.924  14.789  0.4169  2.4811  1.4253
 6566TIP3   OH241188   0.654   1.829   4.062 -0.1671  0.2023 -0.0526
 6566TIP3    H141189   0.598   1.898   4.026  0.6779  1.4315  0.9188
 6566TIP3    H241190   0.594   1.775   4.114 -0.9661 -0.2322 -1.3812
 6567TIP3   OH241191   6.280   0.627  12.859  0.2410 -0.0090  0.5303
 6567TIP3    H141192   6.373   0.632  12.837  0.5202  0.4265  1.7515
 6567TIP3    H241193   6.237   0.606  12.776  1.3021  0.9190 -0.2816
 6568TIP3   OH241194   6.085   1.164  14.077  0.5836 -0.3306 -0.1413
 6568TIP3    H141195   6.063   1.073  14.095 -1.3657  0.5008  2.0935
 6568TIP3    H241196   6.041   1.214  14.146  1.8047  2.3021 -1.1356
 6569TIP3   OH241197   0.219   0.858   3.269  0.1326 -0.3200 -0.0570
 6569TIP3    H141198   0.153   0.798   3.301 -1.4272  1.6557  0.6666
 6569TIP3    H241199   0.253   0.902   3.347  2.0725 -1.0130 -0.4484
 6570TIP3   OH241200   4.221   4.739   0.809  0.3176 -0.1012 -0.1234
 6570TIP3    H141201   4.186   4.696   0.731  1.0623 -2.0429  0.5451
 6570TIP3    H241202   4.315   4.726   0.803  0.5832  1.5389  0.1028
 6571TIP3   OH241203   6.658   3.289  12.899  0.2106 -0.2573 -0.4168
 6571TIP3    H141204   6.738   3.338  12.878  0.2215  0.1007  0.4220
 6571TIP3    H241205   6.622   3.333  12.975  0.8444 -2.2272  1.1291
 6572TIP3   OH241206   3.788   2.770   3.194 -0.5275 -0.0051 -0.1791
 6572TIP3    H141207   3.780   2.784   3.289 -0.9311 -0.2169 -0.1792
 6572TIP3    H241208   3.839   2.689   3.187 -0.0727  0.2735 -0.1526
 6573TIP3   OH241209   5.034   4.513   1.202 -0.1591  0.3809  0.1208
 6573TIP3    H141210   5.059   4.426   1.172  0.0926  1.2534 -2.4945
 6573TIP3    H241211   5.082   4.525   1.284  0.5752 -1.5575  0.0230
 6574TIP3   OH241212   1.313   6.274   1.506 -0.0219 -0.4737  0.1803
 6574TIP3    H141213   1.218   6.265   1.516 -0.1137  0.2456  0.0103
 6574TIP3    H241214   1.341   6.319   1.586  0.0500  0.0894 -0.1544
 6575TIP3   OH241215   3.094   5.162   6.302  0.9817  0.0223  0.1615
 6575TIP3    H141216   3.152   5.188   6.373 -0.3572 -1.4493  1.8847
 6575TIP3    H241217   3.074   5.070   6.319  1.0781 -0.5903 -2.4981
 6576TIP3   OH241218   4.772   3.220  11.196 -0.3508  0.1752 -0.2218
 6576TIP3    H141219   4.801   3.295  11.144  1.3654 -1.1318 -1.2392
 6576TIP3    H241220   4.850   3.193  11.244 -1.3340 -0.0614  1.3355
 6577TIP3   OH241221   4.517   1.168   2.710 -0.1505  0.0653  0.1222
 6577TIP3    H141222   4.604   1.169   2.672 -0.0164  2.4220  0.3463
 6577TIP3    H241223   4.458   1.156   2.636  0.2789  0.4561 -0.2849
 6578TIP3   OH241224   2.120   3.771  17.007  0.4777  0.1789  0.0709
 6578TIP3    H141225   2.142   3.702  17.070 -0.1239  0.8849  1.0839
 6578TIP3    H241226   2.133   3.853  17.056 -0.0871  0.7402 -0.6980
 6579TIP3   OH241227   6.591   6.244   5.100 -0.2182  0.0450  0.2185
 6579TIP3    H141228   6.587   6.187   5.023  0.2249 -1.8911  1.5683
 6579TIP3    H241229   6.654   6.313   5.076  1.6259 -1.7623 -0.4066
 6580TIP3   OH241230   5.152   0.325   2.088 -0.4599  0.0614  0.0753
 6580TIP3    H141231   5.230   0.379   2.100  0.8177 -1.5398 -0.6683
 6580TIP3    H241232   5.157   0.296   1.997 -2.6294  0.9163 -0.3897
 6581TIP3   OH241233   4.748   6.635   3.744 -0.1361 -0.4064  0.0293
 6581TIP3    H141234   4.741   6.730   3.756 -0.1018 -0.2995 -0.7610
 6581TIP3    H241235   4.664   6.601   3.773  0.7735 -0.4253  2.9384
 6582TIP3   OH241236   2.732   5.645  15.746 -0.1937  0.1008  0.4040
 6582TIP3    H141237   2.795   5.683  15.807 -0.3142 -0.1292  0.6759
 6582TIP3    H241238   2.763   5.555  15.733 -1.8968 -0.8852  2.5985
 6583TIP3   OH241239   0.058   4.902  12.406 -0.1666 -0.1573 -0.2593
 6583TIP3    H141240  -0.005   4.876  12.473  0.6242  1.8508  1.3601
 6583TIP3    H241241   0.022   4.866  12.325 -2.7574 -0.1031  0.7669
 6584TIP3   OH241242   2.008   4.069  12.119 -0.5587  0.5793 -0.7020
 6584TIP3    H141243   1.947   4.000  12.142  1.5138 -0.9555  0.4390
 6584TIP3    H241244   2.071   4.028  12.059  1.7745  0.8459  1.3792
 6585TIP3   OH241245   4.136   0.227   4.356  0.0081  0.0149  0.0215
 6585TIP3    H141246   4.165   0.181   4.277  0.4744 -0.7175  0.5999
 6585TIP3    H241247   4.199   0.298   4.366  1.2815 -1.1661  0.8894
 6586TIP3   OH241248   0.474   0.367  10.360 -0.4862  0.0284 -0.0808
 6586TIP3    H141249   0.437   0.455  10.363  0.3406  0.3932 -0.0644
 6586TIP3    H241250   0.563   0.380  10.326 -0.9135 -0.9951 -1.7156
 6587TIP3   OH241251   2.971   2.055   6.064 -0.6407  0.5565  0.7581
 6587TIP3    H141252   2.920   2.118   6.114  0.0915  0.4554  1.6596
 6587TIP3    H241253   2.966   1.974   6.113 -0.4179  0.2861  0.3472
 6588TIP3   OH241254   0.745   3.314   5.011 -0.0165 -0.0192  0.1172
 6588TIP3    H141255   0.746   3.228   4.968  0.5877 -0.2667  0.6037
 6588TIP3    H241256   0.744   3.377   4.939  1.7306 -0.4135 -0.2860
 6589TIP3   OH241257   5.449   1.548  11.519 -0.0558  0.2385 -0.7028
 6589TIP3    H141258   5.355   1.554  11.502 -0.3038  0.0665  0.5257
 6589TIP3    H241259   5.455   1.503  11.603  1.1688 -0.6425 -1.2392
 6590TIP3   OH241260   1.018   4.876  11.928 -0.3022 -0.5150 -0.0830
 6590TIP3    H141261   1.069   4.846  12.003 -0.1795 -0.1338 -0.0139
 6590TIP3    H241262   1.083   4.907  11.865 -0.4674  0.7700  0.3426
 6591TIP3   OH241263   4.058   4.897   0.005 -0.1036 -0.0181  0.6288
 6591TIP3    H141264   4.069   4.850  -0.078  1.8013  0.2017  0.6995
 6591TIP3    H241265   4.102   4.842   0.069 -1.9746 -0.4222  1.6275
 6592TIP3   OH241266   3.607   0.671  11.250  0.1666 -0.0463  0.2333
 6592TIP3    H141267   3.639   0.594  11.202  1.5093 -0.6242  1.9354
 6592TIP3    H241268   3.620   0.744  11.190 -0.5324 -1.0524 -1.1834
 6593TIP3   OH241269   6.327   2.433   3.468  0.0596  0.6520  0.1457
 6593TIP3    H141270   6.297   2.456   3.380 -0.9842  2.8394  0.9797
 6593TIP3    H241271   6.297   2.506   3.523  0.0985 -0.9357  2.4369
 6594TIP3   OH241272   0.746   4.023  12.161 -0.1221  0.6109  0.0701
 6594TIP3    H141273   0.660   3.984  12.175  0.6248 -1.6579 -1.1971
 6594TIP3    H241274   0.741   4.108  12.206 -2.7938  0.3129  0.5167
 6595TIP3   OH241275   3.377   6.788   3.978  0.6983 -0.2030 -0.1822
 6595TIP3    H141276   3.425   6.751   3.904 -0.2947  0.1418 -1.0267
 6595TIP3    H241277   3.341   6.713   4.024  1.0162 -0.4059 -0.2657
 6596TIP3   OH241278   3.666   4.142  16.013  0.1028  0.0200 -0.1430
 6596TIP3    H141279   3.616   4.218  16.046 -0.3699  1.2709 -3.3478
 6596TIP3    H241280   3.616   4.066  16.043 -1.6305  1.1377 -0.0250
 6597TIP3   OH241281   2.086   3.302   0.554  0.3365  0.3286  1.0785
 6597TIP3    H141282   2.107   3.380   0.607  2.6709  0.5568 -0.0970
 6597TIP3    H241283   2.152   3.300   0.486 -3.1484  0.7031 -2.7039
 6598TIP3   OH241284   4.167   5.187   5.589 -0.8860 -0.8483 -0.5342
 6598TIP3    H141285   4.124   5.239   5.657  0.4174 -0.6715  0.2020
 6598TIP3    H241286   4.163   5.097   5.620  1.7979 -0.5320  1.0682
 6599TIP3   OH241287   4.285   1.673  12.009 -0.9028  0.2121  0.8157
 6599TIP3    H141288   4.292   1.751  12.064 -0.3585 -0.5539  1.8705
 6599TIP3    H241289   4.195   1.643  12.021 -0.7144 -0.0999  1.5253
 6600TIP3   OH241290   6.380   1.170   2.127  0.2431  0.0015 -0.0652
 6600TIP3    H141291   6.315   1.164   2.197 -1.0561  0.9268 -1.1245
 6600TIP3    H241292   6.331   1.207   2.053  1.9328  0.4895 -0.9851
 6601TIP3   OH241293   1.889   3.076  11.650  0.8115  0.0493  0.4034
 6601TIP3    H141294   1.916   3.152  11.600 -1.1192  0.4954 -0.0351
 6601TIP3    H241295   1.861   3.012  11.584 -0.9537  0.3281  0.8383
 6602TIP3   OH241296   5.542   5.564   0.874 -0.3661 -0.1527  0.0165
 6602TIP3    H141297   5.560   5.657   0.861 -0.8787  0.0016  0.4177
 6602TIP3    H241298   5.532   5.529   0.785  4.4482 -0.8071 -0.5881
 6603TIP3   OH241299   3.097   5.411   0.873 -0.0782 -0.0852  0.3479
 6603TIP3    H141300   3.098   5.329   0.921 -0.6586 -1.1254 -1.3039
 6603TIP3    H241301   3.014   5.409   0.825  0.3340  1.0096 -0.4592
 6604TIP3   OH241302   2.476   6.189  14.410  0.5954  0.3315 -0.2327
 6604TIP3    H141303   2.486   6.236  14.327  1.0721  2.1158  0.8018
 6604TIP3    H241304   2.423   6.246  14.465  2.5301  0.4451  1.6310
 6605TIP3   OH241305   3.251   2.674  15.431  0.1649 -0.4701  0.0977
 6605TIP3    H141306   3.159   2.696  15.418  0.4964 -0.0538 -2.0825
 6605TIP3    H241307   3.293   2.700  15.349  1.8266 -2.7267  0.1270
 6606TIP3   OH241308   1.811   4.885  13.082 -0.1081  0.7915 -0.3597
 6606TIP3    H141309   1.791   4.817  13.018 -0.8088  0.0963  0.5662
 6606TIP3    H241310   1.904   4.875  13.100 -0.5961 -1.3924  1.3614
 6607TIP3   OH241311   2.189   6.724  11.887 -0.3255  0.5175  0.1403
 6607TIP3    H141312   2.201   6.631  11.905 -1.1758  0.6662  1.6237
 6607TIP3    H241313   2.176   6.729  11.792 -0.6359 -0.9133  0.0903
 6608TIP3   OH241314   4.385   1.134   3.589 -0.1580  0.1774 -0.3150
 6608TIP3    H141315   4.368   1.106   3.499  0.1776  2.8583 -1.2830
 6608TIP3    H241316   4.471   1.096   3.609 -0.9873 -1.9126 -0.4043
 6609TIP3   OH241317   5.907   1.619   5.090 -0.5356  0.2094  0.3603
 6609TIP3    H141318   5.898   1.669   5.009 -0.7700 -0.2100  0.1238
 6609TIP3    H241319   5.827   1.639   5.140 -1.2558 -0.9086 -0.2896
 6610TIP3   OH241320   2.680   6.224  12.107  0.8656  0.4830  0.1180
 6610TIP3    H141321   2.624   6.157  12.147 -0.1200 -0.6470 -2.8549
 6610TIP3    H241322   2.629   6.257  12.034  4.0507 -0.8436 -2.9846
 6611TIP3   OH241323   1.460   6.172   4.771  0.0765  0.6220 -0.3339
 6611TIP3    H141324   1.403   6.097   4.755 -2.2455  1.9565  1.1763
 6611TIP3    H241325   1.495   6.158   4.859 -1.1497  1.6977  0.3674
 6612TIP3   OH241326   4.065   4.802   5.071 -0.4109 -0.2337 -0.3363
 6612TIP3    H141327   4.024   4.881   5.106  0.0785 -0.6890  1.3753
 6612TIP3    H241328   3.994   4.737   5.066 -0.5924 -0.0089 -0.7266
 6613TIP3   OH241329   3.696   2.298   3.559  0.3369  0.1495  0.1556
 6613TIP3    H141330   3.699   2.220   3.504  1.3671  0.2855 -0.0143
 6613TIP3    H241331   3.735   2.269   3.642 -0.4071  0.1688  0.5120
 6614TIP3   OH241332   3.856   1.707   1.123  0.4443  0.2792  0.0630
 6614TIP3    H141333   3.817   1.794   1.128 -1.0573 -0.3022 -0.8126
 6614TIP3    H241334   3.818   1.660   1.197 -2.3264 -0.9169 -1.9398
 6615TIP3   OH241335   4.473   2.609  15.774 -0.3149 -0.1061  0.4263
 6615TIP3    H141336   4.406   2.670  15.804  0.1283  0.0136  1.1887
 6615TIP3    H241337   4.509   2.570  15.854  0.2893 -0.4223  0.0133
 6616TIP3   OH241338   2.655   5.304   1.904  0.3279 -0.4934  0.1186
 6616TIP3    H141339   2.719   5.376   1.907 -0.5675  0.3124  0.4825
 6616TIP3    H241340   2.702   5.232   1.862  1.6851 -0.1488  0.9895
 6617TIP3   OH241341   5.039   2.748   5.996 -0.0011  0.4092  0.3778
 6617TIP3    H141342   5.125   2.746   5.954 -0.6111  2.1085 -1.0566
 6617TIP3    H241343   5.041   2.675   6.058  1.5121 -1.2489 -1.4999
 6618TIP3   OH241344   5.021   1.492  16.127  0.2677  0.2111  0.4444
 6618TIP3    H141345   5.086   1.436  16.084  0.3472  0.2337  0.5349
 6618TIP3    H241346   5.064   1.523  16.207 -0.0368 -0.1822  0.7640
 6619TIP3   OH241347   4.326   1.850   1.909  0.2309 -0.1110 -0.0857
 6619TIP3    H141348   4.331   1.930   1.962  1.2111 -1.4636  1.9772
 6619TIP3    H241349   4.255   1.799   1.949 -0.7417 -0.0831 -1.7108
 6620TIP3   OH241350   4.891   4.479  12.411  0.4901  0.1181 -0.1469
 6620TIP3    H141351   4.931   4.393  12.404  0.6054  0.3158 -2.8201
 6620TIP3    H241352   4.799   4.465  12.388  0.6286  0.7573 -1.1730
 6621TIP3   OH241353   5.491   3.796   2.494  0.3524  0.1395  0.8003
 6621TIP3    H141354   5.402   3.768   2.517 -0.0924  0.8915  0.0417
 6621TIP3    H241355   5.519   3.850   2.568 -0.9257  2.2384 -0.1623
 6622TIP3   OH241356   5.478   4.940   4.661  0.3003 -0.3842 -0.0069
 6622TIP3    H141357   5.431   4.952   4.743  0.5361 -2.6840  0.5294
 6622TIP3    H241358   5.411   4.906   4.601  0.5704 -0.6741 -0.1489
 6623TIP3   OH241359   4.600   0.892   1.599 -0.0599  0.2899 -0.0378
 6623TIP3    H141360   4.587   0.818   1.540  1.2340 -0.9836  1.1870
 6623TIP3    H241361   4.686   0.927   1.576  0.5063 -0.2895  1.1190
 6624TIP3   OH241362   4.656   5.395  14.437 -0.0907  0.2309  0.5283
 6624TIP3    H141363   4.706   5.443  14.372 -0.4925  1.3876  1.0306
 6624TIP3    H241364   4.569   5.434  14.434 -0.7121 -1.1105  0.3159
 6625TIP3   OH241365   6.079   5.089  14.733  0.1381 -0.3284  0.0508
 6625TIP3    H141366   6.137   5.127  14.668  1.4998  0.1391  1.4998
 6625TIP3    H241367   6.104   4.996  14.736 -1.0543 -0.7331 -1.2225
 6626TIP3   OH241368   2.826   0.575  14.858  0.0222  0.8923  0.0600
 6626TIP3    H141369   2.739   0.559  14.896  0.6960 -2.4266  0.4918
 6626TIP3    H241370   2.826   0.522  14.778  1.4015  1.4256 -0.3066
 6627TIP3   OH241371   2.940   4.813   2.924 -0.4979  0.2999 -0.1381
 6627TIP3    H141372   2.915   4.722   2.939 -2.3322  1.0787  2.2560
 6627TIP3    H241373   2.977   4.814   2.835  1.5722 -3.0846  0.5126
 6628TIP3   OH241374   0.910   1.674   3.673  0.3929  0.0901 -0.1062
 6628TIP3    H141375   0.953   1.631   3.747 -0.7494  1.1746  1.2521
 6628TIP3    H241376   0.832   1.715   3.711 -1.5038 -1.1947 -2.3292
 6629TIP3   OH241377   6.043   2.828  15.623  0.7979  0.5076  0.2239
 6629TIP3    H141378   5.974   2.765  15.604  1.5972  0.0277 -1.2994
 6629TIP3    H241379   6.118   2.775  15.651  0.7284  0.9747  1.3238
 6630TIP3   OH241380   0.420   0.723   3.745 -0.4901  0.2274  0.0437
 6630TIP3    H141381   0.380   0.795   3.696 -0.9990 -0.3714 -0.4384
 6630TIP3    H241382   0.414   0.648   3.686  0.0058 -0.2180  0.5532
 6631TIP3   OH241383   5.962   6.084   5.344  0.1597  0.1661  0.6874
 6631TIP3    H141384   6.001   6.161   5.303 -0.8457  0.8370  0.9557
 6631TIP3    H241385   5.989   6.090   5.436 -1.0291  0.9602  1.0054
 6632TIP3   OH241386   3.375   6.437   2.942 -0.1917  0.1479  0.1751
 6632TIP3    H141387   3.352   6.385   2.865 -1.8924  2.0173 -0.6990
 6632TIP3    H241388   3.454   6.396   2.976 -0.2340 -1.6592 -1.6799
 6633TIP3   OH241389   3.799   1.897  16.187  0.4852 -0.4258 -0.3630
 6633TIP3    H141390   3.892   1.909  16.208  0.3547  0.9269 -0.5243
 6633TIP3    H241391   3.780   1.963  16.121 -0.5018 -0.9591 -0.6337
 6634TIP3   OH241392   2.630   3.352  12.480 -0.6505  0.9346  0.0366
 6634TIP3    H141393   2.711   3.402  12.495  0.0466 -0.1094 -0.0901
 6634TIP3    H241394   2.561   3.406  12.517  0.1053  1.8630  0.1462
 6635TIP3   OH241395   3.091   2.230   4.567  0.0091  0.0486 -0.7058
 6635TIP3    H141396   3.139   2.208   4.646  1.9232  1.5662 -1.3794
 6635TIP3    H241397   3.114   2.161   4.505 -0.2254 -0.2738 -0.4372
 6636TIP3   OH241398   3.160   3.501   2.621 -0.1681 -0.2107 -0.5341
 6636TIP3    H141399   3.236   3.515   2.564 -1.3135  0.2441 -2.0287
 6636TIP3    H241400   3.119   3.587   2.627 -1.6935 -0.8329 -1.4794
 6637TIP3   OH241401   6.560   6.267  10.977 -0.2636  0.3378  0.1165
 6637TIP3    H141402   6.636   6.310  11.016  0.4189 -1.0144  0.3438
 6637TIP3    H241403   6.497   6.261  11.048  0.6637 -1.3812  0.8599
 6638TIP3   OH241404   2.134   1.085  11.448  0.1969  0.2498  0.0143
 6638TIP3    H141405   2.169   1.135  11.374  1.1004  0.7292  0.7434
 6638TIP3    H241406   2.136   1.146  11.522  1.4729 -0.8827  0.9672
 6639TIP3   OH241407   5.707   5.794  11.798 -0.7210 -0.0108  0.8953
 6639TIP3    H141408   5.779   5.780  11.736 -0.2558  2.0446  0.9226
 6639TIP3    H241409   5.657   5.712  11.794  0.2918 -0.6116 -0.8653
 6640TIP3   OH241410   2.571   0.690   3.022 -0.2328 -0.1488  0.4784
 6640TIP3    H141411   2.635   0.709   3.092  0.8184 -2.4347  0.2270
 6640TIP3    H241412   2.487   0.686   3.067  0.0982  0.6713  1.2040
 6641TIP3   OH241413   0.700   4.504   5.902  0.6484 -1.1389 -0.1615
 6641TIP3    H141414   0.661   4.452   5.972 -0.5196  0.6038  0.5705
 6641TIP3    H241415   0.628   4.558   5.871  1.7447 -0.1401 -1.0375
 6642TIP3   OH241416   2.909   3.917   2.176  0.4971  0.1742  0.1044
 6642TIP3    H141417   2.851   3.975   2.225  0.7802  0.2454  0.3548
 6642TIP3    H241418   2.849   3.856   2.132  0.2278  0.3188  0.2644
 6643TIP3   OH241419   3.445   3.949   6.289  0.2489 -0.3518  0.2008
 6643TIP3    H141420   3.410   3.869   6.250  1.0348 -0.4318 -0.3502
 6643TIP3    H241421   3.540   3.938   6.287  0.3975  0.8550 -0.4592
 6644TIP3   OH241422   1.468   1.329   5.615  0.3366 -0.4645  0.0898
 6644TIP3    H141423   1.533   1.394   5.642 -1.2580  0.7738  1.0858
 6644TIP3    H241424   1.498   1.247   5.655 -0.0066  0.5864  2.6624
 6645TIP3   OH241425   6.136   0.585   2.529  0.0767 -0.1224 -0.1470
 6645TIP3    H141426   6.204   0.646   2.560 -0.3912  0.2877  0.0808
 6645TIP3    H241427   6.183   0.503   2.515  0.7247  0.2958 -0.4945
 6646TIP3   OH241428   5.918   4.785   1.717 -0.2383 -0.0965  0.0720
 6646TIP3    H141429   5.920   4.817   1.807  1.2638 -0.6194  0.2596
 6646TIP3    H241430   5.863   4.847   1.670 -2.3010 -0.6235  1.6266
 6647TIP3   OH241431   5.971   4.853  16.981 -0.6701 -0.2732 -0.6251
 6647TIP3    H141432   5.879   4.838  17.004 -1.5853  3.0729 -1.5783
 6647TIP3    H241433   5.974   4.842  16.886 -0.2623  0.3092 -0.6844
 6648TIP3   OH241434   1.288   0.730   1.686  0.2666 -0.5197  0.3038
 6648TIP3    H141435   1.267   0.756   1.596  0.3487 -0.3923  0.3209
 6648TIP3    H241436   1.222   0.665   1.708  0.0765 -0.3460  0.2508
 6649TIP3   OH241437   1.533   0.085   2.003 -0.0726 -0.5395  0.8824
 6649TIP3    H141438   1.563  -0.003   1.981  0.6391 -0.2402  0.6200
 6649TIP3    H241439   1.593   0.114   2.072 -0.5226 -0.3931  1.2164
 6650TIP3   OH241440   1.238   4.206   5.555  0.9270  0.1309  0.6787
 6650TIP3    H141441   1.316   4.260   5.566  1.8876 -0.9628 -0.4433
 6650TIP3    H241442   1.255   4.128   5.607  0.8034 -0.3094  0.0745
 6651TIP3   OH241443   0.984   5.330  12.175  0.0890 -0.1501  0.1561
 6651TIP3    H141444   1.078   5.321  12.188  0.0542 -0.2854  0.3023
 6651TIP3    H241445   0.956   5.246  12.138 -0.1000 -0.3742  0.8026
 6652TIP3   OH241446   0.426   4.560   2.217  0.1943 -0.8652 -0.8691
 6652TIP3    H141447   0.488   4.631   2.198  1.4425 -1.7226 -0.1871
 6652TIP3    H241448   0.480   4.481   2.218 -0.6614 -1.4895  1.0154
 6653TIP3   OH241449   0.423   0.456   4.736  0.6169  0.5656  0.7260
 6653TIP3    H141450   0.363   0.528   4.715  0.8827  0.6759  0.3218
 6653TIP3    H241451   0.504   0.480   4.691  1.0931  0.6256  1.6020
 6654TIP3   OH241452   0.613   5.232  12.625  0.1782 -0.5423  0.4077
 6654TIP3    H141453   0.695   5.249  12.578 -0.9721  3.1904 -0.5599
 6654TIP3    H241454   0.564   5.173  12.567  0.6405  0.3208 -0.9098
 6655TIP3   OH241455   1.454   3.108  13.398  0.0130 -0.1298 -0.3555
 6655TIP3    H141456   1.420   3.116  13.309 -1.5454 -0.1493  0.1920
 6655TIP3    H241457   1.547   3.127  13.390 -0.2311  0.6586 -1.8664
 6656TIP3   OH241458   0.035   5.940   5.631 -0.4042 -0.6324  0.4922
 6656TIP3    H141459   0.120   5.943   5.675  0.1742 -1.9166 -0.4631
 6656TIP3    H241460  -0.011   6.018   5.662  1.0996  0.0643  1.0696
 6657TIP3   OH241461   1.051   2.013  13.410 -0.1629  0.2525 -0.1272
 6657TIP3    H141462   1.019   2.026  13.321 -1.1902  0.5239  0.2658
 6657TIP3    H241463   1.091   2.097  13.434 -1.0850  0.6311  0.1330
 6658TIP3   OH241464   4.786   1.328  15.907  0.2251 -0.1914  0.0618
 6658TIP3    H141465   4.742   1.334  15.991 -0.6266  3.5015 -0.4744
 6658TIP3    H241466   4.878   1.312  15.929  0.0033  0.6157  1.7171
 6659TIP3   OH241467   3.312   2.700  13.558 -0.6693 -0.3455  0.0751
 6659TIP3    H141468   3.340   2.614  13.589  0.1256  0.2022  0.9155
 6659TIP3    H241469   3.278   2.684  13.470  0.4136 -1.3520 -0.1818
 6660TIP3   OH241470   0.182   4.037  12.929 -0.1726 -0.3391  0.3749
 6660TIP3    H141471   0.182   4.006  12.838 -0.1464 -0.4542  0.4141
 6660TIP3    H241472   0.109   3.991  12.970  0.8541 -1.5985  0.8530
 6661TIP3   OH241473   0.337   3.026  12.868 -0.6887 -0.0238  0.7321
 6661TIP3    H141474   0.279   3.003  12.795  2.3135 -0.1905 -1.8108
 6661TIP3    H241475   0.398   2.953  12.873  1.7740  1.8949  0.5029
 6662TIP3   OH241476   1.170   2.839   0.099  0.3076  0.2658  0.1306
 6662TIP3    H141477   1.105   2.781   0.138  0.4934  0.3251  0.5329
 6662TIP3    H241478   1.207   2.788   0.027 -0.1468  0.2142 -0.0683
 6663TIP3   OH241479   3.725   2.227  11.207  0.1487 -0.0863  0.0599
 6663TIP3    H141480   3.803   2.232  11.151 -0.0962 -0.4477 -0.3149
 6663TIP3    H241481   3.736   2.146  11.257 -0.5072 -0.7069 -0.7822
 6664TIP3   OH241482   3.824   0.170  13.101  0.7493  0.1320  0.1760
 6664TIP3    H141483   3.850   0.143  13.012  1.0488  0.9584  0.0102
 6664TIP3    H241484   3.762   0.242  13.087 -0.7023 -0.9747  0.5982
 6665TIP3   OH241485   1.899   4.340   5.515  0.2307  0.3095 -0.4113
 6665TIP3    H141486   1.884   4.432   5.538 -1.7837 -0.2065  0.5538
 6665TIP3    H241487   1.980   4.317   5.561  1.1187  1.7424 -1.1858
 6666TIP3   OH241488   5.752   1.833  13.290 -1.0504  0.2879  0.2589
 6666TIP3    H141489   5.832   1.883  13.274 -0.9700  0.0192 -0.1618
 6666TIP3    H241490   5.681   1.897  13.278 -1.0051  0.0840 -1.2703
 6667TIP3   OH241491   1.887   2.227  16.319  0.0087  0.4514  0.1080
 6667TIP3    H141492   1.899   2.158  16.384 -1.3874  1.6967  1.8096
 6667TIP3    H241493   1.851   2.182  16.242  0.1105 -0.8296  0.7838
 6668TIP3   OH241494   3.594   5.871   3.616  0.3381  0.2775  0.4821
 6668TIP3    H141495   3.518   5.928   3.629  1.2683  1.5312  0.5346
 6668TIP3    H241496   3.587   5.806   3.686  0.0339  1.1974  1.3373
 6669TIP3   OH241497   2.122   4.034  14.111 -0.0336  0.2569 -0.1107
 6669TIP3    H141498   2.068   4.042  14.032 -0.5508 -0.4933  0.1643
 6669TIP3    H241499   2.062   4.051  14.183  0.6341  1.9085  0.1152
 6670TIP3   OH241500   6.721   0.674  14.440  0.2090  0.2089 -0.4819
 6670TIP3    H141501   6.789   0.711  14.497  1.9497 -2.4060 -0.6933
 6670TIP3    H241502   6.655   0.640  14.501  2.0870 -2.6246  0.1754
 6671TIP3   OH241503   2.453   3.791   5.666  0.4236  0.3823  0.6587
 6671TIP3    H141504   2.449   3.745   5.582  0.8885 -1.9798  1.8433
 6671TIP3    H241505   2.380   3.755   5.717  0.0176  1.9300  1.2465
 6672TIP3   OH241506   4.401   0.865  11.823 -0.1680  0.2274  0.2710
 6672TIP3    H141507   4.325   0.828  11.777  0.4723 -1.0778  0.2265
 6672TIP3    H241508   4.438   0.928  11.760 -0.7252  0.2779 -0.0212
 6673TIP3   OH241509   4.369   3.674   1.896 -0.7386 -0.5888  0.0342
 6673TIP3    H141510   4.374   3.658   1.801 -1.6617 -1.9795  0.1902
 6673TIP3    H241511   4.369   3.587   1.935  1.5819 -0.0237  1.4840
 6674TIP3   OH241512   1.312   2.207  14.259 -0.1733 -0.5611  0.2448
 6674TIP3    H141513   1.225   2.246  14.259  0.2371  0.4402 -0.7537
 6674TIP3    H241514   1.327   2.182  14.168 -0.4093 -3.1502  0.8412
 6675TIP3   OH241515   3.648   5.468   3.691  0.9223  0.2350  0.2721
 6675TIP3    H141516   3.736   5.473   3.728  0.9574 -0.4882  0.2991
 6675TIP3    H241517   3.641   5.378   3.659 -0.2881 -0.1255  1.4845
 6676TIP3   OH241518   0.334   5.450  16.472  0.1834 -0.8460 -0.3679
 6676TIP3    H141519   0.266   5.435  16.407 -3.8263 -2.8962  3.7864
 6676TIP3    H241520   0.347   5.365  16.514  1.0127  0.6745  2.7583
 6677TIP3   OH241521   1.274   0.736   3.339  0.2055 -0.0153 -0.2450
 6677TIP3    H141522   1.262   0.826   3.370  1.9630 -0.3442  1.6466
 6677TIP3    H241523   1.353   0.740   3.285  0.0306 -0.3593 -0.5309
 6678TIP3   OH241524   5.824   3.631  13.489 -0.0764 -0.4812  0.4878
 6678TIP3    H141525   5.904   3.678  13.464  0.5685 -0.4079  2.5698
 6678TIP3    H241526   5.821   3.556  13.429  0.8268  0.2250 -0.4861
 6679TIP3   OH241527   0.939   1.015   4.239  0.1533  0.0288 -0.1083
 6679TIP3    H141528   0.969   1.052   4.156  1.3024 -2.3165 -0.8447
 6679TIP3    H241529   0.895   1.087   4.284 -0.2167  1.4746 -2.6058
 6680TIP3   OH241530   0.857   4.638   3.401  0.1265  0.4013 -0.7703
 6680TIP3    H141531   0.951   4.646   3.384  0.3868 -2.0968 -0.8320
 6680TIP3    H241532   0.817   4.704   3.344  1.7838  1.1593 -1.1335
 6681TIP3   OH241533   0.140   2.487  13.318  0.4935  0.2974  0.5483
 6681TIP3    H141534   0.109   2.495  13.408  0.1914 -0.9354  0.5664
 6681TIP3    H241535   0.233   2.469  13.327  0.7300  1.4283  0.5596
 6682TIP3   OH241536   2.271   5.646   1.832  0.2477  0.3648  0.2984
 6682TIP3    H141537   2.304   5.560   1.860 -0.3350  0.2666  0.7115
 6682TIP3    H241538   2.324   5.709   1.880  1.8109  0.2993 -1.2458
 6683TIP3   OH241539   5.382   6.587  11.479 -0.5821 -0.5058 -0.2064
 6683TIP3    H141540   5.317   6.619  11.418 -1.6238  0.4546  1.3264
 6683TIP3    H241541   5.367   6.493  11.484 -0.7033 -0.5416 -1.1388
 6684TIP3   OH241542   3.571   3.189  16.189  0.4315 -0.1406 -0.4509
 6684TIP3    H141543   3.501   3.215  16.128  1.1898 -0.6496 -1.5894
 6684TIP3    H241544   3.644   3.164  16.131  1.9597  1.4187  0.6972
 6685TIP3   OH241545   4.040   1.107   1.769  0.5707 -0.0494  0.2237
 6685TIP3    H141546   3.949   1.122   1.743  0.4548 -1.9868 -0.6772
 6685TIP3    H241547   4.044   1.136   1.860 -1.4185 -1.5019  0.8476
 6686TIP3   OH241548   0.418   2.445   3.414 -0.1313  0.3257 -0.1357
 6686TIP3    H141549   0.347   2.508   3.405  0.4176  0.9476 -0.1440
 6686TIP3    H241550   0.408   2.410   3.503  0.4642  1.5478  0.4367
 6687TIP3   OH241551   5.820   0.968  13.835 -0.5758 -0.4227  0.2953
 6687TIP3    H141552   5.807   0.954  13.929 -1.1006  0.7208  0.4168
 6687TIP3    H241553   5.768   0.900  13.794 -0.5951 -0.7433  0.8352
 6688TIP3   OH241554   3.042   3.498   1.160  0.2459 -0.3291  0.2785
 6688TIP3    H141555   3.055   3.477   1.253  1.6865 -0.8810 -0.0138
 6688TIP3    H241556   3.128   3.530   1.131 -0.6441  1.5376 -0.4600
 6689TIP3   OH241557   1.627   4.811   5.186  0.0392  0.1436  0.0471
 6689TIP3    H141558   1.552   4.765   5.223  0.5780  0.2640  1.3775
 6689TIP3    H241559   1.625   4.792   5.093 -0.8317 -1.0020  0.2883
 6690TIP3   OH241560   2.510   2.733  16.447  0.4419 -0.5324 -1.4221
 6690TIP3    H141561   2.516   2.772  16.534 -0.6313 -0.1779 -1.4871
 6690TIP3    H241562   2.600   2.720  16.420  0.7926 -0.5132 -0.3140
 6691TIP3   OH241563   3.886   1.212  14.723 -0.4295 -0.4438 -0.4370
 6691TIP3    H141564   3.901   1.157  14.800  0.1069  0.1904 -0.0832
 6691TIP3    H241565   3.974   1.240  14.696 -0.7584  1.1318  0.0409
 6692TIP3   OH241566   5.057   0.678  16.779 -0.0906 -0.3810  0.3161
 6692TIP3    H141567   5.066   0.773  16.768  0.5928 -0.5255 -0.4832
 6692TIP3    H241568   4.991   0.653  16.714  0.2503 -0.5431  0.0273
 6693TIP3   OH241569   1.437   5.266  16.018 -0.1776 -1.2651 -0.4378
 6693TIP3    H141570   1.529   5.279  15.997  0.1162 -1.3803  0.6905
 6693TIP3    H241571   1.428   5.172  16.031 -0.1185 -1.1122  0.8378
 6694TIP3   OH241572   6.656   5.309  16.812 -0.4746 -0.2018  0.0083
 6694TIP3    H141573   6.618   5.232  16.769 -0.9572  0.0507 -0.0259
 6694TIP3    H241574   6.606   5.319  16.893  1.5973 -1.7467  1.5783
 6695TIP3   OH241575   2.247   4.444  11.590 -0.2984  0.1062  0.5597
 6695TIP3    H141576   2.165   4.440  11.639  0.6040 -0.5808  2.1178
 6695TIP3    H241577   2.275   4.535  11.598 -0.5008  0.1525  0.7630
 6696TIP3   OH241578   1.811   0.606   3.205 -0.0494  0.6241  0.2598
 6696TIP3    H141579   1.895   0.642   3.233 -0.1205  2.0525 -1.2039
 6696TIP3    H241580   1.767   0.581   3.286  1.3845  0.7435  1.1116
 6697TIP3   OH241581   0.306   4.782   6.562 -0.1407 -0.5675 -0.3749
 6697TIP3    H141582   0.301   4.739   6.477 -0.2497 -0.8325 -0.2358
 6697TIP3    H241583   0.218   4.774   6.598 -0.5056  0.8967 -0.8898
 6698TIP3   OH241584   1.028   5.646   1.068  0.1399  0.3122  0.2154
 6698TIP3    H141585   1.090   5.646   1.141 -0.3446 -0.7826  0.6595
 6698TIP3    H241586   1.081   5.624   0.992 -0.0385 -3.7103  1.0161
 6699TIP3   OH241587   3.398   2.564   4.482  0.6369  0.0119  0.0229
 6699TIP3    H141588   3.447   2.564   4.564  2.1947  1.0686 -0.8580
 6699TIP3    H241589   3.451   2.511   4.422 -0.2621 -0.3876 -0.4440
 6700TIP3   OH241590   3.827   3.090   0.582  0.5447  0.2750 -0.4480
 6700TIP3    H141591   3.906   3.102   0.635  0.3568  1.4971 -0.4061
 6700TIP3    H241592   3.782   3.016   0.622  2.2717 -1.3086 -1.2509
 6701TIP3   OH241593   4.572   4.875  12.863  0.3228  0.2323 -0.1677
 6701TIP3    H141594   4.490   4.900  12.905  0.5874  0.2040  0.3672
 6701TIP3    H241595   4.547   4.857  12.772 -0.2590  0.2422 -0.0155
 6702TIP3   OH241596   4.303   3.228  12.678 -0.1565 -0.0247 -0.2937
 6702TIP3    H141597   4.388   3.193  12.650 -0.9849 -1.7389 -0.8129
 6702TIP3    H241598   4.270   3.277  12.603  0.4354  0.7968 -0.0285
 6703TIP3   OH241599   1.441   2.599   1.655 -0.2791 -0.6214 -0.5596
 6703TIP3    H141600   1.355   2.575   1.622 -0.2667  0.4438 -1.3961
 6703TIP3    H241601   1.496   2.608   1.577  0.0062  0.9341 -0.2082
 6704TIP3   OH241602   6.072   4.579   3.648  0.4184 -0.5199 -0.3369
 6704TIP3    H141603   6.039   4.497   3.610 -0.1154 -0.4806  0.0240
 6704TIP3    H241604   6.081   4.560   3.742  0.6624 -0.2835 -0.3115
 6705TIP3   OH241605   4.230   4.260   1.048 -0.0434  0.0094  0.2990
 6705TIP3    H141606   4.323   4.286   1.049 -0.1596  0.4444  0.2808
 6705TIP3    H241607   4.222   4.199   1.121  0.5173 -0.9906 -0.4619
 6706TIP3   OH241608   1.686   1.838   5.604  0.0293 -0.1628  0.3485
 6706TIP3    H141609   1.694   1.864   5.512 -2.0299  1.9891  0.6786
 6706TIP3    H241610   1.736   1.904   5.652 -0.8717  0.1332  0.8983
 6707TIP3   OH241611   5.850   1.041  12.402  0.0160 -0.2320 -0.1893
 6707TIP3    H141612   5.874   0.949  12.386 -0.1881  0.0772 -2.5344
 6707TIP3    H241613   5.891   1.089  12.330 -2.9920  1.0293 -1.1947
 6708TIP3   OH241614   5.790   3.246  14.582 -0.3019 -0.0516  0.1099
 6708TIP3    H141615   5.845   3.230  14.505  0.8058  0.7871  0.7061
 6708TIP3    H241616   5.811   3.174  14.642 -0.9049 -0.5079 -0.2142
 6709TIP3   OH241617   5.771   2.478  12.431 -0.1354  0.0745  0.0012
 6709TIP3    H141618   5.798   2.570  12.428 -0.7138  0.2317 -0.8101
 6709TIP3    H241619   5.791   2.445  12.343 -1.7261 -0.0319 -0.3513
 6710TIP3   OH241620   5.022   5.162  14.336 -0.1460  0.0525 -0.4055
 6710TIP3    H141621   5.080   5.114  14.396 -1.6463 -0.2219  0.8811
 6710TIP3    H241622   4.934   5.138  14.364 -0.9110  1.6053 -1.3808
 6711TIP3   OH241623   1.042   4.475  13.672 -0.2706 -0.3095  0.0035
 6711TIP3    H141624   0.952   4.493  13.700 -0.0607 -0.3600  0.7354
 6711TIP3    H241625   1.033   4.440  13.584 -1.0177 -0.8092  0.2653
 6712TIP3   OH241626   2.016   2.235  11.605  0.3721  0.1147 -0.3420
 6712TIP3    H141627   1.987   2.148  11.633  3.5751 -1.9502 -2.7663
 6712TIP3    H241628   1.950   2.263  11.542  0.1912 -1.3853 -0.8483
 6713TIP3   OH241629   5.210   1.088  16.881  0.5161 -0.1371  0.4680
 6713TIP3    H141630   5.156   1.159  16.915 -0.9099 -1.9982  2.4004
 6713TIP3    H241631   5.232   1.036  16.959  2.9527 -0.9000 -0.6380
 6714TIP3   OH241632   3.304   3.526   1.055  0.3820 -0.1953 -0.2306
 6714TIP3    H141633   3.367   3.456   1.074  0.1883  0.0073  1.3340
 6714TIP3    H241634   3.350   3.585   0.995  1.2683 -0.6289  0.0083
 6715TIP3   OH241635   5.206   2.460   1.943  0.1657 -0.2185 -0.0861
 6715TIP3    H141636   5.239   2.459   2.033  0.8812  1.1642 -0.3069
 6715TIP3    H241637   5.156   2.379   1.935  0.2332 -0.4494  1.4999
 6716TIP3   OH241638   1.225   0.373  11.469 -0.4326 -0.0227  0.2595
 6716TIP3    H141639   1.221   0.352  11.376 -0.8790 -1.8622  0.6546
 6716TIP3    H241640   1.134   0.367  11.498 -0.4214  1.4121  0.6641
 6717TIP3   OH241641   4.615   2.386   6.251  1.0017 -0.3829  0.6501
 6717TIP3    H141642   4.582   2.311   6.201 -1.0600  0.4590  0.6620
 6717TIP3    H241643   4.703   2.400   6.217  1.3596 -2.6468  0.4867
 6718TIP3   OH241644   0.313   5.111   3.247 -0.1338  0.2939  0.0040
 6718TIP3    H141645   0.368   5.152   3.181 -1.0370  1.4246 -0.0870
 6718TIP3    H241646   0.242   5.174   3.261 -0.5697 -0.4324  1.2247
 6719TIP3   OH241647   5.811   5.291   0.694 -0.1283  0.3849  0.1352
 6719TIP3    H141648   5.735   5.250   0.736  1.9493 -1.2630  2.6384
 6719TIP3    H241649   5.854   5.338   0.765  1.9271  0.0915 -0.8402
 6720TIP3   OH241650   1.158   1.347  13.571  0.1051  0.0975 -0.0882
 6720TIP3    H141651   1.201   1.263  13.585  0.4731  0.0387 -1.3711
 6720TIP3    H241652   1.128   1.343  13.480 -0.7740  0.9628  0.1424
 6721TIP3   OH241653   0.336   4.248   5.498  0.6106 -0.7317  0.1179
 6721TIP3    H141654   0.322   4.271   5.590  0.2347  0.7949 -0.2853
 6721TIP3    H241655   0.261   4.286   5.452  0.2012 -2.4338 -0.7110
 6722TIP3   OH241656   2.544   1.637   3.446 -0.2849  0.2447  0.6059
 6722TIP3    H141657   2.464   1.688   3.440 -0.4741 -0.0584  0.5415
 6722TIP3    H241658   2.567   1.639   3.539 -2.2213 -2.4862  1.2612
 6723TIP3   OH241659   0.387   5.583  15.336  0.4253  0.0594 -1.0409
 6723TIP3    H141660   0.441   5.509  15.362  0.2900  0.5027  0.6166
 6723TIP3    H241661   0.350   5.558  15.252  0.4840 -1.7003 -0.5679
 6724TIP3   OH241662   3.337   3.695  12.137  0.4122  0.6362 -0.3556
 6724TIP3    H141663   3.374   3.739  12.061  1.0390 -0.1197 -0.5036
 6724TIP3    H241664   3.242   3.700  12.125  0.4731  1.8563 -0.4061
 6725TIP3   OH241665   3.271   2.580  16.631 -0.0083  0.0532 -0.3739
 6725TIP3    H141666   3.346   2.588  16.689  1.1210 -0.2429 -1.7306
 6725TIP3    H241667   3.308   2.554  16.547 -1.6866 -0.6241 -0.9561
 6726TIP3   OH241668   1.624   1.692   3.584 -0.0289  0.0707  0.1190
 6726TIP3    H141669   1.560   1.760   3.600  0.3764  0.1311  1.6206
 6726TIP3    H241670   1.574   1.610   3.587  0.0350  0.0582  2.0587
 6727TIP3   OH241671   3.738   3.913  11.909 -0.0012 -0.3098  0.3201
 6727TIP3    H141672   3.668   3.913  11.975  0.0956 -1.0968  0.4298
 6727TIP3    H241673   3.714   3.842  11.849  0.9445 -0.8900  0.6176
 6728TIP3   OH241674   5.383   2.179  14.276  0.5079  0.2757  0.0023
 6728TIP3    H141675   5.314   2.117  14.250 -0.6247  1.1330  0.8317
 6728TIP3    H241676   5.427   2.136  14.349 -1.7573  1.2966  2.1091
 6729TIP3   OH241677   2.902   6.565   5.976  0.0451 -0.0259  0.3158
 6729TIP3    H141678   2.808   6.580   5.973 -0.0880 -0.9942 -1.6404
 6729TIP3    H241679   2.941   6.650   5.956 -0.3897  0.3297  0.9307
 6730TIP3   OH241680   3.106   5.104  11.686  0.0080 -0.5045 -0.3348
 6730TIP3    H141681   3.161   5.167  11.733  1.8193 -1.0858 -1.5678
 6730TIP3    H241682   3.166   5.058  11.628 -1.4324 -2.7214 -0.1929
 6731TIP3   OH241683   6.701   5.965   5.221  0.1087 -0.3682 -0.1170
 6731TIP3    H141684   6.735   6.054   5.209 -1.1427  0.0760 -0.5223
 6731TIP3    H241685   6.611   5.970   5.191  0.1414 -1.8931 -0.5515
 6732TIP3   OH241686   4.586   3.732  12.836 -0.5561 -0.1607 -0.4957
 6732TIP3    H141687   4.580   3.827  12.844 -2.6935 -0.3415  0.9843
 6732TIP3    H241688   4.678   3.711  12.853  0.0117  1.6355 -1.1774
 6733TIP3   OH241689   4.464   4.766  16.767 -0.5565 -0.8144  0.6740
 6733TIP3    H141690   4.463   4.829  16.695  1.0669 -1.0121  0.4346
 6733TIP3    H241691   4.459   4.820  16.846 -2.6193 -0.6097  0.4704
 6734TIP3   OH241692   0.697   0.375   1.366 -0.5131 -0.0825 -0.2267
 6734TIP3    H141693   0.704   0.372   1.462  0.0331 -1.8408 -0.2711
 6734TIP3    H241694   0.788   0.380   1.336 -0.7050  0.9404 -0.6531
 6735TIP3   OH241695   3.591   6.192  15.536 -0.2976  0.4554  0.1491
 6735TIP3    H141696   3.615   6.247  15.461 -1.9452  0.6059 -0.3039
 6735TIP3    H241697   3.646   6.115  15.527  0.2390  0.9119 -0.6521
 6736TIP3   OH241698   4.162   3.710  14.968 -0.6424  0.1596  0.5046
 6736TIP3    H141699   4.185   3.740  15.056 -1.5102  0.9381  0.4854
 6736TIP3    H241700   4.222   3.758  14.911 -0.5050  0.1379  0.6290
 6737TIP3   OH241701   1.207   6.597  11.962  0.3578 -0.2103  0.1668
 6737TIP3    H141702   1.124   6.644  11.951  1.1428  0.8033 -2.0448
 6737TIP3    H241703   1.243   6.590  11.873  3.0249  0.0951  1.1218
 6738TIP3   OH241704   2.274   1.559  15.674  0.1592  0.5582 -0.2804
 6738TIP3    H141705   2.209   1.615  15.717 -1.7356 -1.8253  0.1440
 6738TIP3    H241706   2.285   1.485  15.733  2.0591  0.0875 -1.1506
 6739TIP3   OH241707   0.357   2.872   5.309  0.3289 -0.3932  0.3136
 6739TIP3    H141708   0.278   2.875   5.363  0.1765  1.1575  0.0671
 6739TIP3    H241709   0.409   2.801   5.346 -0.5668 -0.5303  1.3661
 6740TIP3   OH241710   4.102   3.640  13.467 -0.6148 -0.1196 -0.1981
 6740TIP3    H141711   4.156   3.647  13.388  0.3751  0.7242  0.5298
 6740TIP3    H241712   4.107   3.548  13.492 -0.6843 -0.3290 -0.9331
 6741TIP3   OH241713   2.458   4.026  16.944  0.4392 -0.1408 -0.2301
 6741TIP3    H141714   2.385   3.965  16.942  0.6858 -0.5387  1.4783
 6741TIP3    H241715   2.488   4.031  16.853 -0.1668 -1.8410 -0.5480
 6742TIP3   OH241716   4.020   5.912   6.385 -0.3579  0.5736 -0.0621
 6742TIP3    H141717   4.097   5.879   6.338 -0.3005  0.1494  0.3299
 6742TIP3    H241718   3.961   5.942   6.315  0.2166  1.0344 -0.3616
 6743TIP3   OH241719   1.062   5.504   5.736  0.5879 -0.1454 -0.6521
 6743TIP3    H141720   1.027   5.522   5.823 -1.1725  0.9885 -1.5557
 6743TIP3    H241721   1.153   5.535   5.740  0.0308  1.4690  0.2745
 6744TIP3   OH241722   6.827   6.720  11.878 -0.1709  0.1028  0.0063
 6744TIP3    H141723   6.840   6.628  11.853 -1.4196  0.4315 -2.0726
 6744TIP3    H241724   6.763   6.716  11.950  1.4939 -0.7258  1.5286
 6745TIP3   OH241725   6.201   2.121   5.972 -0.5824 -0.8330  0.3343
 6745TIP3    H141726   6.167   2.051   6.027 -1.1270 -0.1706  0.8551
 6745TIP3    H241727   6.123   2.164   5.937 -0.2757 -2.0305 -2.0247
 6746TIP3   OH241728   1.312   1.019   5.546 -0.2663  0.2772  0.4308
 6746TIP3    H141729   1.400   1.011   5.582 -1.1367 -0.7659  2.4491
 6746TIP3    H241730   1.255   1.031   5.622 -1.8211  1.7949 -0.8603
 6747TIP3   OH241731   4.353   2.344  14.652 -0.2564  0.2444  0.4790
 6747TIP3    H141732   4.360   2.253  14.622 -0.1370 -0.2559  1.9567
 6747TIP3    H241733   4.300   2.387  14.585  0.4133 -0.6880 -0.7066
 6748TIP3   OH241734   4.894   6.495  15.963 -0.1106  0.0755 -0.0247
 6748TIP3    H141735   4.950   6.434  16.011 -0.6747  1.4317  2.5274
 6748TIP3    H241736   4.955   6.548  15.911  0.4610 -1.8774 -1.4526
 6749TIP3   OH241737   2.294   1.617  16.702 -0.1054 -0.3649  0.4721
 6749TIP3    H141738   2.342   1.570  16.771 -3.7079 -1.2534  2.6671
 6749TIP3    H241739   2.257   1.547  16.648  0.0977  0.2428 -0.4665
 6750TIP3   OH241740   2.596   4.448   2.876  0.3119  0.3739  0.3651
 6750TIP3    H141741   2.681   4.481   2.844  2.1803 -0.9461  3.4932
 6750TIP3    H241742   2.612   4.355   2.892 -2.2713 -0.2637 -0.3724
 6751TIP3   OH241743   1.407   4.680  17.112 -0.5716 -0.9571  0.7603
 6751TIP3    H141744   1.362   4.658  17.030 -0.0820 -0.8465  0.4624
 6751TIP3    H241745   1.389   4.774  17.125 -0.6120 -0.9647  0.7592
 6752TIP3   OH241746   5.522   3.790  16.354 -0.6346  0.2031 -0.0197
 6752TIP3    H141747   5.479   3.708  16.380 -2.1875  0.3267 -2.0009
 6752TIP3    H241748   5.459   3.832  16.295  0.6446  2.2650  0.0170
 6753TIP3   OH241749   0.495   4.754   3.438 -0.2061  0.4333  0.1158
 6753TIP3    H141750   0.577   4.708   3.419 -0.4901 -0.2944  0.5781
 6753TIP3    H241751   0.429   4.704   3.390 -0.6647 -0.3014  1.4525
 6754TIP3   OH241752   0.028   1.730   5.925 -0.7429  0.6913 -0.2373
 6754TIP3    H141753  -0.050   1.763   5.970 -0.0812  1.3074  0.4926
 6754TIP3    H241754   0.042   1.790   5.852 -2.0753 -0.5635 -1.5949
 6755TIP3   OH241755   5.577   3.000   3.707  0.0135 -0.0396 -0.1168
 6755TIP3    H141756   5.670   3.023   3.705  0.3378 -1.3194 -0.4430
 6755TIP3    H241757   5.541   3.044   3.629  0.6351 -0.6622 -0.7746
 6756TIP3   OH241758   4.633   3.276  16.273  0.7417 -0.5805 -0.3022
 6756TIP3    H141759   4.633   3.357  16.223 -2.0087  1.3657  2.4371
 6756TIP3    H241760   4.548   3.236  16.255  0.6868 -1.0611  0.9050
 6757TIP3   OH241761   4.151   4.751  13.433  0.2663 -0.0451 -0.0004
 6757TIP3    H141762   4.083   4.761  13.500  1.0588  0.4578  0.7407
 6757TIP3    H241763   4.128   4.814  13.365 -0.9979 -1.1194 -0.6167
 6758TIP3   OH241764   0.659   4.260  14.129 -0.7042 -0.5311 -0.0523
 6758TIP3    H141765   0.645   4.167  14.150 -0.4708 -0.5342  0.0948
 6758TIP3    H241766   0.753   4.271  14.135 -0.8223  0.0114  1.2050
 6759TIP3   OH241767   6.503   1.623  16.084 -0.1266  0.1902 -0.0480
 6759TIP3    H141768   6.470   1.596  15.998 -1.2932  1.7243 -0.1259
 6759TIP3    H241769   6.581   1.675  16.065  0.9328 -1.3082 -0.0066
 6760TIP3   OH241770   4.621   1.801  16.948  0.1430  0.0924 -0.0453
 6760TIP3    H141771   4.603   1.713  16.981  1.5356 -0.3907 -0.5052
 6760TIP3    H241772   4.696   1.831  17.000 -1.5271  1.8280  1.4915
 6761TIP3   OH241773   3.001   5.652  16.867  0.1313 -0.2606  0.1971
 6761TIP3    H141774   3.081   5.633  16.818 -0.1071  0.7419 -0.6039
 6761TIP3    H241775   2.989   5.746  16.858 -0.5379 -0.2279  1.2568
 6762TIP3   OH241776   2.657   6.358   0.252  0.2039 -0.0510  0.8370
 6762TIP3    H141777   2.568   6.337   0.280  0.0461 -0.5321  0.0233
 6762TIP3    H241778   2.645   6.413   0.175  0.6208  0.6064  1.2350
 6763TIP3   OH241779   2.545   2.152   1.551  0.5265  0.3102  0.0813
 6763TIP3    H141780   2.576   2.068   1.517  0.3732  1.2028 -2.4340
 6763TIP3    H241781   2.625   2.202   1.569  0.6027  0.0329  0.5265
 6764TIP3   OH241782   2.994   6.474  11.763  0.0574  0.5187  0.0043
 6764TIP3    H141783   2.969   6.418  11.690 -0.8811 -0.8008  1.2893
 6764TIP3    H241784   2.913   6.487  11.812 -0.0284  3.9493 -0.8019
 6765TIP3   OH241785   1.500   1.455   3.259  0.7259  0.7265 -0.6311
 6765TIP3    H141786   1.505   1.490   3.170  0.5292 -0.1279 -0.9861
 6765TIP3    H241787   1.544   1.370   3.255  0.8284  0.7329  0.1183
 6766TIP3   OH241788   3.342   0.943  11.314  0.1154  0.2305 -0.0893
 6766TIP3    H141789   3.325   0.997  11.236  0.5428 -0.9499 -1.0362
 6766TIP3    H241790   3.321   1.000  11.388  1.0082  1.8574 -1.0329
 6767TIP3   OH241791   1.042   4.355  12.223 -0.0172  0.2321 -0.0063
 6767TIP3    H141792   1.037   4.432  12.167  0.8375  0.0879 -0.2865
 6767TIP3    H241793   1.044   4.281  12.163  0.2506  0.0459  0.2251
 6768TIP3   OH241794   6.114   3.293   4.057  0.1831 -0.4404 -0.2115
 6768TIP3    H141795   6.098   3.275   4.150 -0.9759  4.1851  0.7460
 6768TIP3    H241796   6.036   3.260   4.013 -1.5268  1.4010  1.2356
 6769TIP3   OH241797   4.574   4.633   0.879 -0.0671 -0.6261  0.2145
 6769TIP3    H141798   4.506   4.567   0.864 -1.2795  0.6071  0.0621
 6769TIP3    H241799   4.549   4.674   0.962 -1.0236  1.5420 -1.0622
 6770TIP3   OH241800   0.330   6.481   4.847  0.2514  0.1320  0.4171
 6770TIP3    H141801   0.303   6.521   4.930  0.8474  0.2349  0.5672
 6770TIP3    H241802   0.359   6.555   4.793  0.0321  0.0461  0.1800
 6771TIP3   OH241803   5.618   3.092   6.799 -0.4578  0.3081  0.2638
 6771TIP3    H141804   5.646   3.010   6.759  0.6475  1.5727 -1.7309
 6771TIP3    H241805   5.634   3.158   6.731 -2.4096  2.0147  1.3656
 6772TIP3   OH241806   1.877   4.093  14.586  0.2013  0.0848 -0.2260
 6772TIP3    H141807   1.903   4.179  14.620 -2.9773  0.1637  2.4636
 6772TIP3    H241808   1.933   4.031  14.632  1.5499  0.5931 -1.1321
 6773TIP3   OH241809   5.210   4.990  13.258 -0.1886  0.8363 -0.1140
 6773TIP3    H141810   5.158   4.942  13.322  0.3516 -0.1831 -0.4159
 6773TIP3    H241811   5.146   5.038  13.205 -0.6501  1.5788  1.0691
 6774TIP3   OH241812   0.325   3.040  15.895  0.0933  0.1473  0.0896
 6774TIP3    H141813   0.416   3.031  15.921  0.3771  3.0799  0.4592
 6774TIP3    H241814   0.324   3.115  15.835 -1.8913 -0.6263 -0.9454
 6775TIP3   OH241815   2.678   6.728  14.334 -0.9425 -0.4863  0.1234
 6775TIP3    H141816   2.706   6.754  14.246 -2.5027  1.1601  0.0523
 6775TIP3    H241817   2.647   6.638  14.323 -1.1250 -0.3013 -1.0202
 6776TIP3   OH241818   3.080   4.752  13.965  0.1080  0.0895  0.4125
 6776TIP3    H141819   3.174   4.734  13.969 -0.0524 -1.2466 -0.7336
 6776TIP3    H241820   3.048   4.729  14.053  0.5239 -1.8273  0.1234
 6777TIP3   OH241821   5.303   6.714   2.084  0.3766 -0.3967 -0.3251
 6777TIP3    H141822   5.340   6.772   2.151 -3.8592  0.3991  1.6714
 6777TIP3    H241823   5.288   6.632   2.131  0.4982 -1.0207 -1.3546
 6778TIP3   OH241824   6.680   5.472  13.687  0.5731  0.3140 -0.0808
 6778TIP3    H141825   6.704   5.443  13.598  0.4838 -0.5827  0.1772
 6778TIP3    H241826   6.691   5.394  13.741  2.9559  1.4069  1.1651
 6779TIP3   OH241827   1.986   4.190  11.610 -0.5426 -0.1690  0.1803
 6779TIP3    H141828   2.032   4.247  11.671 -2.4338  0.3604  1.1911
 6779TIP3    H241829   1.958   4.247  11.539 -1.1772 -0.0911  0.4781
 6780TIP3   OH241830   2.213   5.520   2.549  0.4722 -0.0918 -0.4167
 6780TIP3    H141831   2.209   5.426   2.563 -0.7441  0.2338  2.0847
 6780TIP3    H241832   2.149   5.538   2.480  0.3350 -1.0312 -0.5375
 6781TIP3   OH241833   2.493   1.474   3.704  0.1158 -0.0737 -0.8387
 6781TIP3    H141834   2.399   1.493   3.712 -0.2423 -2.1463  0.7516
 6781TIP3    H241835   2.519   1.446   3.792  2.7106  2.1707 -0.7674
 6782TIP3   OH241836   5.331   0.616  13.440 -0.1905 -0.3971 -0.4295
 6782TIP3    H141837   5.375   0.532  13.451  1.3627  0.5686  1.2239
 6782TIP3    H241838   5.398   0.674  13.402 -0.5289  0.6729  0.5605
 6783TIP3   OH241839   4.492   3.451  13.680 -0.0460 -0.1072  0.1012
 6783TIP3    H141840   4.439   3.432  13.603 -0.7245  1.3728  0.1773
 6783TIP3    H241841   4.446   3.406  13.752  0.3581 -1.1326 -0.2581
 6784TIP3   OH241842   2.776   2.398  15.230  0.3780 -0.3861  0.1155
 6784TIP3    H141843   2.713   2.333  15.198  1.4941 -0.8916 -1.1547
 6784TIP3    H241844   2.816   2.356  15.306 -0.6270 -0.1631  0.7813
 6785TIP3   OH241845   5.682   3.593  16.777 -0.1853  0.5645 -0.8544
 6785TIP3    H141846   5.749   3.660  16.790  0.7368 -0.0060 -2.3461
 6785TIP3    H241847   5.618   3.635  16.718  0.7223 -0.0147 -2.3162
 6786TIP3   OH241848   6.240   3.565  15.413  0.2103  0.4302  0.3780
 6786TIP3    H141849   6.317   3.585  15.361 -0.3694 -1.8355 -1.5428
 6786TIP3    H241850   6.274   3.530  15.495  1.1874  0.6721  0.0855
 6787TIP3   OH241851   4.672   2.901   0.218 -0.0265 -0.0122  0.3166
 6787TIP3    H141852   4.630   2.961   0.280  1.4469  0.2161  1.1339
 6787TIP3    H241853   4.610   2.829   0.208 -0.1532 -0.2384  2.3553
 6788TIP3   OH241854   5.853   3.967  13.453  0.1596  0.6084  0.2563
 6788TIP3    H141855   5.851   3.972  13.358 -1.9139 -3.0296 -0.1013
 6788TIP3    H241856   5.888   3.880  13.472  0.0237  1.0307  2.8095
 6789TIP3   OH241857   6.210   2.995   4.798 -0.1508 -0.7266 -0.5249
 6789TIP3    H141858   6.225   2.990   4.893  0.7661  0.3439 -0.5975
 6789TIP3    H241859   6.121   2.961   4.787 -0.6837  0.1014  0.8546
 6790TIP3   OH241860   1.847   2.091   3.155 -0.1574  0.0316 -0.5504
 6790TIP3    H141861   1.911   2.028   3.121  0.2351  0.2913 -0.2956
 6790TIP3    H241862   1.797   2.117   3.078 -0.5204 -0.8124 -0.6132
 6791TIP3   OH241863   4.580   6.198   1.726  0.3708 -0.6555 -0.2673
 6791TIP3    H141864   4.562   6.286   1.694 -1.1922  0.4917  3.2267
 6791TIP3    H241865   4.632   6.211   1.805 -1.7608 -2.5904  1.6185
 6792TIP3   OH241866   0.969   2.105  10.759 -0.3546  0.5480 -0.5059
 6792TIP3    H141867   0.929   2.047  10.824 -1.8334  2.5553  0.4799
 6792TIP3    H241868   0.914   2.097  10.682 -2.3842  2.6891  0.5800
 6793TIP3   OH241869   6.131   2.098   3.221 -0.2234 -0.2385  0.2869
 6793TIP3    H141870   6.085   2.017   3.200 -0.3422 -1.0352  3.1639
 6793TIP3    H241871   6.223   2.072   3.227 -0.0291  0.2466 -0.5300
 6794TIP3   OH241872   2.783   4.408  13.794 -0.0046 -0.0548 -0.2500
 6794TIP3    H141873   2.767   4.402  13.699  0.9159  1.1650 -0.5218
 6794TIP3    H241874   2.696   4.400  13.833 -0.8723  2.4789 -1.4051
 6795TIP3   OH241875   6.635   0.193  16.170 -0.5537 -0.0470 -0.1532
 6795TIP3    H141876   6.662   0.210  16.260 -0.9963 -1.2621  0.2357
 6795TIP3    H241877   6.637   0.279  16.127 -1.0922  0.6839  1.2144
 6796TIP3   OH241878   1.154   6.815  11.507  0.2524 -0.8676  0.7244
 6796TIP3    H141879   1.144   6.722  11.529 -1.6651 -0.8097  0.2635
 6796TIP3    H241880   1.080   6.858  11.550  0.9800  0.4152  0.7315
 6797TIP3   OH241881   5.485   1.875  14.294  0.5244  0.4233 -0.2171
 6797TIP3    H141882   5.564   1.912  14.332  2.2736 -1.4298 -1.8559
 6797TIP3    H241883   5.444   1.828  14.367  2.1694 -0.5068  0.1551
 6798TIP3   OH241884   5.777   1.525   2.322 -0.1236  0.3247 -0.4328
 6798TIP3    H141885   5.843   1.456   2.330 -0.1326  0.2789 -0.7459
 6798TIP3    H241886   5.827   1.606   2.322 -0.0820  0.2986 -0.4983
 6799TIP3   OH241887   5.741   4.465   1.240 -0.6734  0.4757  0.2205
 6799TIP3    H141888   5.770   4.431   1.325 -0.4948  0.6752  0.2407
 6799TIP3    H241889   5.765   4.396   1.178  0.1285  0.7628  0.1949
 6800TIP3   OH241890   3.993   5.425  12.426  1.0772  0.0880  0.0416
 6800TIP3    H141891   3.960   5.501  12.474  1.1620 -0.2662  0.6658
 6800TIP3    H241892   3.941   5.351  12.457  1.3556 -0.2037 -0.1712
 6801TIP3   OH241893   5.001   1.539   3.465  0.3122 -0.0505 -0.0564
 6801TIP3    H141894   5.010   1.550   3.560  1.0922 -0.3649 -0.0896
 6801TIP3    H241895   4.919   1.491   3.455  0.6771 -0.8120  0.5165
 6802TIP3   OH241896   0.623   5.782   6.603 -0.3562  0.2618  0.4289
 6802TIP3    H141897   0.615   5.821   6.690 -0.3569 -0.4429  0.7516
 6802TIP3    H241898   0.535   5.750   6.583 -0.1683 -0.3459  0.5465
 6803TIP3   OH241899   3.579   4.746  15.368 -0.0685  0.0437  0.6741
 6803TIP3    H141900   3.546   4.738  15.279 -1.2152 -1.8056  1.2134
 6803TIP3    H241901   3.607   4.657  15.391  2.2588  0.8923  1.4221
 6804TIP3   OH241902   3.972   2.054  12.222  0.4757  0.2746  0.1328
 6804TIP3    H141903   3.978   1.959  12.212  2.1053  0.3680 -0.1166
 6804TIP3    H241904   4.030   2.088  12.154  0.6722  1.4169  0.8510
 6805TIP3   OH241905   3.171   6.283  15.816 -0.4490  0.6020 -0.1365
 6805TIP3    H141906   3.222   6.268  15.736  0.5921  1.2777  0.3740
 6805TIP3    H241907   3.179   6.377  15.833  0.2423  0.3155  1.3276
 6806TIP3   OH241908   3.673   2.112  14.550  0.2905  0.0657 -0.0701
 6806TIP3    H141909   3.762   2.122  14.584  0.3354  2.9792 -0.7734
 6806TIP3    H241910   3.654   2.019  14.560  4.1857 -1.1223 -1.8201
 6807TIP3   OH241911   0.007   0.432  14.861 -0.0387 -0.6510  0.5032
 6807TIP3    H141912  -0.088   0.437  14.859  0.0393  1.4121 -0.4801
 6807TIP3    H241913   0.033   0.489  14.933  0.4583 -1.7410  1.2149
 6808TIP3   OH241914   6.647   4.106   1.045  0.5304 -0.4600 -0.1706
 6808TIP3    H141915   6.697   4.167   0.990  0.7965 -0.6347 -0.1230
 6808TIP3    H241916   6.708   4.079   1.113 -0.6256  2.1014  2.0656
 6809TIP3   OH241917   2.030   0.598   0.714 -0.3178 -0.1368 -0.1336
 6809TIP3    H141918   1.960   0.552   0.667  0.1430 -2.6035  1.3744
 6809TIP3    H241919   2.110   0.573   0.668 -0.2730  1.8560 -1.2383
 6810TIP3   OH241920   4.994   3.687  15.111  0.6221  0.1358  0.1047
 6810TIP3    H141921   4.944   3.651  15.037  1.2522 -1.6982  0.5240
 6810TIP3    H241922   5.085   3.665  15.091  1.2615  2.7543 -0.2638
 6811TIP3   OH241923   1.443   6.175  15.974 -0.1554 -0.5374  0.1102
 6811TIP3    H141924   1.493   6.240  16.023  0.7650 -1.5807  0.5926
 6811TIP3    H241925   1.353   6.205  15.981 -0.0081 -0.4075  2.0733
 6812TIP3   OH241926   5.900   5.559   2.877  0.5670  0.2116 -0.1265
 6812TIP3    H141927   5.896   5.653   2.860 -1.1981 -0.0480 -1.5408
 6812TIP3    H241928   5.905   5.519   2.790  0.2223 -1.0204  0.3884
 6813TIP3   OH241929   3.254   4.834  15.290 -0.4422 -0.4245 -0.9380
 6813TIP3    H141930   3.231   4.795  15.374 -0.3051 -0.6582 -1.0064
 6813TIP3    H241931   3.324   4.896  15.311  1.3740 -2.2356 -1.1712
 6814TIP3   OH241932   0.791   1.329  13.850 -0.4409 -0.1007  0.2315
 6814TIP3    H141933   0.752   1.293  13.929  1.7083  1.4887  2.1480
 6814TIP3    H241934   0.849   1.261  13.818  0.2683 -0.0153  1.2803
 6815TIP3   OH241935   3.380   5.737   2.450 -0.7978  0.4712 -0.3305
 6815TIP3    H141936   3.457   5.683   2.466  0.8577  2.8976  0.2554
 6815TIP3    H241937   3.322   5.719   2.524  0.4591  0.7035  0.7501
 6816TIP3   OH241938   5.739   2.983   4.209  0.6103 -0.0028  0.7703
 6816TIP3    H141939   5.790   2.902   4.212  1.1512  0.1025 -2.0593
 6816TIP3    H241940   5.656   2.958   4.168 -0.5386  0.3586  2.7585
 6817TIP3   OH241941   0.279   4.405   4.192 -0.1662 -0.0348 -0.7160
 6817TIP3    H141942   0.252   4.319   4.224  0.8262 -0.2181 -0.3431
 6817TIP3    H241943   0.372   4.412   4.217 -0.2842  1.2181 -0.5797
 6818TIP3   OH241944   0.708   5.785   0.468 -0.1329 -0.1684 -0.2148
 6818TIP3    H141945   0.673   5.820   0.386  1.0020  2.9076  0.4953
 6818TIP3    H241946   0.800   5.808   0.467 -0.2483  0.7168  2.2654
 6819TIP3   OH241947   6.555   4.818   2.947 -0.5668  0.0917 -0.7042
 6819TIP3    H141948   6.625   4.834   3.011 -0.9984 -1.5669  0.2147
 6819TIP3    H241949   6.480   4.790   2.999 -1.1442 -0.6210 -1.8815
 6820TIP3   OH241950   2.729   4.752   3.453 -0.2093  0.0538  0.0008
 6820TIP3    H141951   2.765   4.805   3.382  2.5578  0.1803  1.3684
 6820TIP3    H241952   2.639   4.735   3.427 -0.3718  3.0471 -1.8316
 6821TIP3   OH241953   3.536   1.660   1.801 -0.4630  0.2418 -0.4697
 6821TIP3    H141954   3.511   1.619   1.884  4.3842  0.1258  1.2337
 6821TIP3    H241955   3.533   1.754   1.819  0.9846  0.2089  0.0665
 6822TIP3   OH241956   2.444   3.429  14.546 -0.6242 -0.0096 -0.3175
 6822TIP3    H141957   2.362   3.406  14.502 -1.0282 -1.3483  1.0419
 6822TIP3    H241958   2.508   3.367  14.510 -0.8977 -0.9338  0.7516
 6823TIP3   OH241959   3.854   5.844  14.382  0.2082 -0.2309  0.3122
 6823TIP3    H141960   3.860   5.762  14.431 -0.2457  0.3909  1.4467
 6823TIP3    H241961   3.850   5.912  14.449 -1.0560  0.6176 -0.5691
 6824TIP3   OH241962   4.185   3.405  13.084 -0.3351 -0.0221  0.1469
 6824TIP3    H141963   4.125   3.330  13.086 -0.3577  0.0048  1.0054
 6824TIP3    H241964   4.127   3.481  13.090 -0.5110  0.2303 -3.1319
 6825TIP3   OH241965   0.875   6.561  15.470 -0.1003  0.6116 -0.1051
 6825TIP3    H141966   0.846   6.507  15.396  2.0110 -0.7713  0.0160
 6825TIP3    H241967   0.935   6.624  15.431 -1.1540  1.7632  0.0506
 6826TIP3   OH241968   6.246   3.184  13.969 -0.3253  0.3165  0.5515
 6826TIP3    H141969   6.234   3.134  13.888 -1.2244  0.3456  0.6616
 6826TIP3    H241970   6.327   3.233  13.954 -0.8933  0.9235 -0.6524
 6827TIP3   OH241971   6.332   6.358   1.294  0.1507 -0.5559  0.0708
 6827TIP3    H141972   6.310   6.310   1.373  0.5976  0.6384  0.9534
 6827TIP3    H241973   6.300   6.447   1.311  0.9700 -0.0850 -0.7634
 6828TIP3   OH241974   2.821   1.589  11.544 -0.2495 -0.0903  0.1512
 6828TIP3    H141975   2.855   1.655  11.483 -2.6693  1.8607  0.7726
 6828TIP3    H241976   2.861   1.611  11.628 -0.2208 -0.1105  0.1428
 6829TIP3   OH241977   6.756   0.923  12.002  0.4456 -0.1104  0.2284
 6829TIP3    H141978   6.709   0.927  11.919 -1.6347  0.9321  1.3679
 6829TIP3    H241979   6.847   0.940  11.979 -0.2620  1.4038 -1.7084
 6830TIP3   OH241980   4.230   2.582  13.191  0.2547  0.3478 -0.2411
 6830TIP3    H141981   4.202   2.648  13.127  0.2098  2.7710  2.1132
 6830TIP3    H241982   4.148   2.549  13.228  0.3077 -0.1316 -0.5495
 6831TIP3   OH241983   0.135   0.699   0.003  0.0791 -0.5817 -0.4145
 6831TIP3    H141984   0.053   0.746   0.013  0.9089  0.4540  2.5016
 6831TIP3    H241985   0.110   0.611  -0.024 -1.8859 -0.0323 -0.5076
 6832TIP3   OH241986   2.297   4.547  12.440 -0.1496 -0.0149 -0.1638
 6832TIP3    H141987   2.314   4.641  12.451  1.3813  0.2319 -3.4912
 6832TIP3    H241988   2.377   4.505  12.470 -0.1817 -0.1316 -0.2425
 6833TIP3   OH241989   3.159   5.671  16.081 -0.4286 -0.0290 -0.4981
 6833TIP3    H141990   3.116   5.749  16.116 -0.3894 -0.7825  1.3463
 6833TIP3    H241991   3.194   5.626  16.158 -0.3362 -1.8031 -1.5163
 6834TIP3   OH241992   6.722   6.615   3.408 -0.4733  0.2065 -0.3747
 6834TIP3    H141993   6.682   6.651   3.487 -0.9966  0.3369 -0.6940
 6834TIP3    H241994   6.650   6.572   3.362 -0.3285  0.7371 -1.1268
 6835TIP3   OH241995   2.819   2.332   0.623  0.2067  0.0242  0.1605
 6835TIP3    H141996   2.743   2.292   0.664  0.4162  0.4128  0.9448
 6835TIP3    H241997   2.858   2.261   0.571  0.2818 -0.6672  1.1161
 6836TIP3   OH241998   4.059   6.785   0.319 -0.1416  0.0106 -0.1731
 6836TIP3    H141999   4.081   6.820   0.233 -1.1019  1.9231  0.2824
 6836TIP3    H242000   4.142   6.783   0.366  0.0998  0.7569 -0.5532
 6837TIP3   OH242001   3.306   2.681   3.089 -0.3390  0.1610  0.3783
 6837TIP3    H142002   3.400   2.669   3.079  0.0170  2.3291  0.6424
 6837TIP3    H242003   3.284   2.636   3.170  0.6543  0.4297  0.8082
 6838TIP3   OH242004   1.408   5.077   4.739 -0.2879 -0.1945  0.4875
 6838TIP3    H142005   1.445   5.139   4.676 -1.5049  0.0237 -0.0423
 6838TIP3    H242006   1.387   5.000   4.687 -0.1398 -0.4924  0.8665
 6839TIP3   OH242007   1.594   2.986   5.635 -0.5000 -0.1942 -0.3374
 6839TIP3    H142008   1.624   3.072   5.606 -0.9109  0.3229  0.7339
 6839TIP3    H242009   1.510   2.973   5.589 -1.2486  0.7108  0.7333
 6840TIP3   OH242010   2.362   5.237  12.685 -0.5563  0.1434  0.0106
 6840TIP3    H142011   2.366   5.200  12.597  0.7323 -3.1392  1.3115
 6840TIP3    H242012   2.299   5.182  12.732  1.0897 -0.2073  1.9405
 6841TIP3   OH242013   0.592   3.024   4.320 -0.4093  0.3785  0.5083
 6841TIP3    H142014   0.667   3.022   4.380 -1.2401 -0.7801  1.5558
 6841TIP3    H242015   0.629   3.004   4.234  0.3487 -1.1630  1.1719
 6842TIP3   OH242016   4.959   3.299  15.044 -0.0860 -0.1646  0.1415
 6842TIP3    H142017   5.026   3.243  15.007 -0.7247 -1.1328  0.3973
 6842TIP3    H242018   4.913   3.336  14.968  0.1469 -0.2318 -0.0309
 6843TIP3   OH242019   4.858   3.610  14.534 -0.1391 -0.1391  0.0534
 6843TIP3    H142020   4.884   3.686  14.481 -1.8172  0.4444 -0.0052
 6843TIP3    H242021   4.825   3.546  14.471 -0.1997 -0.2791  0.2258
 6844TIP3   OH242022   4.495   1.519  12.166 -0.5207 -0.3706  0.0265
 6844TIP3    H142023   4.416   1.467  12.154 -0.6702  0.1552 -1.4284
 6844TIP3    H242024   4.504   1.569  12.085  0.7288  0.3642  0.5833
 6845TIP3   OH242025   3.504   1.746   1.327  0.0685  0.5742  0.4600
 6845TIP3    H142026   3.573   1.683   1.346 -0.1698  0.2009  0.1027
 6845TIP3    H242027   3.426   1.710   1.369  0.4644  1.9528  2.5482
 6846TIP3   OH242028   3.327   4.532  12.001 -0.1595 -0.2121  0.1370
 6846TIP3    H142029   3.335   4.622  11.970  1.5895  0.2348  1.6733
 6846TIP3    H242030   3.395   4.524  12.068 -1.5235 -2.1157  1.3838
 6847TIP3   OH242031   1.631   5.545   1.305 -0.1181  0.5872 -0.2929
 6847TIP3    H142032   1.676   5.524   1.387 -0.7036  0.6149  0.0409
 6847TIP3    H242033   1.543   5.569   1.332 -0.9569 -1.3782 -1.0726
 6848TIP3   OH242034   1.819   0.366   6.229  0.3490 -0.3344  0.6027
 6848TIP3    H142035   1.913   0.354   6.238  0.6038  2.0801  2.0812
 6848TIP3    H242036   1.792   0.412   6.309 -1.3257  2.6052 -1.4476
 6849TIP3   OH242037   1.380   6.277  11.336 -0.4567  0.3191  0.0599
 6849TIP3    H142038   1.456   6.228  11.305 -0.9668  0.3239 -1.2746
 6849TIP3    H242039   1.415   6.333  11.406  0.0122 -2.3855  2.1603
 6850TIP3   OH242040   4.275   0.326   4.712  0.2962 -0.7068  0.1104
 6850TIP3    H142041   4.296   0.390   4.644  1.7848 -0.8250  0.4154
 6850TIP3    H242042   4.185   0.299   4.693  0.0619  0.5773 -0.7329
 6851TIP3   OH242043   2.948   6.647   0.645  0.2205  0.1718 -0.6776
 6851TIP3    H142044   2.898   6.586   0.591  1.2935 -1.4465  0.0796
 6851TIP3    H242045   3.033   6.653   0.602  1.3257 -1.6667  1.0835
 6852TIP3   OH242046   4.955   6.599  12.658 -0.6420 -0.0012  0.2884
 6852TIP3    H142047   4.935   6.509  12.630 -1.0304 -0.1486  1.0145
 6852TIP3    H242048   4.878   6.625  12.709  0.4400 -0.0871  2.0334
 6853TIP3   OH242049   0.048   0.512  15.125 -0.5184 -0.0253 -0.4616
 6853TIP3    H142050  -0.024   0.533  15.185 -0.7140  0.2451 -0.7853
 6853TIP3    H242051   0.127   0.537  15.171 -0.5739 -1.0710  0.2288
 6854TIP3   OH242052   1.210   5.552   4.206 -0.2439 -0.3654  0.3501
 6854TIP3    H142053   1.182   5.512   4.124  0.1543 -1.4028  0.6994
 6854TIP3    H242054   1.223   5.644   4.185  1.9849 -0.9701 -1.3370
 6855TIP3   OH242055   5.703   5.319  17.068 -0.1099 -0.7497 -0.1953
 6855TIP3    H142056   5.781   5.282  17.027  0.3396  0.6740 -0.7235
 6855TIP3    H242057   5.652   5.353  16.994  0.1525  0.8212  0.3100
 6856TIP3   OH242058   2.384   1.940  16.083 -0.1994 -0.7795  0.0558
 6856TIP3    H142059   2.325   1.982  16.145  0.3956  0.2213 -0.0240
 6856TIP3    H242060   2.364   1.982  15.999  0.8852 -0.1350  0.1043
 6857TIP3   OH242061   6.066   2.326   2.219  0.2400 -0.6612  0.0433
 6857TIP3    H142062   5.995   2.294   2.275 -1.0737 -2.6187 -2.5050
 6857TIP3    H242063   6.073   2.260   2.150  2.3419  1.1784 -1.6430
 6858TIP3   OH242064   3.641   4.227   1.027 -0.1940 -0.2971  0.5189
 6858TIP3    H142065   3.580   4.173   1.076  1.0840 -1.4651  0.8856
 6858TIP3    H242066   3.656   4.303   1.083 -0.6588 -0.4146  0.8049
 6859TIP3   OH242067   2.345   4.303  14.260  0.0951  0.0267 -0.0066
 6859TIP3    H142068   2.434   4.337  14.268  0.3911 -0.2458 -1.7792
 6859TIP3    H242069   2.341   4.268  14.171 -2.4389  1.8734 -0.7112
 6860TIP3   OH242070   4.642   6.773  12.364 -0.3875  0.1710  0.0465
 6860TIP3    H142071   4.722   6.819  12.391 -0.5607  1.6555 -1.8427
 6860TIP3    H242072   4.571   6.830  12.391 -0.6105  1.0330 -2.2273
 6861TIP3   OH242073   3.325   4.810  11.933  0.4184 -0.0938  0.0065
 6861TIP3    H142074   3.253   4.863  11.899 -0.9876 -0.3381  2.4215
 6861TIP3    H242075   3.364   4.864  12.002  1.4570 -0.6751 -0.1094
 6862TIP3   OH242076   3.885   6.659   6.877  0.6781  0.1719  0.0392
 6862TIP3    H142077   3.901   6.723   6.808 -0.2297 -0.1824 -0.5216
 6862TIP3    H242078   3.795   6.629   6.861 -0.0422  1.0205  2.1313
 6863TIP3   OH242079   1.888   5.689   5.718  0.3986  0.4370  0.0811
 6863TIP3    H142080   1.913   5.654   5.632 -0.9166 -0.5995  0.0769
 6863TIP3    H242081   1.942   5.639   5.780 -0.1448 -0.3296 -0.0412
 6864TIP3   OH242082   3.719   4.597   0.690  0.4099  0.5839  0.0741
 6864TIP3    H142083   3.771   4.586   0.610  0.8346  0.1428  0.3970
 6864TIP3    H242084   3.721   4.510   0.730 -1.2496  0.3535 -0.2987
 6865TIP3   OH242085   4.044   4.896  10.706  0.1305 -0.0548 -0.5029
 6865TIP3    H142086   3.957   4.871  10.735 -0.1915  2.3869  1.0039
 6865TIP3    H242087   4.095   4.815  10.706 -1.1962 -0.9914  2.2479
 6866TIP3   OH242088   3.831   6.050  14.570 -0.5444  0.0511  0.9545
 6866TIP3    H142089   3.787   6.013  14.647 -3.7083 -1.2113 -1.2707
 6866TIP3    H242090   3.789   6.135  14.557  0.9909  0.9116  1.3596
 6867TIP3   OH242091   6.178   0.094  13.818  0.7539 -0.2685  0.1678
 6867TIP3    H142092   6.082   0.088  13.825  0.8929 -1.2996  1.4001
 6867TIP3    H242093   6.192   0.170  13.761 -0.8103 -0.7911 -0.9961
 6868TIP3   OH242094   2.337   3.139   3.778  0.5376  0.3853  0.6612
 6868TIP3    H142095   2.322   3.095   3.862  0.2423  2.3250  1.7084
 6868TIP3    H242096   2.259   3.119   3.726  0.7082 -0.8127  0.8468
 6869TIP3   OH242097   5.160   4.595   3.571 -0.3786 -0.1668  0.2869
 6869TIP3    H142098   5.186   4.685   3.591 -1.8975  0.4153 -0.2117
 6869TIP3    H242099   5.242   4.551   3.548  0.2243  1.4561 -0.8528
 6870TIP3   OH242100   1.357   4.916   1.276  0.0485  0.4249  0.4258
 6870TIP3    H142101   1.395   5.001   1.300 -0.0871  0.6273 -0.0740
 6870TIP3    H242102   1.265   4.934   1.261  0.2928  0.4933 -1.1470
 6871TIP3   OH242103   2.314   5.524   3.406  0.1507  0.0566 -0.0469
 6871TIP3    H142104   2.226   5.540   3.371 -0.5447  1.3417  2.0524
 6871TIP3    H242105   2.302   5.450   3.466  0.5699  0.0030 -0.0306
 6872TIP3   OH242106   5.641   3.241   1.025 -0.0501  0.1903  0.0112
 6872TIP3    H142107   5.678   3.183   1.092 -1.1806 -0.4958  0.0656
 6872TIP3    H242108   5.691   3.220   0.946  0.8731  0.5606  0.4829
 6873TIP3   OH242109   0.809   5.105  14.238 -0.5361  0.2282 -0.2556
 6873TIP3    H142110   0.879   5.169  14.230 -0.3497  0.1705  0.8178
 6873TIP3    H242111   0.843   5.038  14.297 -2.2910  1.3975  2.2941
 6874TIP3   OH242112   6.533   3.856  11.559 -0.1021 -0.6540  0.0142
 6874TIP3    H142113   6.591   3.931  11.559  0.4451 -0.9667 -2.9512
 6874TIP3    H242114   6.568   3.798  11.627  1.4047  0.3458  0.1271
 6875TIP3   OH242115   4.277   0.866  12.798 -0.1566  0.0358  0.6664
 6875TIP3    H142116   4.367   0.894  12.779 -1.1967  2.9726 -0.5181
 6875TIP3    H242117   4.255   0.805  12.728  1.1183 -1.3368  1.4110
 6876TIP3   OH242118   5.174   2.740  14.232  0.2298 -0.1288 -0.8310
 6876TIP3    H142119   5.142   2.812  14.176  1.1589  0.4952 -0.5882
 6876TIP3    H242120   5.206   2.674  14.170  0.3106  0.1179 -1.0563
 6877TIP3   OH242121   0.467   0.327   2.812 -0.3243 -0.1667 -0.5500
 6877TIP3    H142122   0.559   0.306   2.801 -0.1052  0.6135 -0.2338
 6877TIP3    H242123   0.449   0.306   2.904  0.0605  1.5689 -0.0416
 6878TIP3   OH242124   3.614   5.335  12.718  0.5576  0.0409 -0.6463
 6878TIP3    H142125   3.678   5.286  12.769 -0.4196  0.3418  0.9460
 6878TIP3    H242126   3.531   5.289  12.733  0.5729 -1.3128 -3.9613
 6879TIP3   OH242127   1.457   0.419   1.406 -0.3122  0.0369 -0.5508
 6879TIP3    H142128   1.446   0.324   1.408  1.6619 -0.2576 -1.6521
 6879TIP3    H242129   1.491   0.442   1.492  3.3452 -0.9186 -1.5923
 6880TIP3   OH242130   0.761   2.386   6.032  0.5889  0.1746 -0.9956
 6880TIP3    H142131   0.815   2.464   6.042 -1.6447  1.6700  0.2565
 6880TIP3    H242132   0.807   2.318   6.081  1.9060  1.0404 -0.9851
 6881TIP3   OH242133   0.556   0.771   3.335  0.6887  0.4727  0.0184
 6881TIP3    H142134   0.542   0.851   3.284  0.9731  0.6418  0.2029
 6881TIP3    H242135   0.515   0.789   3.420 -1.0351 -0.3319 -0.6043
 6882TIP3   OH242136   0.014   5.862  16.138 -0.1686  0.4679 -0.1016
 6882TIP3    H142137  -0.024   5.825  16.058 -0.2277  0.3682 -0.0268
 6882TIP3    H242138   0.107   5.838  16.133 -0.0588  0.9462 -0.4148
 6883TIP3   OH242139   0.890   1.297  10.455 -0.1325 -0.2054 -0.4157
 6883TIP3    H142140   0.849   1.382  10.469 -1.1078 -0.6968 -0.2115
 6883TIP3    H242141   0.982   1.311  10.475 -0.7240  0.1338  2.6005
 6884TIP3   OH242142   0.470   2.520  16.506  0.2973 -0.1216  0.0568
 6884TIP3    H142143   0.555   2.548  16.539  0.5402  0.1330 -0.7770
 6884TIP3    H242144   0.428   2.479  16.582  1.8322 -1.8176  0.0507
 6885TIP3   OH242145   1.805   5.869   3.323  0.2848 -0.4862  0.4822
 6885TIP3    H142146   1.739   5.812   3.362  1.1417 -2.0954 -0.3677
 6885TIP3    H242147   1.816   5.837   3.234  0.7861  1.0299 -0.0339
 6886TIP3   OH242148   2.782   5.909   1.769 -0.0598  0.0485 -0.2657
 6886TIP3    H142149   2.743   5.822   1.773  0.4649 -0.1532  0.7219
 6886TIP3    H242150   2.870   5.895   1.734  0.4964 -0.0055  1.0964
 6887TIP3   OH242151   5.205   0.196   3.148  0.3746  0.0008  0.3703
 6887TIP3    H142152   5.230   0.184   3.056 -0.2791 -0.1811  0.2110
 6887TIP3    H242153   5.264   0.264   3.180  1.4311 -0.7756  0.1532
 6888TIP3   OH242154   5.711   3.231  12.291  0.3353  0.0557 -0.1981
 6888TIP3    H142155   5.786   3.187  12.251 -1.0680 -1.1075 -1.6984
 6888TIP3    H242156   5.639   3.218  12.229 -1.0815  1.2899  1.0867
 6889TIP3   OH242157   4.401   0.982   3.986  0.3963  0.4645  0.3254
 6889TIP3    H142158   4.484   0.934   3.993  0.4191  0.7275  2.3600
 6889TIP3    H242159   4.379   1.004   4.076 -1.5188  1.0608 -0.2569
 6890TIP3   OH242160   0.539   5.667  16.668  0.1394 -0.4314 -0.2456
 6890TIP3    H142161   0.566   5.578  16.690 -0.4097 -0.5109  0.1226
 6890TIP3    H242162   0.617   5.720  16.684 -0.8645  0.0438  5.0732
 6891TIP3   OH242163   0.494   4.093  12.499 -0.1414  0.4028  0.5863
 6891TIP3    H142164   0.498   3.997  12.497  0.5696  0.2765  3.5063
 6891TIP3    H242165   0.585   4.120  12.514 -0.3196  1.5456 -0.2974
 6892TIP3   OH242166   6.216   5.787  16.307 -0.3040  0.1578  0.7240
 6892TIP3    H142167   6.279   5.840  16.258  1.4207 -0.4777  2.1618
 6892TIP3    H242168   6.228   5.698  16.275 -2.3050  0.3398 -0.7688
 6893TIP3   OH242169   5.083   5.149  10.583 -0.6079  0.0107  0.3559
 6893TIP3    H142170   5.038   5.091  10.521  1.6261  1.3747 -2.7770
 6893TIP3    H242171   5.082   5.100  10.665 -0.4896 -3.6907 -1.6146
 6894TIP3   OH242172   3.650   0.975  15.544 -0.2807  0.7672 -0.1647
 6894TIP3    H142173   3.705   0.939  15.614 -1.6251 -0.6609  0.2136
 6894TIP3    H242174   3.664   0.917  15.470 -1.6485  0.0695  0.1017
 6895TIP3   OH242175   5.237   3.282  14.290 -0.4255 -0.1547  0.1309
 6895TIP3    H142176   5.178   3.357  14.292 -1.9653 -1.3160  0.6104
 6895TIP3    H242177   5.303   3.305  14.225 -1.9060  0.8541 -1.0984
 6896TIP3   OH242178   2.028   1.710   2.197  0.7218 -0.3951  0.0056
 6896TIP3    H142179   2.090   1.642   2.170 -1.1544 -2.0073 -0.5026
 6896TIP3    H242180   1.941   1.670   2.185 -0.4379  1.6518  0.9303
 6897TIP3   OH242181   0.418   5.494  12.647  0.3478 -0.2453  0.2606
 6897TIP3    H142182   0.484   5.494  12.716  1.8426  1.3926 -1.0418
 6897TIP3    H242183   0.465   5.460  12.570  0.2864  2.4444 -1.1093
 6898TIP3   OH242184   4.700   3.061   3.717 -0.0608  0.6752 -0.0516
 6898TIP3    H142185   4.791   3.041   3.738  0.5914  2.8036 -0.5099
 6898TIP3    H242186   4.693   3.044   3.623 -0.4007 -0.2972  0.1405
 6899TIP3   OH242187   1.620   1.321  11.529 -0.2115 -0.1382  0.7621
 6899TIP3    H142188   1.563   1.259  11.575 -0.7651 -0.0544  0.2192
 6899TIP3    H242189   1.561   1.391  11.501  0.4011  0.6236  1.3380
 6900TIP3   OH242190   1.719   3.531   0.830  0.2453 -0.1030  0.4442
 6900TIP3    H142191   1.633   3.568   0.809  1.0877  0.9233 -1.3693
 6900TIP3    H242192   1.766   3.602   0.873 -0.0398 -0.9242  2.2205
 6901TIP3   OH242193   5.425   5.758   4.376  0.2730  0.3731  0.3987
 6901TIP3    H142194   5.515   5.787   4.387  0.0128  1.0768  0.7082
 6901TIP3    H242195   5.393   5.806   4.300  0.7846 -1.4198 -1.0201
 6902TIP3   OH242196   3.021   0.198  16.278 -0.2743 -0.0840  0.1546
 6902TIP3    H142197   3.084   0.188  16.350  2.0752  0.0517 -1.7871
 6902TIP3    H242198   2.997   0.290  16.280  1.1974  0.3375 -0.3047
 6903TIP3   OH242199   1.671   3.491  13.414  0.0819 -0.9760 -0.2347
 6903TIP3    H142200   1.723   3.488  13.333  0.6005  0.8202 -0.0053
 6903TIP3    H242201   1.582   3.507  13.384  0.2184 -0.6528 -0.4809
 6904TIP3   OH242202   1.096   1.941  15.761  0.4805 -0.0300  0.4234
 6904TIP3    H142203   1.086   1.983  15.847 -0.4745  0.9689 -0.1484
 6904TIP3    H242204   1.185   1.966  15.733 -0.1897  2.0200 -0.0689
 6905TIP3   OH242205   3.803   0.868  14.638 -0.1087 -0.0186  0.5562
 6905TIP3    H142206   3.773   0.895  14.724  0.0405 -0.7813  0.8534
 6905TIP3    H242207   3.895   0.895  14.635 -0.2665  0.5178  0.4118
 6906TIP3   OH242208   1.238   1.735   0.920 -0.9448  0.1681  0.1100
 6906TIP3    H142209   1.214   1.776   0.837 -2.2259 -0.0734  0.3364
 6906TIP3    H242210   1.154   1.709   0.959 -0.3449 -0.0493  1.3105
 6907TIP3   OH242211   2.645   6.784  11.090  0.2150  0.3824  0.2294
 6907TIP3    H142212   2.616   6.703  11.132 -1.0443  1.4142  1.4405
 6907TIP3    H242213   2.736   6.766  11.064 -0.3690 -1.7861 -0.6019
 6908TIP3   OH242214   5.624   5.882  15.935 -0.4907 -0.3461  0.0436
 6908TIP3    H142215   5.709   5.882  15.890 -1.1157  0.3798 -1.1785
 6908TIP3    H242216   5.559   5.880  15.865 -1.5000 -0.7062  0.9565
 6909TIP3   OH242217   5.330   4.732  17.034  0.1795 -0.1629 -0.3672
 6909TIP3    H142218   5.374   4.814  17.054 -1.2916  0.7491 -0.6897
 6909TIP3    H242219   5.331   4.683  17.116  0.0514  0.6800  0.1463
 6910TIP3   OH242220   5.230   0.645  13.836  0.2629  0.8607  0.2754
 6910TIP3    H142221   5.292   0.597  13.782 -0.2856  1.9234 -1.3513
 6910TIP3    H242222   5.210   0.724  13.786 -2.7501  0.3572  0.4882
 6911TIP3   OH242223   5.080   0.819  13.014  0.1892  0.6860  0.2427
 6911TIP3    H142224   5.043   0.730  13.013  1.6224  0.0640  0.2753
 6911TIP3    H242225   5.008   0.874  13.047 -1.2692 -0.1840 -1.3192
 6912TIP3   OH242226   0.159   4.045  15.256  0.6439  1.1695  0.3886
 6912TIP3    H142227   0.101   4.091  15.195 -0.1280  2.1786  1.8210
 6912TIP3    H242228   0.183   3.965  15.210 -0.3616  1.6248 -1.0106
 6913TIP3   OH242229   5.919   1.966   5.958  0.3072 -0.3521  0.4364
 6913TIP3    H142230   5.940   1.903   6.027 -0.2114 -3.5553 -2.0393
 6913TIP3    H242231   5.824   1.975   5.962  0.0931 -1.7611 -0.7071
 6914TIP3   OH242232   4.248   0.284  13.965 -0.3311 -0.7073 -0.0959
 6914TIP3    H142233   4.283   0.297  14.053 -1.9476 -0.7779  0.5950
 6914TIP3    H242234   4.268   0.365  13.918  0.7886 -0.7775  0.2247
 6915TIP3   OH242235   1.390   1.532  11.731 -0.4775  0.3873 -0.3512
 6915TIP3    H142236   1.346   1.455  11.696 -1.3143  1.1385 -0.9983
 6915TIP3    H242237   1.429   1.502  11.813  0.9217 -1.2299 -1.5255
 6916TIP3   OH242238   3.901   2.449  15.683 -0.0843  0.5584 -0.3289
 6916TIP3    H142239   3.866   2.410  15.603 -1.8057 -0.7687  0.9659
 6916TIP3    H242240   3.832   2.509  15.712 -0.6353 -0.8125  1.3859
 6917TIP3   OH242241   1.968   0.950   1.380  0.2055  0.1951 -0.5158
 6917TIP3    H142242   1.997   1.008   1.309  0.5254 -0.5369 -0.9976
 6917TIP3    H242243   1.942   0.870   1.335  0.1775 -0.1906  0.1849
 6918TIP3   OH242244   3.787   6.671  16.521 -0.0286 -0.0223  0.4067
 6918TIP3    H142245   3.712   6.727  16.502  0.7658  1.8916  2.4504
 6918TIP3    H242246   3.764   6.586  16.483 -2.3067  1.0311 -0.7830
 6919TIP3   OH242247   6.216   6.687  13.653  0.1366 -0.0319  0.4910
 6919TIP3    H142248   6.211   6.751  13.724  2.3122  0.2842  0.4185
 6919TIP3    H242249   6.201   6.738  13.574  1.1354  0.2770  0.4893
 6920TIP3   OH242250   5.223   5.363  15.487 -0.5631  0.2056 -0.4124
 6920TIP3    H142251   5.134   5.383  15.514 -0.6477  0.1203 -0.6282
 6920TIP3    H242252   5.228   5.393  15.396 -0.5585 -0.3376 -0.5958
 6921TIP3   OH242253   4.608   1.429  12.915  0.5337  0.4979 -0.2132
 6921TIP3    H142254   4.558   1.364  12.965 -1.3756  0.8349 -1.5905
 6921TIP3    H242255   4.544   1.495  12.890  1.8686  1.4512 -1.2786
 6922TIP3   OH242256   0.046   0.285   0.775  0.0672 -0.4904 -0.4455
 6922TIP3    H142257   0.130   0.239   0.769  0.8018  0.8052 -0.6364
 6922TIP3    H242258   0.042   0.337   0.695  0.1846  1.2010  0.5928
 6923TIP3   OH242259   1.301   3.253   3.939  0.1258  0.4065  0.1464
 6923TIP3    H142260   1.388   3.269   3.975  0.2972 -0.2251  0.0312
 6923TIP3    H242261   1.312   3.175   3.884 -0.3105  0.8574 -0.6023
 6924TIP3   OH242262   0.193   2.779   0.035  0.0378  0.0431 -0.1843
 6924TIP3    H142263   0.222   2.696   0.073  0.2032 -0.0068 -0.4177
 6924TIP3    H242264   0.163   2.831   0.110 -2.1190 -1.0293 -0.2517
 6925TIP3   OH242265   0.287   0.567   2.036  0.0930 -0.7513  0.6959
 6925TIP3    H142266   0.250   0.549   1.950 -1.4228  1.0980  0.8866
 6925TIP3    H242267   0.217   0.547   2.097 -0.7140  2.5701  1.0838
 6926TIP3   OH242268   4.787   3.675   1.690  0.1332 -0.2400 -0.1667
 6926TIP3    H142269   4.764   3.628   1.769  1.0105  0.3486  0.4583
 6926TIP3    H242270   4.866   3.631   1.657 -1.1302 -1.5119 -1.6416
 6927TIP3   OH242271   0.852   2.914   2.811  0.5929 -0.1127  0.4083
 6927TIP3    H142272   0.843   2.927   2.717 -0.5177 -0.9171  0.3768
 6927TIP3    H242273   0.836   3.000   2.849  1.6305  0.3397 -0.1591
 6928TIP3   OH242274   4.745   4.487   2.268  0.8667 -0.2976  0.0113
 6928TIP3    H142275   4.766   4.457   2.180  2.4059  0.0345  0.2371
 6928TIP3    H242276   4.705   4.573   2.255  1.5065 -0.0475 -0.3525
 6929TIP3   OH242277   3.633   0.556  13.340 -0.3679  0.1359  0.6601
 6929TIP3    H142278   3.567   0.495  13.373  0.4490 -1.5739 -0.6922
 6929TIP3    H242279   3.628   0.548  13.245 -0.1261  2.0983  0.4528
 6930TIP3   OH242280   2.944   4.076  10.809  0.4796  0.0424  0.4564
 6930TIP3    H142281   2.990   4.085  10.726  0.5017  0.7352  0.5364
 6930TIP3    H242282   2.889   3.999  10.798 -1.1668  1.3661 -0.9960
 6931TIP3   OH242283   6.579   2.773   6.216 -0.1601 -0.3143 -0.1806
 6931TIP3    H142284   6.653   2.834   6.222 -0.3561 -0.2076  1.4124
 6931TIP3    H242285   6.506   2.820   6.256 -1.4820  0.0840 -2.8636
 6932TIP3   OH242286   6.128   6.203   0.699 -0.1964  0.4601  0.1510
 6932TIP3    H142287   6.147   6.206   0.792 -1.6792  1.1794  0.4565
 6932TIP3    H242288   6.057   6.266   0.686  1.1853  1.7469 -1.7867
 6933TIP3   OH242289   2.614   0.051   1.768  0.1278 -0.0851 -0.3800
 6933TIP3    H142290   2.536   0.094   1.804  0.7392  1.6511 -1.0053
 6933TIP3    H242291   2.594   0.040   1.675  0.0408 -1.0558 -0.2537
 6934TIP3   OH242292   1.048   6.741   2.672 -0.0439  0.1665 -0.1784
 6934TIP3    H142293   1.042   6.759   2.578  2.7118 -1.5982 -0.8229
 6934TIP3    H242294   1.061   6.827   2.712 -1.8387  1.0018 -1.2951
 6935TIP3   OH242295   1.337   0.082  13.437 -0.4552 -0.1782  0.1069
 6935TIP3    H142296   1.319   0.174  13.419 -0.5433  0.0533  1.2907
 6935TIP3    H242297   1.305   0.068  13.526 -2.3749 -1.8991 -0.7805
 6936TIP3   OH242298   5.143   3.659  14.292 -0.1450 -0.0448 -0.5313
 6936TIP3    H142299   5.159   3.707  14.211  0.6710 -0.5463 -0.6811
 6936TIP3    H242300   5.061   3.613  14.278 -0.0168 -0.1108 -1.0669
 6937TIP3   OH242301   2.191   2.517  10.956  0.8901  0.1404 -0.1864
 6937TIP3    H142302   2.157   2.543  11.041 -3.2831  0.1803 -1.6020
 6937TIP3    H242303   2.191   2.598  10.905 -1.5904 -0.5513 -1.4978
 6938TIP3   OH242304   0.559   3.603  13.113 -0.1149  0.1361  0.0849
 6938TIP3    H142305   0.534   3.516  13.082 -0.9530  0.3997 -0.0016
 6938TIP3    H242306   0.493   3.661  13.076  0.0434  0.7197  0.6992
 6939TIP3   OH242307   1.481   4.736   5.826 -0.0363 -0.4156 -0.3112
 6939TIP3    H142308   1.431   4.768   5.751 -0.4789 -1.6064 -0.5459
 6939TIP3    H242309   1.417   4.728   5.897  0.1276 -0.5071 -0.1704
 6940TIP3   OH242310   2.218   3.342   3.406  0.3015  0.0474  0.4953
 6940TIP3    H142311   2.237   3.427   3.444  2.9246 -0.8506  1.4062
 6940TIP3    H242312   2.285   3.329   3.339 -0.8991 -0.7397 -0.6124
 6941TIP3   OH242313   1.293   6.639   6.211  0.3214 -0.1876 -0.7938
 6941TIP3    H142314   1.251   6.568   6.162 -1.0575 -0.0636  0.1610
 6941TIP3    H242315   1.236   6.653   6.287  2.0387  0.0774  0.5034
 6942TIP3   OH242316   6.390   6.357   6.219  0.0150  0.0162 -0.0332
 6942TIP3    H142317   6.387   6.447   6.186 -3.8292  0.5266  1.2888
 6942TIP3    H242318   6.450   6.360   6.293  0.1010  1.4320 -0.1459
 6943TIP3   OH242319   4.030   5.586   5.522 -0.1966  0.2048  0.3863
 6943TIP3    H142320   3.951   5.631   5.553 -0.0159  0.3017  0.7105
 6943TIP3    H242321   4.078   5.563   5.602  1.0183  1.7999  0.1723
 6944TIP3   OH242322   5.086   2.931   3.367 -0.1032  0.0854 -0.1309
 6944TIP3    H142323   5.061   2.997   3.431 -2.3046 -0.4293 -0.3822
 6944TIP3    H242324   5.092   2.850   3.418 -2.6431 -0.4820 -0.6060
 6945TIP3   OH242325   0.062   0.736  14.676  0.1708 -0.3201  0.0849
 6945TIP3    H142326   0.070   0.732  14.771  1.4536 -3.2287 -0.0352
 6945TIP3    H242327  -0.017   0.788  14.660  0.1994  0.6599  2.6851
 6946TIP3   OH242328   1.996   6.293  11.771  0.1083 -0.1218  0.2538
 6946TIP3    H142329   2.040   6.209  11.775  0.0844 -0.1164  0.7460
 6946TIP3    H242330   1.939   6.294  11.848 -0.6611 -0.0808 -0.2997
 6947TIP3   OH242331   1.917   2.826   2.855  0.2994 -1.0054 -0.1106
 6947TIP3    H142332   1.969   2.904   2.877  0.3159 -0.4642 -1.8991
 6947TIP3    H242333   1.948   2.758   2.915  2.1317 -0.3359 -0.2598
 6948TIP3   OH242334   2.277   0.001  13.451  0.2359  0.3014 -0.4141
 6948TIP3    H142335   2.365  -0.036  13.444 -0.3551 -1.0128 -1.3929
 6948TIP3    H242336   2.289   0.082  13.500  1.9108 -0.1145 -0.0598
 6949TIP3   OH242337   0.856   2.961   4.408  0.6165  0.4361 -0.1257
 6949TIP3    H142338   0.951   2.974   4.412  0.7217 -0.1684 -0.6208
 6949TIP3    H242339   0.839   2.889   4.468  0.7618 -0.9553 -1.6992
 6950TIP3   OH242340   3.879   1.006   3.330  0.2066 -0.3586 -0.9612
 6950TIP3    H142341   3.801   0.980   3.379  0.4849 -1.1501 -0.9333
 6950TIP3    H242342   3.899   1.094   3.364 -2.1822  1.0410 -2.8138
 6951TIP3   OH242343   1.742   1.853   1.936 -0.2848 -0.9650  0.1132
 6951TIP3    H142344   1.801   1.884   2.006  0.3874 -0.8399 -0.4968
 6951TIP3    H242345   1.801   1.827   1.865 -1.0126  1.1585 -1.3516
 6952TIP3   OH242346   2.622   4.985   4.394 -0.0810 -0.1771 -0.5619
 6952TIP3    H142347   2.593   5.069   4.428  2.5304 -0.0176  1.6050
 6952TIP3    H242348   2.569   4.920   4.441 -0.4197  0.1938 -0.4297
 6953TIP3   OH242349   0.476   0.663   3.067 -0.0617 -0.1570 -0.1026
 6953TIP3    H142350   0.491   0.703   3.152  0.7463 -1.7915  0.5687
 6953TIP3    H242351   0.562   0.660   3.026 -0.1380 -0.9911 -0.2211
 6954TIP3   OH242352   3.943   6.431   0.098  0.5804 -0.4041 -0.0071
 6954TIP3    H142353   3.965   6.468   0.012  0.0122  1.4914  0.6217
 6954TIP3    H242354   3.900   6.348   0.077  1.5241 -0.5613 -1.4964
 6955TIP3   OH242355   5.228   1.470  16.767 -0.3649  0.5191 -0.0924
 6955TIP3    H142356   5.134   1.451  16.766 -0.5712  1.3466 -2.6978
 6955TIP3    H242357   5.268   1.393  16.726  0.2935 -0.3288  1.9801
 6956TIP3   OH242358   3.600   0.002  15.330 -1.2311 -0.3998 -0.1747
 6956TIP3    H142359   3.693   0.023  15.324 -0.2712 -3.9137  0.2392
 6956TIP3    H242360   3.578  -0.034  15.244 -2.9042  2.3326 -1.0243
 6957TIP3   OH242361   0.573   5.240  15.022  0.0533  0.0201 -0.1058
 6957TIP3    H142362   0.494   5.224  15.073 -0.2375  0.8606 -0.2868
 6957TIP3    H242363   0.585   5.334  15.024  0.2682  0.0369 -1.2394
 6958TIP3   OH242364   3.901   4.141   4.858 -0.5538 -0.1049  0.2797
 6958TIP3    H142365   3.922   4.141   4.765 -1.0420  0.7398  0.1511
 6958TIP3    H242366   3.986   4.135   4.902 -0.0432  2.1779 -0.2245
 6959TIP3   OH242367   6.665   1.864   4.642  0.0110 -0.3573  0.0403
 6959TIP3    H142368   6.611   1.943   4.641 -1.7340 -1.3226 -4.4194
 6959TIP3    H242369   6.755   1.896   4.654 -0.8939  1.9365  1.2990
 6960TIP3   OH242370   6.208   5.777   1.849  0.4834 -0.0145  0.0569
 6960TIP3    H142371   6.198   5.699   1.904  0.7166  0.1203  0.2981
 6960TIP3    H242372   6.119   5.801   1.824  0.4977 -1.2526 -1.2952
 6961TIP3   OH242373   3.342   1.488  16.617  0.5989  1.0402 -0.6986
 6961TIP3    H142374   3.391   1.411  16.588 -1.2606 -0.0282 -1.2079
 6961TIP3    H242375   3.299   1.521  16.537 -2.2061 -0.1473  0.1772
 6962TIP3   OH242376   0.547   3.262  12.458 -0.0218 -0.1785 -0.1351
 6962TIP3    H142377   0.549   3.169  12.435 -0.8723 -0.3556  0.4619
 6962TIP3    H242378   0.639   3.289  12.459  0.1306 -0.4051 -2.6628
 6963TIP3   OH242379   5.610   2.762   0.200  0.0659  0.1143 -0.1079
 6963TIP3    H142380   5.624   2.838   0.257 -1.6814  0.2562  0.1788
 6963TIP3    H242381   5.608   2.799   0.111 -0.1986  0.3359 -0.0134
 6964TIP3   OH242382   4.385   4.067   4.173  0.0498 -0.1622  0.0271
 6964TIP3    H142383   4.358   4.067   4.081  0.5571  0.0239 -0.1251
 6964TIP3    H242384   4.427   4.152   4.186  2.5425 -1.2496 -0.3471
 6965TIP3   OH242385   3.662   5.666   4.675 -0.4910  0.2107  0.6631
 6965TIP3    H142386   3.752   5.699   4.672 -0.7961  1.1522  1.2240
 6965TIP3    H242387   3.666   5.592   4.736 -0.2043  0.6514  1.1939
 6966TIP3   OH242388   1.849   1.738  13.494 -0.4525 -0.1169  0.2710
 6966TIP3    H142389   1.872   1.702  13.580 -1.4690  0.2165  0.6969
 6966TIP3    H242390   1.923   1.715  13.438  0.5961  0.3696  1.4249
 6967TIP3   OH242391   3.708   6.454  14.190 -0.1457 -0.2919 -0.5539
 6967TIP3    H142392   3.714   6.521  14.122  0.3477 -0.1572 -0.3837
 6967TIP3    H242393   3.641   6.486  14.250 -0.1919 -0.1430 -0.6849
 6968TIP3   OH242394   1.637   5.442  12.991 -0.4481  0.2672  1.0915
 6968TIP3    H142395   1.658   5.467  13.081  1.8967  0.1682  0.6341
 6968TIP3    H242396   1.645   5.523  12.941  0.8233 -0.1244  0.6124
 6969TIP3   OH242397   4.703   1.980   1.247 -1.1376 -0.5358 -0.1530
 6969TIP3    H142398   4.767   1.913   1.271 -0.0930 -0.3909 -2.3319
 6969TIP3    H242399   4.627   1.961   1.303  0.1038 -1.8501  1.1875
 6970TIP3   OH242400   4.224   5.148   2.531  0.3696 -0.1410 -0.1126
 6970TIP3    H142401   4.313   5.160   2.498  0.9405  1.7119  1.8507
 6970TIP3    H242402   4.222   5.058   2.563  0.7425 -0.9684 -2.2365
 6971TIP3   OH242403   5.204   1.223  14.449  0.0005  0.6117 -0.5096
 6971TIP3    H142404   5.285   1.259  14.486  0.2844 -1.2630  0.8074
 6971TIP3    H242405   5.233   1.156  14.388 -0.4983 -1.1048  1.0489
 6972TIP3   OH242406   1.081   4.860   2.952  0.7002  0.2751 -0.2864
 6972TIP3    H142407   1.135   4.920   3.003  0.8333  1.1299 -1.3769
 6972TIP3    H242408   0.994   4.865   2.992  1.2835 -0.7844  1.2149
 6973TIP3   OH242409   1.621   3.593   0.243 -0.2867  0.0379  0.0675
 6973TIP3    H142410   1.527   3.574   0.250 -0.5960  1.5150  0.1238
 6973TIP3    H242411   1.636   3.667   0.302  1.1346 -0.8428  0.8716
 6974TIP3   OH242412   4.499   4.084  14.096 -0.2341  0.2935 -0.1939
 6974TIP3    H142413   4.476   4.000  14.056 -2.2175  0.8565 -0.3583
 6974TIP3    H242414   4.592   4.095  14.078 -0.2606 -1.1876 -1.4324
 6975TIP3   OH242415   1.124   6.059   2.517  0.4440  0.1928 -0.3696
 6975TIP3    H142416   1.069   6.046   2.439  0.8839  0.3524 -0.7045
 6975TIP3    H242417   1.096   6.143   2.553 -0.9429 -0.6396  0.6140
 6976TIP3   OH242418   3.456   4.376   2.827  0.6419 -0.1478  0.0523
 6976TIP3    H142419   3.486   4.285   2.830  1.1139  0.0006 -0.0961
 6976TIP3    H242420   3.477   4.411   2.914  0.4047 -0.1968  0.1300
 6977TIP3   OH242421   3.864   2.453  11.707  0.1908  0.1373 -0.3039
 6977TIP3    H142422   3.929   2.396  11.665  1.6744  1.2350  0.4132
 6977TIP3    H242423   3.835   2.403  11.784  3.1417  1.0720  1.6241
 6978TIP3   OH242424   2.549   0.021   6.783  0.0154  0.2099 -0.1660
 6978TIP3    H142425   2.612  -0.041   6.820 -0.9338 -0.8243 -0.2206
 6978TIP3    H242426   2.549   0.001   6.689  1.1145  1.6211 -0.4919
 6979TIP3   OH242427   4.801   3.473  16.112  0.1450 -0.1736 -0.2634
 6979TIP3    H142428   4.840   3.391  16.141 -1.3265 -0.4310  1.1430
 6979TIP3    H242429   4.818   3.535  16.183  0.1582  0.3891 -0.7467
 6980TIP3   OH242430   0.150   1.837   0.173 -0.1321  0.8543 -0.4297
 6980TIP3    H142431   0.065   1.879   0.178 -0.3718  0.5114 -1.4355
 6980TIP3    H242432   0.138   1.753   0.217  0.4154  1.8707  1.8194
 6981TIP3   OH242433   6.490   6.067  12.348  0.2164  0.1253  0.1540
 6981TIP3    H142434   6.480   6.161  12.363 -2.2027  0.0681 -0.5072
 6981TIP3    H242435   6.551   6.037  12.415  2.0621  2.3435 -0.4156
 6982TIP3   OH242436   3.910   5.140  14.135  0.6525  0.3349  0.4764
 6982TIP3    H142437   3.910   5.235  14.134  0.1323  0.3387  0.1271
 6982TIP3    H242438   3.832   5.116  14.186  1.1149  0.0922  1.0847
 6983TIP3   OH242439   5.496   0.163   5.628 -0.4415 -0.1867  0.3355
 6983TIP3    H142440   5.515   0.137   5.718  1.1699 -1.4239 -0.3133
 6983TIP3    H242441   5.578   0.197   5.594 -1.6200  2.5747  0.0113
 6984TIP3   OH242442   0.596   2.804  14.084  0.4952  0.1403 -0.1368
 6984TIP3    H142443   0.572   2.832  13.996  0.4871  1.2315  0.2058
 6984TIP3    H242444   0.561   2.871  14.141  2.8520  0.9116  0.5160
 6985TIP3   OH242445   3.430   5.282   1.741  0.8089  0.5395  0.3798
 6985TIP3    H142446   3.404   5.314   1.827  0.4882  0.9471  0.1367
 6985TIP3    H242447   3.505   5.338   1.717 -1.4546  3.1509 -1.2665
 6986TIP3   OH242448   3.171   3.398   4.703 -0.2716  0.5004 -0.4219
 6986TIP3    H142449   3.103   3.339   4.668  0.5777 -0.7039 -0.1047
 6986TIP3    H242450   3.189   3.459   4.631 -2.9756  2.0703  0.0842
 6987TIP3   OH242451   6.462   0.308   1.162  0.5853  0.7199 -0.0698
 6987TIP3    H142452   6.521   0.238   1.135 -1.0138 -0.6982 -0.0714
 6987TIP3    H242453   6.389   0.303   1.101 -0.4436  1.1425  1.0805
 6988TIP3   OH242454   1.324   4.520  11.540 -0.4492  0.0209 -0.0328
 6988TIP3    H142455   1.402   4.465  11.531  2.2171  2.8864  2.8769
 6988TIP3    H242456   1.281   4.489  11.620  1.2683  2.1005  1.8304
 6989TIP3   OH242457   6.432   6.523  10.507 -0.2170 -0.0725 -0.2639
 6989TIP3    H142458   6.439   6.541  10.413  0.8997  0.6563 -0.0643
 6989TIP3    H242459   6.439   6.609  10.548  0.1955 -0.4757  0.5298
 6990TIP3   OH242460   1.177   5.101  16.439 -0.0936  0.3940  0.1021
 6990TIP3    H142461   1.156   5.179  16.388  0.1192  0.4579  0.1114
 6990TIP3    H242462   1.147   5.120  16.527  0.5233  0.7181  0.2503
 6991TIP3   OH242463   5.922   5.387  12.114 -0.3359 -0.1314  0.0623
 6991TIP3    H142464   5.989   5.323  12.091 -0.5257 -1.4169  2.6600
 6991TIP3    H242465   5.970   5.461  12.152 -0.1143  1.4383 -2.9655
 6992TIP3   OH242466   0.493   6.298   1.286 -0.1879  0.6412 -0.1834
 6992TIP3    H142467   0.519   6.207   1.303 -0.5189  0.7648  1.0952
 6992TIP3    H242468   0.404   6.292   1.252  0.1366  0.4466 -1.0400
 6993TIP3   OH242469   0.633   3.681   0.209  0.2380 -0.3669  0.5318
 6993TIP3    H142470   0.716   3.646   0.238  0.9562  0.6789 -0.1766
 6993TIP3    H242471   0.570   3.610   0.223  1.0809 -0.8872  1.8236
 6994TIP3   OH242472   5.471   6.096   1.850 -0.2708  0.0214  0.6415
 6994TIP3    H142473   5.385   6.059   1.828 -0.1476 -0.6290  1.2322
 6994TIP3    H242474   5.474   6.094   1.945  0.7943 -0.8473  0.5969
 6995TIP3   OH242475   0.828   0.919  13.304 -0.2789  0.4831 -0.8001
 6995TIP3    H142476   0.765   0.848  13.310 -0.1945  0.3821 -1.1018
 6995TIP3    H242477   0.840   0.948  13.394  1.2921 -1.3013 -0.3521
 6996TIP3   OH242478   2.255   4.199   0.506 -0.4263  0.1069  0.2484
 6996TIP3    H142479   2.194   4.263   0.468 -0.5105  0.3179  0.7383
 6996TIP3    H242480   2.336   4.249   0.520 -0.5116  0.1204  0.6905
 6997TIP3   OH242481   1.334   0.829  14.064  0.5508  0.3883  0.3892
 6997TIP3    H142482   1.391   0.753  14.052  0.1035  0.1109 -0.0258
 6997TIP3    H242483   1.393   0.905  14.061  1.0870  0.0228  1.4846
 6998TIP3   OH242484   0.404   1.676  17.076 -0.1200 -0.0117  0.3635
 6998TIP3    H142485   0.443   1.709  16.996 -0.7869 -1.5635 -0.6401
 6998TIP3    H242486   0.476   1.676  17.139  0.7177  0.0804 -0.5699
 6999TIP3   OH242487   2.259   5.260   2.586  0.1447  0.5708  0.0072
 6999TIP3    H142488   2.194   5.191   2.573 -0.1013  0.4547  1.6994
 6999TIP3    H242489   2.341   5.222   2.553 -0.1501 -0.2280  0.1672
 7000TIP3   OH242490   3.302   1.120  16.068 -0.2041  0.0948  0.2091
 7000TIP3    H142491   3.217   1.076  16.058  0.4431 -1.1118 -0.1905
 7000TIP3    H242492   3.365   1.060  16.028  0.9662  0.5226  1.3223
 7001TIP3   OH242493   1.242   5.384   7.046 -0.0322 -0.4052 -0.1130
 7001TIP3    H142494   1.255   5.427   6.961  2.2220 -0.3025  0.2351
 7001TIP3    H242495   1.299   5.432   7.106 -0.0658 -1.7414  1.0244
 7002TIP3   OH242496   2.711   4.174  10.967 -0.2425  0.6081  0.2800
 7002TIP3    H142497   2.712   4.121  10.887 -1.3314  1.3202 -0.2343
 7002TIP3    H242498   2.783   4.140  11.019 -0.9489 -1.4536  0.0193
 7003TIP3   OH242499   4.024   4.904   5.389  0.0296  0.4060 -0.0038
 7003TIP3    H142500   4.085   4.831   5.395 -1.9585 -1.5163 -1.4196
 7003TIP3    H242501   3.958   4.886   5.456 -0.6476  0.7159 -0.5706
 7004TIP3   OH242502   1.455   1.406   6.268 -0.1446  0.1079 -0.6595
 7004TIP3    H142503   1.528   1.353   6.301  0.1942  0.3182 -1.0626
 7004TIP3    H242504   1.435   1.367   6.183  0.2429  0.7617 -1.0506
 7005TIP3   OH242505   2.335   0.962  15.285  0.2038  0.6608  0.2692
 7005TIP3    H142506   2.347   0.928  15.197  0.4798 -1.2065  0.9986
 7005TIP3    H242507   2.394   1.037  15.290 -0.6739  1.5265 -1.4827
 7006TIP3   OH242508   0.064   3.169   0.560 -0.2522 -0.1531 -0.1739
 7006TIP3    H142509   0.128   3.100   0.542  0.6218  0.6357 -0.1348
 7006TIP3    H242510  -0.009   3.150   0.501 -0.4167 -1.6196  0.4686
 7007TIP3   OH242511   0.955   1.620   1.317 -0.2988  0.0824  0.1121
 7007TIP3    H142512   0.916   1.684   1.377 -1.4741  1.6721 -2.1751
 7007TIP3    H242513   1.049   1.624   1.336 -0.4070  2.0456  0.5028
 7008TIP3   OH242514   0.274   6.598   1.998 -0.8160  0.2473 -0.0320
 7008TIP3    H142515   0.324   6.663   2.047  0.2403 -1.0934  0.7282
 7008TIP3    H242516   0.326   6.518   2.004 -2.2453 -0.7700 -0.6421
 7009TIP3   OH242517   2.126   4.770  12.322 -0.0660  0.0241  0.3693
 7009TIP3    H142518   2.197   4.717  12.286 -0.4886 -0.2668 -0.0491
 7009TIP3    H242519   2.049   4.743  12.273 -0.3472  0.8148  0.3617
 7010TIP3   OH242520   4.829   1.602   4.973  0.9320  0.0291 -0.0547
 7010TIP3    H142521   4.754   1.548   4.999  1.7659 -1.0167  0.2991
 7010TIP3    H242522   4.809   1.689   5.007  0.2023 -0.4013  0.6788
 7011TIP3   OH242523   0.351   1.294   5.047  0.2510  0.1467 -0.2536
 7011TIP3    H142524   0.374   1.253   5.131 -1.7735 -1.0931 -0.2325
 7011TIP3    H242525   0.271   1.343   5.066  0.6503  1.1754 -1.1261
 7012TIP3   OH242526   4.345   5.035  11.790  0.0906  0.0532  0.2280
 7012TIP3    H142527   4.260   5.049  11.832 -0.2775  0.1710 -0.5451
 7012TIP3    H242528   4.344   5.094  11.715 -0.4705 -2.2289 -1.6723
 7013TIP3   OH242529   1.390   2.512  16.416 -0.4782 -0.5421  0.2686
 7013TIP3    H142530   1.404   2.446  16.349 -2.3801 -0.9753  0.2457
 7013TIP3    H242531   1.296   2.530  16.413 -0.3309  0.6519  1.6794
 7014TIP3   OH242532   6.709   5.318  11.159  0.6103  0.3891  1.6504
 7014TIP3    H142533   6.621   5.355  11.166  0.8166  1.4542 -0.5684
 7014TIP3    H242534   6.762   5.388  11.123  1.9608 -0.8110  1.1914
 7015TIP3   OH242535   0.252   6.633   0.920  0.1203  0.0836 -0.0740
 7015TIP3    H142536   0.263   6.553   0.972  2.7066  1.4436  1.6889
 7015TIP3    H242537   0.171   6.672   0.953  0.0818 -0.6241  0.7165
 7016TIP3   OH242538   6.396   1.534   1.343 -0.1350  0.1265 -0.0905
 7016TIP3    H142539   6.431   1.545   1.255  0.7758 -0.9560  0.1076
 7016TIP3    H242540   6.345   1.613   1.359 -1.0442 -0.0357 -1.9079
 7017TIP3   OH242541   1.810   2.599   3.182  0.3372 -0.0423 -0.2539
 7017TIP3    H142542   1.800   2.625   3.274 -1.4443 -0.4915 -0.2989
 7017TIP3    H242543   1.865   2.521   3.185 -1.0916 -1.0554  0.6130
 7018TIP3   OH242544   4.117   3.781  11.815  0.2197  0.3097  0.0381
 7018TIP3    H142545   4.209   3.755  11.807 -0.1989 -1.1338 -0.3980
 7018TIP3    H242546   4.093   3.760  11.905 -0.1491 -0.9533 -0.3460
 7019TIP3   OH242547   6.518   6.420  14.040 -1.0042  0.2489 -0.2660
 7019TIP3    H142548   6.528   6.326  14.028 -1.6527  0.0633  0.5425
 7019TIP3    H242549   6.607   6.453  14.050 -0.6686 -0.0562 -2.0020
 7020TIP3   OH242550   0.108   0.188   1.825  0.1929 -0.0218  0.1062
 7020TIP3    H142551   0.024   0.219   1.858  0.2484 -1.0963  1.3294
 7020TIP3    H242552   0.122   0.238   1.744 -1.3254  0.5966  0.1955
 7021TIP3   OH242553   1.711   0.671   4.204 -0.5417 -0.1086  0.8710
 7021TIP3    H142554   1.766   0.642   4.277  3.0253 -0.2551 -1.6057
 7021TIP3    H242555   1.718   0.600   4.139 -1.4337  1.1151 -0.6323
 7022TIP3   OH242556   4.846   6.655  11.348  0.4845  0.1662  0.0241
 7022TIP3    H142557   4.934   6.688  11.364 -0.1756  1.8100  0.4906
 7022TIP3    H242558   4.828   6.596  11.422  1.7412 -1.4734 -0.9035
 7023TIP3   OH242559   5.405   5.407  13.329 -0.1810 -0.1192  0.2657
 7023TIP3    H142560   5.362   5.341  13.383 -2.0470  0.0657 -0.8991
 7023TIP3    H242561   5.402   5.369  13.240  1.6747  0.1242  0.0661
 7024TIP3   OH242562   6.812   5.254   4.001 -0.3896  0.0055 -0.1487
 7024TIP3    H142563   6.738   5.289   3.951  0.3431  1.5280 -0.2084
 7024TIP3    H242564   6.887   5.261   3.942 -0.3143 -2.5161 -0.4872
 7025TIP3   OH242565   1.098   3.203  12.300 -0.2291 -0.3722  0.3153
 7025TIP3    H142566   1.137   3.118  12.280  0.8457  0.0743  0.4587
 7025TIP3    H242567   1.108   3.254  12.220  2.3925  0.7899  1.2590
 7026TIP3   OH242568   2.039   6.520  13.226  0.0352  0.4261  0.4703
 7026TIP3    H142569   1.989   6.601  13.214  0.5139  0.8804  1.4059
 7026TIP3    H242570   1.973   6.454  13.245 -0.2543  0.9554  1.3864
 7027TIP3   OH242571   4.032   0.838  15.565 -0.5394 -0.1168 -0.2739
 7027TIP3    H142572   4.005   0.839  15.657  1.5412 -1.0821  0.4155
 7027TIP3    H242573   3.983   0.767  15.526  0.5733 -1.5397  0.8142
 7028TIP3   OH242574   6.542   5.647   6.061  0.1270 -0.5993 -0.6906
 7028TIP3    H142575   6.455   5.608   6.053  0.0462 -0.3655 -1.0074
 7028TIP3    H242576   6.556   5.657   6.155 -2.2927  3.9399 -0.5219
 7029TIP3   OH242577   4.072   6.117  14.435  0.5273  0.2045  0.4309
 7029TIP3    H142578   4.116   6.199  14.458  0.9010  0.0534  0.2723
 7029TIP3    H242579   3.996   6.113  14.493  0.1800  0.9455  0.0578
 7030TIP3   OH242580   5.639   1.907  13.006 -0.1064 -0.8907 -0.3228
 7030TIP3    H142581   5.655   1.813  13.005  2.9934 -0.4880  0.0520
 7030TIP3    H242582   5.592   1.923  13.087  0.2900 -2.0144  0.1467
 7031TIP3   OH242583   1.865   1.023   3.252  0.1860  0.3353  0.0859
 7031TIP3    H142584   1.814   0.962   3.305 -1.3401  2.0188  0.6623
 7031TIP3    H242585   1.956   1.011   3.282 -0.5544  0.9519  2.9074
 7032TIP3   OH242586   4.885   0.783   5.012  0.5843 -0.0812  0.3388
 7032TIP3    H142587   4.842   0.709   4.969  0.9693  0.4910 -1.0676
 7032TIP3    H242588   4.820   0.852   5.012  1.1080  0.4376 -0.8184
 7033TIP3   OH242589   5.308   2.510  12.537 -0.3874 -0.7891 -0.0707
 7033TIP3    H142590   5.347   2.562  12.607  0.4857  2.4215 -2.7333
 7033TIP3    H242591   5.380   2.456  12.504 -0.1685 -0.4744 -0.1085
 7034TIP3   OH242592   5.848   0.789   0.286 -0.2384 -0.1899 -0.1736
 7034TIP3    H142593   5.924   0.846   0.274 -0.4116  0.1579  0.3376
 7034TIP3    H242594   5.774   0.842   0.258 -0.4201 -0.1033  0.4673
 7035TIP3   OH242595   6.816   6.352   0.203 -0.0397  0.5331 -0.3218
 7035TIP3    H142596   6.867   6.331   0.125  0.9017  1.2209  0.0933
 7035TIP3    H242597   6.730   6.378   0.169  0.7654  2.1370 -1.2352
 7036TIP3   OH242598   3.686   5.247  16.394  0.6517 -0.4897 -0.1620
 7036TIP3    H142599   3.691   5.182  16.465 -0.8864  0.7354  1.1301
 7036TIP3    H242600   3.654   5.198  16.319  1.9147 -1.7318  0.0579
 7037TIP3   OH242601   3.938   6.600  14.005  0.1755  0.6672 -0.1150
 7037TIP3    H142602   3.953   6.651  14.084 -2.4147  0.2925  0.7220
 7037TIP3    H242603   3.856   6.635  13.970 -0.3029 -1.1705 -0.9659
 7038TIP3   OH242604   5.673   5.243  13.836 -0.1382 -0.3453 -0.5962
 7038TIP3    H142605   5.717   5.323  13.866 -0.7080 -0.3400  0.2663
 7038TIP3    H242606   5.595   5.274  13.791  0.3493 -0.3806 -1.4866
 7039TIP3   OH242607   2.968   0.336  11.023  1.1347  0.1312 -0.4212
 7039TIP3    H142608   2.913   0.266  10.989  3.1669 -1.1082 -1.3350
 7039TIP3    H242609   2.931   0.356  11.109 -0.5790 -0.7785 -0.9072
 7040TIP3   OH242610   0.096   4.283  13.522 -0.1173  0.0422  0.1115
 7040TIP3    H142611   0.097   4.210  13.460 -0.2710  0.6169 -0.5861
 7040TIP3    H242612   0.183   4.282  13.562  0.4415  0.4275 -1.0464
 7041TIP3   OH242613   6.803   1.885  15.724 -0.0189  0.0150 -0.2165
 7041TIP3    H142614   6.878   1.884  15.783  1.5821 -0.2601 -2.1345
 7041TIP3    H242615   6.824   1.955  15.661 -1.4637  0.0484 -0.6883
 7042TIP3   OH242616   4.252   3.661   3.040 -0.7456 -0.3538 -0.2308
 7042TIP3    H142617   4.194   3.725   2.998 -1.1261 -1.8635 -2.1431
 7042TIP3    H242618   4.228   3.664   3.132 -2.6405  0.3555 -0.6980
 7043TIP3   OH242619   3.898   2.325  12.321  0.6660 -0.7832 -0.3393
 7043TIP3    H142620   3.940   2.275  12.251 -1.5543  0.1727 -2.4862
 7043TIP3    H242621   3.816   2.279  12.338 -0.6270  1.0947 -1.1618
 7044TIP3   OH242622   1.717   3.387   1.794 -0.1804  1.0973  0.6339
 7044TIP3    H142623   1.783   3.447   1.831  0.0404 -0.1235  2.3144
 7044TIP3    H242624   1.666   3.358   1.870  0.1372 -1.3310  0.0010
 7045TIP3   OH242625   4.321   1.203  15.840  0.5208  0.6244  0.9029
 7045TIP3    H142626   4.327   1.113  15.808  0.5169  0.0094  2.5287
 7045TIP3    H242627   4.411   1.235  15.838  0.7036  0.1647  1.4181
 7046TIP3   OH242628   5.678   1.274   2.003 -0.3444 -0.1557 -0.1374
 7046TIP3    H142629   5.632   1.323   2.071 -0.6502 -0.4544 -0.1302
 7046TIP3    H242630   5.628   1.290   1.924  0.7479  1.2847 -0.5960
 7047TIP3   OH242631   4.648   1.558  11.698 -0.0847 -0.0006  0.2739
 7047TIP3    H142632   4.614   1.647  11.703 -1.2749 -0.4669  0.6480
 7047TIP3    H242633   4.589   1.513  11.637 -0.2090 -0.8443  1.0060
 7048TIP3   OH242634   0.221   1.372  16.409 -0.1768  0.3326  0.0916
 7048TIP3    H142635   0.243   1.289  16.365  0.0380 -0.5295  1.7606
 7048TIP3    H242636   0.141   1.353  16.458  0.9220  0.4995  2.0414
 7049TIP3   OH242637   3.587   5.041   5.558  0.4552  0.1436  0.2059
 7049TIP3    H142638   3.656   4.975   5.569  0.9895  1.0110  2.5531
 7049TIP3    H242639   3.627   5.109   5.503  0.2499 -0.9135 -1.3370
 7050TIP3   OH242640   1.861   5.887   3.869 -0.1188  0.9103 -0.2176
 7050TIP3    H142641   1.908   5.952   3.921  1.5922 -0.2720 -0.2145
 7050TIP3    H242642   1.845   5.815   3.930 -1.2964  0.9797 -0.4235
 7051TIP3   OH242643   4.635   4.012  16.589  0.3236  0.2862  0.6345
 7051TIP3    H142644   4.717   3.963  16.581  1.2591  1.8575  0.2553
 7051TIP3    H242645   4.619   4.017  16.683 -0.9946 -2.5833  0.6796
 7052TIP3   OH242646   1.064   2.326   5.853 -0.0324  0.5760 -0.0397
 7052TIP3    H142647   1.150   2.368   5.849  2.3317 -3.7542  0.2022
 7052TIP3    H242648   1.032   2.345   5.941  1.6784  0.5857  0.6156
 7053TIP3   OH242649   2.304   2.791   1.503  0.3055 -0.6602  0.4618
 7053TIP3    H142650   2.399   2.805   1.506  0.5111 -1.8518  0.1916
 7053TIP3    H242651   2.289   2.716   1.562 -0.5918  0.0621  1.1854
 7054TIP3   OH242652   4.321   1.782  11.389 -0.1828  0.5795  0.1843
 7054TIP3    H142653   4.387   1.740  11.443 -0.3834 -2.9110 -1.9595
 7054TIP3    H242654   4.252   1.807  11.450  1.3096  0.5458  1.9605
 7055TIP3   OH242655   2.690   5.692  14.254  0.0690 -0.5955 -0.3585
 7055TIP3    H142656   2.622   5.682  14.321 -0.3099  0.1079 -0.6246
 7055TIP3    H242657   2.752   5.622  14.272 -0.1912 -0.6085  0.5374
 7056TIP3   OH242658   2.012   0.206  16.240 -0.0011 -0.0264  0.1045
 7056TIP3    H142659   2.105   0.231  16.247  0.0186 -0.2079  0.4988
 7056TIP3    H242660   2.011   0.142  16.168  0.2415 -0.3263  0.3647
 7057TIP3   OH242661   1.645   1.357  17.026 -0.5879  0.5548 -0.7265
 7057TIP3    H142662   1.594   1.281  17.054 -0.3705  1.3792  2.2588
 7057TIP3    H242663   1.596   1.432  17.059  1.8328  1.4271  1.2067
 7058TIP3   OH242664   1.379   0.849   0.653 -0.8768 -0.1621  0.3310
 7058TIP3    H142665   1.442   0.915   0.680 -0.1260  0.7900 -3.1911
 7058TIP3    H242666   1.298   0.898   0.636 -2.1991 -1.1319  3.1583
 7059TIP3   OH242667   2.200   1.649  16.123 -0.4016 -0.5920  0.5090
 7059TIP3    H142668   2.258   1.717  16.158 -1.0412 -0.7604  1.9362
 7059TIP3    H242669   2.127   1.697  16.085  0.0859 -0.4236 -0.2366
 7060TIP3   OH242670   1.251   2.419   2.136  0.3360  0.1171  0.7525
 7060TIP3    H142671   1.213   2.415   2.224 -1.3668 -1.4383  0.0038
 7060TIP3    H242672   1.213   2.497   2.097  2.8455  2.1756  2.0468
 7061TIP3   OH242673   5.376   4.594  11.821  0.5133 -0.8925 -0.3995
 7061TIP3    H142674   5.366   4.689  11.833 -1.3490 -1.0182 -0.6119
 7061TIP3    H242675   5.426   4.565  11.897  0.2410  0.1385  0.1950
 7062TIP3   OH242676   3.462   5.788   1.917 -0.0855  0.3723  0.2398
 7062TIP3    H142677   3.420   5.869   1.889 -2.3684 -1.2899 -1.6312
 7062TIP3    H242678   3.471   5.797   2.012 -2.2585  1.9865  0.3746
 7063TIP3   OH242679   0.284   1.346  11.587  0.3585  0.5598 -0.3671
 7063TIP3    H142680   0.257   1.327  11.676  2.3544  1.0639  0.3941
 7063TIP3    H242681   0.310   1.262  11.550 -2.2864  0.0093 -1.2173
 7064TIP3   OH242682   2.548   5.989  14.709 -0.1193 -0.1408 -0.3404
 7064TIP3    H142683   2.587   5.929  14.773  1.0471  1.0613  0.1201
 7064TIP3    H242684   2.473   6.027  14.755 -0.6942 -1.0117 -0.5346
 7065TIP3   OH242685   3.286   2.864   2.384  0.5064  0.4492 -0.1548
 7065TIP3    H142686   3.347   2.865   2.458  1.3516 -0.2549 -0.8180
 7065TIP3    H242687   3.203   2.894   2.421  0.0340 -2.8059  1.8563
 7066TIP3   OH242688   6.594   3.734  12.520  0.0300  0.0201 -0.3476
 7066TIP3    H142689   6.682   3.743  12.483 -0.1471 -0.7664 -0.9971
 7066TIP3    H242690   6.538   3.718  12.444 -0.3020 -1.9742  0.2478
 7067TIP3   OH242691   4.224   6.383  15.445  0.4324 -0.0865 -0.0445
 7067TIP3    H142692   4.217   6.396  15.350  0.5543  0.6321  0.0390
 7067TIP3    H242693   4.173   6.304  15.462  1.6545 -1.1010 -0.9171
 7068TIP3   OH242694   4.375   1.993   3.012 -0.7588  0.2770 -0.1822
 7068TIP3    H142695   4.350   1.997   3.105  1.0557  0.4865  0.3349
 7068TIP3    H242696   4.359   1.902   2.987 -0.6978  0.0667  0.5129
 7069TIP3   OH242697   6.790   1.842   2.097  0.6998  0.1957  0.1323
 7069TIP3    H142698   6.880   1.864   2.075  0.9565 -0.5004  0.4664
 7069TIP3    H242699   6.788   1.747   2.100  0.2380  0.2174  1.2680
 7070TIP3   OH242700   5.326   6.191   2.685  0.3187  0.5799 -0.1404
 7070TIP3    H142701   5.299   6.278   2.657  0.2103  0.5390 -0.1640
 7070TIP3    H242702   5.252   6.134   2.663 -0.5249  0.8217  1.8713
 7071TIP3   OH242703   3.236   6.513  14.647  0.2197  0.0261  0.3122
 7071TIP3    H142704   3.159   6.474  14.687  1.2402 -1.0926  1.2577
 7071TIP3    H242705   3.273   6.444  14.593  0.8771  0.3531  0.3310
 7072TIP3   OH242706   2.090   2.378  14.889  0.0946  0.3595 -0.5223
 7072TIP3    H142707   2.018   2.323  14.857  0.4962  0.1052 -1.0077
 7072TIP3    H242708   2.124   2.421  14.810  2.5107 -1.9147 -0.8552
 7073TIP3   OH242709   0.644   1.460   2.982 -0.4137 -0.7722 -0.3921
 7073TIP3    H142710   0.661   1.554   2.985  2.9305 -1.1654 -2.4727
 7073TIP3    H242711   0.566   1.451   2.927  0.0810  0.7034 -1.3772
 7074TIP3   OH242712   6.099   5.857  14.570  0.0238  0.1575 -0.6915
 7074TIP3    H142713   6.189   5.827  14.581  0.0196  0.6946  1.0611
 7074TIP3    H242714   6.107   5.951  14.550 -0.1579  0.3630  0.1722
 7075TIP3   OH242715   3.349   3.015  14.355 -0.6998 -0.5941  0.4102
 7075TIP3    H142716   3.255   3.013  14.371 -0.7582 -0.3842  0.0970
 7075TIP3    H242717   3.377   2.924  14.358 -1.3581 -0.9387 -2.1822
 7076TIP3   OH242718   6.759   2.437   4.762 -0.1192 -0.0200  0.1144
 7076TIP3    H142719   6.680   2.420   4.814 -0.9373  0.1091 -1.0405
 7076TIP3    H242720   6.745   2.388   4.681  1.0387 -0.0700 -0.0696
 7077TIP3   OH242721   5.066   5.883   4.562 -0.1067 -0.0829 -0.3112
 7077TIP3    H142722   5.150   5.925   4.583 -0.2103 -0.0514  0.0520
 7077TIP3    H242723   5.039   5.841   4.644 -0.9829  0.8304 -0.1091
 7078TIP3   OH242724   6.432   5.027  11.782 -0.1448  0.1926  0.2361
 7078TIP3    H142725   6.378   5.029  11.861 -0.7634  0.9861 -0.1862
 7078TIP3    H242726   6.413   4.941  11.743 -0.8593  0.3299  0.2674
 7079TIP3   OH242727   1.681   2.169  14.819  0.6095  0.4098 -0.6962
 7079TIP3    H142728   1.764   2.187  14.863 -0.2047 -1.8276  2.1213
 7079TIP3    H242729   1.634   2.252  14.820  1.4546  0.9055  0.9578
 7080TIP3   OH242730   2.121   4.447   4.146 -0.0783 -0.3896 -0.3755
 7080TIP3    H142731   2.135   4.356   4.173 -0.5138 -0.4499 -0.3526
 7080TIP3    H242732   2.027   4.453   4.131 -0.2122  0.3575  0.6972
 7081TIP3   OH242733   6.630   6.126   0.614  0.3741  0.0777  0.6336
 7081TIP3    H142734   6.661   6.119   0.524  0.2869  0.4068  0.5757
 7081TIP3    H242735   6.582   6.209   0.616 -0.1025 -0.2000  0.8390
 7082TIP3   OH242736   5.754   1.369  10.997 -0.4286 -0.4322 -0.3821
 7082TIP3    H142737   5.821   1.377  10.929  0.4298  0.3943  0.5192
 7082TIP3    H242738   5.727   1.277  10.994  1.2603 -0.9594 -0.3255
 7083TIP3   OH242739   2.310   2.992   0.784  0.0475  0.5443  0.0714
 7083TIP3    H142740   2.301   3.082   0.755  2.1991  1.6087  2.3523
 7083TIP3    H242741   2.366   2.951   0.718 -0.7559  0.8968 -0.8493
 7084TIP3   OH242742   2.749   6.743   2.699 -0.0068 -0.7639 -0.1711
 7084TIP3    H142743   2.781   6.830   2.674 -2.4863  0.2660  0.0157
 7084TIP3    H242744   2.811   6.682   2.658  1.9855  1.0642 -0.0370
 7085TIP3   OH242745   4.817   2.173  14.291  0.0249  0.0469  0.5284
 7085TIP3    H142746   4.861   2.157  14.375 -0.0873  0.2956  0.6325
 7085TIP3    H242747   4.771   2.256  14.303 -0.9884 -0.5130  0.6235
 7086TIP3   OH242748   6.099   0.919   4.073 -0.4801 -0.4716 -0.2862
 7086TIP3    H142749   6.066   0.998   4.029 -0.4015 -0.3201 -0.0730
 7086TIP3    H242750   6.070   0.928   4.164 -0.1885 -0.5290 -0.1883
 7087TIP3   OH242751   3.652   3.109  12.910  0.4734 -0.4233 -0.1231
 7087TIP3    H142752   3.557   3.113  12.902  0.3264 -1.5772  0.7639
 7087TIP3    H242753   3.671   3.161  12.989  0.4795 -0.9575  0.2312
 7088TIP3   OH242754   5.485   1.080   3.396 -0.1574  0.2037 -0.0435
 7088TIP3    H142755   5.426   1.084   3.321  0.8034 -0.3221 -0.8562
 7088TIP3    H242756   5.563   1.036   3.363  0.3415  0.0690  1.2400
 7089TIP3   OH242757   2.476   0.873   2.415 -0.1045  0.1224 -0.5892
 7089TIP3    H142758   2.554   0.889   2.468  1.1190 -0.2328 -2.1945
 7089TIP3    H242759   2.412   0.937   2.446  1.7172  2.2507 -0.9455
 7090TIP3   OH242760   3.827   1.357  12.255 -0.3899  0.4444  0.5773
 7090TIP3    H142761   3.839   1.412  12.178 -0.7664  0.3836  0.4736
 7090TIP3    H242762   3.753   1.395  12.301 -0.6164  0.0612  0.5370
 7091TIP3   OH242763   5.691   0.316   0.716 -0.5639  0.1907 -0.8612
 7091TIP3    H142764   5.719   0.301   0.626 -1.0507 -0.7721 -0.8584
 7091TIP3    H242765   5.596   0.321   0.712 -0.6834 -1.0964 -0.2497
 7092TIP3   OH242766   6.039   6.180   4.169 -0.2133 -0.2833  0.1671
 7092TIP3    H142767   6.115   6.229   4.200  0.0688  0.7556 -1.9448
 7092TIP3    H242768   6.035   6.199   4.075 -2.2682 -1.4400 -0.0482
 7093TIP3   OH242769   3.179   5.433  17.108 -0.2827 -0.4151  0.2074
 7093TIP3    H142770   3.109   5.484  17.067  0.8641  1.1919  0.1384
 7093TIP3    H242771   3.253   5.442  17.049 -0.1473 -2.6210 -0.0410
 7094TIP3   OH242772   3.430   5.667   5.866 -0.5676  0.7328 -0.0245
 7094TIP3    H142773   3.521   5.654   5.890 -0.9019 -0.2354  0.7870
 7094TIP3    H242774   3.433   5.706   5.778  0.6055 -0.5653 -0.5967
 7095TIP3   OH242775   0.819   2.912  13.677 -0.3696  0.2197 -0.1519
 7095TIP3    H142776   0.788   2.845  13.738  1.8562  0.0919  0.9400
 7095TIP3    H242777   0.913   2.896  13.669 -0.2314  1.5764 -1.9875
 7096TIP3   OH242778   5.977   3.165  12.202 -0.0288  0.8698 -0.6175
 7096TIP3    H142779   5.922   3.117  12.141 -1.3254  1.3974  0.0794
 7096TIP3    H242780   5.970   3.256  12.174 -1.6376  1.2978  0.9706
 7097TIP3   OH242781   4.426   3.629   3.875 -0.4041 -0.5336 -0.1406
 7097TIP3    H142782   4.367   3.645   3.949 -1.6224 -0.5847 -1.0665
 7097TIP3    H242783   4.416   3.707   3.819 -0.9856 -1.3502 -1.2014
 7098TIP3   OH242784   0.722   4.650   4.322  0.4110 -0.1054 -0.4629
 7098TIP3    H142785   0.642   4.611   4.357  0.1851  0.6122 -0.1603
 7098TIP3    H242786   0.788   4.634   4.390  1.0635 -2.4319 -1.5295
 7099TIP3   OH242787   4.636   6.104  16.397 -0.2354  0.3650  0.4661
 7099TIP3    H142788   4.586   6.174  16.355 -0.6894  0.0784  0.5295
 7099TIP3    H242789   4.662   6.142  16.482  1.2688  1.1916 -0.3199
 7100TIP3   OH242790   2.672   3.292  10.586 -0.1283  0.6801 -0.0578
 7100TIP3    H142791   2.607   3.363  10.587 -1.6463 -0.6577  0.6550
 7100TIP3    H242792   2.713   3.297  10.673 -1.0484  0.0021  0.4332
 7101TIP3   OH242793   4.962   4.425   3.614 -0.7705 -0.0687 -0.0569
 7101TIP3    H142794   5.029   4.491   3.594 -0.1158 -0.9246 -0.7775
 7101TIP3    H242795   4.883   4.456   3.570 -0.2524 -0.1748 -1.0784
 7102TIP3   OH242796   0.318   1.859  16.322  0.1600  1.1385 -0.0929
 7102TIP3    H142797   0.331   1.794  16.390  1.1980  1.8170  0.3771
 7102TIP3    H242798   0.361   1.823  16.245  0.0207  0.9066 -0.0618
 7103TIP3   OH242799   4.515   0.706   0.521  0.2414  0.1713  0.0946
 7103TIP3    H142800   4.467   0.624   0.534  1.0963 -0.1601  1.3141
 7103TIP3    H242801   4.447   0.773   0.523 -0.4038 -0.4501 -0.3226
 7104TIP3   OH242802   4.198   4.374   5.707  0.6503  0.0785 -0.5063
 7104TIP3    H142803   4.286   4.369   5.745  0.3314 -0.3469  0.1994
 7104TIP3    H242804   4.180   4.468   5.701  0.6029  0.1607  0.6815
 7105TIP3   OH242805   5.598   5.275   3.229  0.0253 -0.1743 -0.5251
 7105TIP3    H142806   5.551   5.294   3.310 -2.3024 -0.7666 -1.6453
 7105TIP3    H242807   5.601   5.358   3.182 -3.0161 -0.6897 -1.8913
 7106TIP3   OH242808   2.218   0.174  11.323 -0.5204 -0.3340 -0.0075
 7106TIP3    H142809   2.272   0.102  11.290  0.4560  0.5125 -0.3155
 7106TIP3    H242810   2.195   0.148  11.412  2.5499  0.3760  1.1067
 7107TIP3   OH242811   5.785   0.860   4.094  0.2319 -0.2040 -0.3384
 7107TIP3    H142812   5.839   0.924   4.139  0.8184 -0.5213 -0.5821
 7107TIP3    H242813   5.698   0.900   4.091  0.5834  0.5614 -0.4637
 7108TIP3   OH242814   3.398   5.291   3.084 -0.1656 -0.1915 -0.0838
 7108TIP3    H142815   3.435   5.219   3.134  0.3921 -1.4196 -2.1504
 7108TIP3    H242816   3.460   5.306   3.013 -1.5779  0.5170 -1.2352
 7109TIP3   OH242817   6.775   0.527  11.780  0.0834  0.0484  0.2692
 7109TIP3    H142818   6.697   0.492  11.823 -0.0280 -0.1631 -0.1022
 7109TIP3    H242819   6.746   0.611  11.743  0.6419  1.1204  2.1353
 7110TIP3   OH242820   0.234   0.053   3.528 -0.0516  0.4612  0.3885
 7110TIP3    H142821   0.165   0.120   3.528 -0.4393  0.1426 -1.6338
 7110TIP3    H242822   0.279   0.066   3.444  2.3109  0.5900  1.6113
 7111TIP3   OH242823   1.049   1.386  14.411 -0.2624  0.6990 -0.6410
 7111TIP3    H142824   1.106   1.434  14.351 -0.9475  0.7197 -1.3074
 7111TIP3    H242825   0.961   1.399  14.374 -0.8123  1.4329  0.8521
 7112TIP3   OH242826   0.686   0.275  10.621 -0.0284  0.5113  0.2562
 7112TIP3    H142827   0.665   0.189  10.584 -1.8444  1.0453 -0.0707
 7112TIP3    H242828   0.762   0.260  10.677  0.8693 -0.9259 -1.2664
 7113TIP3   OH242829   1.785   1.123  14.139 -0.0687 -0.0911 -0.3284
 7113TIP3    H142830   1.860   1.157  14.090 -0.8296  0.2986 -1.2365
 7113TIP3    H242831   1.723   1.196  14.142 -0.3523 -0.3549  0.5636
 7114TIP3   OH242832   3.910   3.806   3.310 -0.3981 -0.5923  0.4005
 7114TIP3    H142833   3.870   3.857   3.381 -0.1568 -1.4507  1.1678
 7114TIP3    H242834   3.854   3.729   3.302 -1.5523  0.3794 -1.6725
 7115TIP3   OH242835   1.726   5.988   4.592 -0.1114 -0.3042  0.4047
 7115TIP3    H142836   1.716   6.083   4.589  2.0212  0.0221  1.7021
 7115TIP3    H242837   1.688   5.963   4.676  0.1530 -0.4738  0.4733
 7116TIP3   OH242838   3.384   3.820  11.480  0.0851  0.1508  0.1893
 7116TIP3    H142839   3.307   3.778  11.443  0.4541  1.1553 -1.8436
 7116TIP3    H242840   3.451   3.752  11.480 -0.0007  0.0578 -0.7776
 7117TIP3   OH242841   4.614   4.946  12.171 -1.0731  0.8472 -0.3253
 7117TIP3    H142842   4.539   4.908  12.126 -0.4037  0.1618 -0.8811
 7117TIP3    H242843   4.689   4.927  12.114 -0.2877  0.4428  0.8044
 7118TIP3   OH242844   5.459   3.805   2.214 -0.3104  0.0770  0.2230
 7118TIP3    H142845   5.543   3.820   2.170 -0.6714  0.6486 -0.2853
 7118TIP3    H242846   5.476   3.827   2.306 -0.0458  0.7203  0.0250
 7119TIP3   OH242847   5.687   5.149  15.705  0.1560 -0.0822 -0.9024
 7119TIP3    H142848   5.709   5.125  15.795  0.2228  3.0756  0.0283
 7119TIP3    H242849   5.594   5.130  15.697  0.0998 -0.1917 -0.0722
 7120TIP3   OH242850   2.094   0.880   3.995  0.1787 -0.1025 -0.2126
 7120TIP3    H142851   2.093   0.883   4.090  1.9379 -2.7099  0.0072
 7120TIP3    H242852   2.144   0.958   3.969  1.9103 -0.6792  1.2022
 7121TIP3   OH242853   6.248   1.246   3.460  0.4316  0.0038 -0.1889
 7121TIP3    H142854   6.189   1.224   3.388 -1.1626 -0.8245  1.3012
 7121TIP3    H242855   6.262   1.340   3.452 -1.0568  0.2129 -0.6213
 7122TIP3   OH242856   0.953   1.583   1.965  0.1125  0.0152  0.1637
 7122TIP3    H142857   0.919   1.672   1.953  1.8745  1.0937  2.2715
 7122TIP3    H242858   0.926   1.535   1.887  0.1931  2.7519 -1.6755
 7123TIP3   OH242859   4.965   6.263  11.211  0.1735 -0.3957  0.3188
 7123TIP3    H142860   4.993   6.257  11.120  0.5807  3.1036  0.0797
 7123TIP3    H242861   4.884   6.213  11.215 -0.7822  0.7684 -2.4464
 7124TIP3   OH242862   2.048   0.304  12.022  0.2745  0.3392  0.2246
 7124TIP3    H142863   2.031   0.338  12.110 -0.6109 -2.5893  1.3263
 7124TIP3    H242864   2.049   0.209  12.034  2.0880 -0.1050 -2.6340
 7125TIP3   OH242865   0.536   1.203   4.274  0.4307  0.5405 -0.2613
 7125TIP3    H142866   0.487   1.231   4.196  1.6183 -0.1500 -1.3043
 7125TIP3    H242867   0.489   1.126   4.305  0.1769  0.5838 -0.5316
 7126TIP3   OH242868   5.015   0.023   6.247  0.0257 -0.0746 -0.1894
 7126TIP3    H142869   5.101  -0.016   6.263 -0.1891 -0.4208  0.1479
 7126TIP3    H242870   5.009   0.094   6.312 -0.1924 -0.4528  0.2132
 7127TIP3   OH242871   4.711   3.101  14.990 -0.1130  0.6467 -0.0281
 7127TIP3    H142872   4.659   3.084  14.912 -1.4245  1.6260  0.5865
 7127TIP3    H242873   4.658   3.066  15.062  1.2086 -0.5213  0.4276
 7128TIP3   OH242874   6.487   3.586   3.180  0.1139  0.0856 -0.3696
 7128TIP3    H142875   6.560   3.610   3.123  0.1630  0.2969 -0.2187
 7128TIP3    H242876   6.519   3.512   3.231  0.0369 -0.1639 -0.6861
 7129TIP3   OH242877   1.944   0.988  10.969 -0.7413 -0.1010  0.1409
 7129TIP3    H142878   1.992   1.057  10.924 -2.1561  0.7942 -0.0846
 7129TIP3    H242879   2.011   0.927  10.999  0.4400  0.6330 -0.8986
 7130TIP3   OH242880   1.991   5.180   0.426  0.2638 -0.1534 -0.0595
 7130TIP3    H142881   1.944   5.099   0.441  1.3212 -0.4051  2.5786
 7130TIP3    H242882   2.084   5.154   0.427  0.5753  0.8755 -0.7813
 7131TIP3   OH242883   6.584   3.394   3.912  0.3265  0.0534  0.1015
 7131TIP3    H142884   6.594   3.383   4.006 -0.4963  0.1529  0.2122
 7131TIP3    H242885   6.489   3.392   3.898  0.4574 -0.5851 -0.7986
 7132TIP3   OH242886   2.802   3.199  13.592 -0.1604 -0.3715  0.0031
 7132TIP3    H142887   2.848   3.279  13.618  1.5138 -1.3601  0.2089
 7132TIP3    H242888   2.767   3.163  13.674 -0.0146 -0.4024  0.0510
 7133TIP3   OH242889   3.083   2.620  11.214  0.5937 -0.3131  0.1472
 7133TIP3    H142890   3.178   2.619  11.220  0.5718 -0.8619  0.4253
 7133TIP3    H242891   3.061   2.543  11.162  0.3636  0.4970 -1.0079
 7134TIP3   OH242892   4.978   1.683  11.482  0.0476  0.2771 -0.5104
 7134TIP3    H142893   5.067   1.651  11.464 -0.1268 -0.0707 -0.7621
 7134TIP3    H242894   4.976   1.771  11.446  0.5042  0.5406  0.0962
 7135TIP3   OH242895   3.594   4.009   0.458 -0.2936 -0.1520  0.3511
 7135TIP3    H142896   3.653   3.991   0.531  2.2793  1.6267 -1.1706
 7135TIP3    H242897   3.598   4.104   0.446 -1.0349 -0.3420 -1.7930
 7136TIP3   OH242898   2.088   3.029  15.149 -0.7968  0.0371  0.3192
 7136TIP3    H142899   2.105   3.122  15.140 -2.2420  0.5009  1.8899
 7136TIP3    H242900   2.173   2.987  15.134  0.1767  1.6999  0.9399
 7137TIP3   OH242901   0.479   4.792  14.512 -0.3167  0.2321 -0.4686
 7137TIP3    H142902   0.475   4.747  14.597  2.8349 -1.5911 -1.1081
 7137TIP3    H242903   0.454   4.882  14.532  0.3087 -0.1131  2.4346
 7138TIP3   OH242904   4.133   5.201  12.262  0.0833 -0.2878 -0.0831
 7138TIP3    H142905   4.181   5.137  12.209 -0.3418 -0.1642 -0.6229
 7138TIP3    H242906   4.191   5.218  12.336  0.3594 -1.0282 -0.1165
 7139TIP3   OH242907   3.028   5.225   2.231 -0.1475 -0.7564  0.0096
 7139TIP3    H142908   3.063   5.176   2.306  1.0301  1.2699  0.8909
 7139TIP3    H242909   3.097   5.221   2.165 -0.3885 -0.9598 -0.2320
 7140TIP3   OH242910   3.015   5.045  11.174  0.2425 -1.1724  0.0598
 7140TIP3    H142911   3.082   4.977  11.184  0.0749 -1.3382  0.0513
 7140TIP3    H242912   2.999   5.076  11.263 -2.2490 -3.6030  0.5938
 7141TIP3   OH242913   0.740   2.857   2.133 -0.0544  0.4972 -0.4705
 7141TIP3    H142914   0.645   2.859   2.118  0.1104  2.2047 -1.5765
 7141TIP3    H242915   0.751   2.803   2.211 -2.0728  1.3810  0.4953
 7142TIP3   OH242916   0.266   3.805  12.378 -0.5808 -0.3484  0.0190
 7142TIP3    H142917   0.283   3.893  12.343  0.6141 -0.3124  0.6588
 7142TIP3    H242918   0.198   3.818  12.444 -1.3338 -0.1046 -0.7918
 7143TIP3   OH242919   2.836   2.657   4.425 -0.6284  0.0483 -0.5339
 7143TIP3    H142920   2.762   2.705   4.387 -0.9743  0.2997  0.4227
 7143TIP3    H242921   2.843   2.577   4.372 -0.6511  0.6999 -1.5419
 7144TIP3   OH242922   0.658   5.549  13.811 -0.4359  0.4582 -0.2937
 7144TIP3    H142923   0.625   5.475  13.861  1.1581 -1.1964 -1.5550
 7144TIP3    H242924   0.590   5.616  13.819 -2.3022 -1.4134  0.2473
 7145TIP3   OH242925   4.184   5.863  15.946  0.0885  0.2460  0.1944
 7145TIP3    H142926   4.149   5.925  16.010 -1.2459  0.0185 -0.2977
 7145TIP3    H242927   4.204   5.916  15.869 -1.8900 -0.0252 -0.5506
 7146TIP3   OH242928   0.741   2.135   2.703  0.8207 -0.2936 -0.3113
 7146TIP3    H142929   0.783   2.081   2.771 -0.4626 -1.2335 -0.2192
 7146TIP3    H242930   0.810   2.150   2.638  2.2160  1.0149  1.3713
 7147TIP3   OH242931   5.266   3.768  15.598 -0.0682 -0.6549 -0.3295
 7147TIP3    H142932   5.303   3.777  15.686  0.6629 -2.2546 -0.4398
 7147TIP3    H242933   5.193   3.708  15.609 -2.0447  1.6307 -0.3134
 7148TIP3   OH242934   1.068   6.010  13.149  0.3524 -0.1899  0.2256
 7148TIP3    H142935   1.086   5.947  13.078  0.5120  1.0411 -0.8642
 7148TIP3    H242936   1.150   6.014  13.198  0.5999 -0.2508 -0.1703
 7149TIP3   OH242937   1.403   3.559   3.534 -0.4931  0.0622  0.3475
 7149TIP3    H142938   1.375   3.646   3.509  0.2080  0.2684  0.2631
 7149TIP3    H242939   1.499   3.561   3.528 -0.4884 -0.8606 -0.1606
 7150TIP3   OH242940   3.822   2.565   0.903  0.0324  0.3828 -0.3561
 7150TIP3    H142941   3.825   2.636   0.838 -0.6005  1.5556  0.8501
 7150TIP3    H242942   3.728   2.546   0.911 -0.1851  2.0165  2.0010
 7151TIP3   OH242943   0.967   2.321  11.562 -0.1471  0.0039  0.7987
 7151TIP3    H142944   1.046   2.268  11.554  0.0634  0.3055  0.8636
 7151TIP3    H242945   0.913   2.274  11.626 -1.1985 -1.6504 -1.1731
 7152TIP3   OH242946   3.452   1.032   0.097  0.7977  0.0763  0.2379
 7152TIP3    H142947   3.454   0.963   0.030  0.8402 -1.6979  1.9829
 7152TIP3    H242948   3.543   1.058   0.107  0.8853 -0.1826  0.1226
 7153TIP3   OH242949   0.866   6.430   1.168  0.2746  0.3132  0.4080
 7153TIP3    H142950   0.960   6.416   1.157  0.0530  0.0173 -1.3862
 7153TIP3    H242951   0.860   6.513   1.215  1.4387  1.3860 -1.2134
 7154TIP3   OH242952   2.070   6.219   6.285 -0.0947 -0.0642  0.4170
 7154TIP3    H142953   2.090   6.213   6.379 -1.4487  0.7715  0.7873
 7154TIP3    H242954   1.975   6.217   6.281 -0.0421 -0.5883 -1.0029
 7155TIP3   OH242955   3.214   1.410  13.497  0.0238 -0.3009 -0.8338
 7155TIP3    H142956   3.243   1.497  13.523 -0.9788  0.3181 -1.7240
 7155TIP3    H242957   3.294   1.365  13.469  0.6692  0.0271  0.3926
 7156TIP3   OH242958   3.928   2.937  12.186 -0.0848  0.1932 -0.3976
 7156TIP3    H142959   3.949   2.953  12.278  1.9344 -0.2463 -0.7323
 7156TIP3    H242960   3.832   2.936  12.183 -0.2032  1.5018  1.4483
 7157TIP3   OH242961   3.308   5.939  16.138  0.3709  0.0276  0.0446
 7157TIP3    H142962   3.383   5.993  16.114  0.5692  0.1358  0.8857
 7157TIP3    H242963   3.322   5.916  16.230 -1.1648  0.9641  0.5550
 7158TIP3   OH242964   4.165   5.530   4.794  0.3254 -0.6244 -0.2416
 7158TIP3    H142965   4.167   5.434   4.789  1.0046 -0.6216 -0.1768
 7158TIP3    H242966   4.107   5.548   4.868 -0.9444 -0.9342 -1.1258
 7159TIP3   OH242967   5.608   2.279  12.723 -0.2530  0.4677 -1.0252
 7159TIP3    H142968   5.583   2.309  12.810 -1.4203 -3.6811  0.2787
 7159TIP3    H242969   5.657   2.198  12.739  1.1734  0.5487 -4.2184
 7160TIP3   OH242970   6.120   4.775  17.203 -0.1233 -0.8080 -0.5051
 7160TIP3    H142971   6.058   4.812  17.140 -2.2569 -0.8985  1.3975
 7160TIP3    H242972   6.182   4.846  17.221 -1.8494  0.6254  0.1873
 7161TIP3   OH242973   0.224   2.925  15.048  0.0920 -0.1249 -0.0118
 7161TIP3    H142974   0.311   2.962  15.060 -0.7007  2.5575 -1.7255
 7161TIP3    H242975   0.226   2.884  14.962  0.0716 -1.5382  0.6243
 7162TIP3   OH242976   5.463   1.247  13.858  0.5460 -0.1678  0.6605
 7162TIP3    H142977   5.477   1.218  13.767  1.1950  1.8625  0.0484
 7162TIP3    H242978   5.543   1.297  13.879  1.0784 -1.8176  2.9024
 7163TIP3   OH242979   1.599   6.783   4.283 -0.4976 -0.4239  0.1634
 7163TIP3    H142980   1.644   6.797   4.367  0.2489 -0.5892 -0.2035
 7163TIP3    H242981   1.623   6.859   4.230  0.8728 -1.4082 -0.6766
 7164TIP3   OH242982   4.207   3.175   4.714 -0.1975 -0.3416 -0.2552
 7164TIP3    H142983   4.190   3.111   4.645 -1.1200  0.1170 -0.4714
 7164TIP3    H242984   4.120   3.200   4.745  0.0235  2.0538 -1.3394
 7165TIP3   OH242985   3.448   3.832   4.771  0.2223  0.3136 -0.6529
 7165TIP3    H142986   3.454   3.782   4.690  0.8865  0.1412 -0.5047
 7165TIP3    H242987   3.517   3.898   4.764 -0.8216  1.4110 -0.9683
 7166TIP3   OH242988   5.376   6.652   5.826  0.5294 -0.1942  0.0209
 7166TIP3    H142989   5.448   6.679   5.883 -0.0770 -0.2381  0.8418
 7166TIP3    H242990   5.312   6.723   5.834 -0.0391 -0.7291  0.2780
 7167TIP3   OH242991   6.559   0.657   6.025 -0.4633 -0.1858 -0.3978
 7167TIP3    H142992   6.508   0.737   6.013  1.1782  0.9862  0.1055
 7167TIP3    H242993   6.621   0.678   6.095  2.7997 -0.4142 -2.9791
 7168TIP3   OH242994   2.249   3.254   0.771  0.4708 -0.0032  0.3959
 7168TIP3    H142995   2.201   3.266   0.689  1.2387  0.5996  0.0188
 7168TIP3    H242996   2.196   3.300   0.836  0.3807  0.4060  0.0410
 7169TIP3   OH242997   5.816   0.629  13.444 -0.0240  0.1465 -0.5316
 7169TIP3    H142998   5.747   0.690  13.416  0.9581  0.8017 -1.6027
 7169TIP3    H242999   5.816   0.561  13.376  1.4844  1.0452 -1.4960
 7170TIP3   OH243000   5.359   3.205   0.782  0.0638 -0.0664  0.6690
 7170TIP3    H143001   5.390   3.175   0.868  0.4898 -0.5897  0.3389
 7170TIP3    H243002   5.266   3.223   0.795  0.0997 -0.2517  1.2127
 7171TIP3   OH243003   1.354   1.619   4.186  0.4516 -0.2269  0.0696
 7171TIP3    H143004   1.354   1.599   4.092  2.3513 -1.6207  0.3068
 7171TIP3    H243005   1.445   1.607   4.213 -0.0974 -0.0698  2.1339
 7172TIP3   OH243006   2.477   6.211  16.201  0.1577 -0.0014  0.6478
 7172TIP3    H143007   2.541   6.277  16.174 -0.0362 -0.0825 -0.0291
 7172TIP3    H243008   2.413   6.260  16.253  1.4106 -0.1386  2.3913
 7173TIP3   OH243009   0.876   4.074  15.813  0.7461  0.0733  0.3024
 7173TIP3    H143010   0.793   4.071  15.859  0.7053  2.1454  0.4506
 7173TIP3    H243011   0.920   3.992  15.837  0.2485  0.5250  3.0833
 7174TIP3   OH243012   6.637   0.852  14.196 -0.8180 -0.0633  0.0615
 7174TIP3    H143013   6.681   0.915  14.252  1.3700  0.1429 -1.7785
 7174TIP3    H243014   6.649   0.768  14.240 -0.3018  0.2647  0.5541
 7175TIP3   OH243015   5.839   5.155  10.592  0.1697 -0.1786 -0.4060
 7175TIP3    H143016   5.849   5.064  10.564  1.0659  0.1343 -1.1677
 7175TIP3    H243017   5.781   5.195  10.527 -1.9383 -0.6684  1.0595
 7176TIP3   OH243018   5.127   6.812   0.154  0.0054  0.0624 -0.1905
 7176TIP3    H143019   5.117   6.778   0.243  1.8506 -0.5919 -0.1806
 7176TIP3    H243020   5.047   6.862   0.138  0.2331  1.4021  2.3556
 7177TIP3   OH243021   0.959   3.207  14.608  0.2990 -0.2246  0.0423
 7177TIP3    H143022   0.957   3.192  14.703 -0.0879 -0.4323  0.0007
 7177TIP3    H243023   0.902   3.140  14.571 -0.0041  0.2094 -0.2899
 7178TIP3   OH243024   6.095   1.874  13.842  0.7223 -0.9900  0.2664
 7178TIP3    H143025   6.094   1.899  13.934 -0.0983  0.6934 -0.1631
 7178TIP3    H243026   6.146   1.793  13.840  1.9098 -0.3500  2.0162
 7179TIP3   OH243027   0.458   1.377   2.268 -0.0000 -0.4543 -0.1812
 7179TIP3    H143028   0.466   1.429   2.188  0.7456 -0.0816  0.1235
 7179TIP3    H243029   0.389   1.421   2.318  1.3819  0.9485  0.5741
 7180TIP3   OH243030   6.744   1.386   4.222 -0.1048 -0.3501  0.0110
 7180TIP3    H143031   6.785   1.447   4.283  2.1968  0.0182 -1.7690
 7180TIP3    H243032   6.739   1.303   4.270  0.8247  0.1467  0.9974
 7181TIP3   OH243033   5.430   0.314  15.046 -0.0183  0.3943 -0.0248
 7181TIP3    H143034   5.484   0.382  15.006  1.6007 -0.3065  0.8312
 7181TIP3    H243035   5.371   0.361  15.105 -0.5490  1.2102 -1.1869
 7182TIP3   OH243036   3.231   6.274   6.138  0.7572 -0.9310 -0.5428
 7182TIP3    H143037   3.164   6.260   6.205  0.9394  2.6033  0.5751
 7182TIP3    H243038   3.182   6.280   6.056 -0.1792  0.1089  0.0619
 7183TIP3   OH243039   5.594   4.358   2.784 -0.7473 -0.0981 -0.6558
 7183TIP3    H143040   5.551   4.304   2.851  0.4113 -0.2447 -0.0154
 7183TIP3    H243041   5.554   4.329   2.701 -2.2161  0.1069 -0.0454
 7184TIP3   OH243042   0.164   1.249  10.608  0.2292  0.1688  0.9537
 7184TIP3    H143043   0.197   1.162  10.586 -0.3571  0.1744  0.0046
 7184TIP3    H243044   0.219   1.278  10.681  1.7254 -0.1995  0.0179
 7185TIP3   OH243045   0.306   6.386  15.449 -0.5763 -0.1103  0.8742
 7185TIP3    H143046   0.391   6.431  15.441  0.1647 -0.8684  3.3751
 7185TIP3    H243047   0.294   6.342  15.366  0.7203  1.2938 -0.1086
 7186TIP3   OH243048   2.663   3.441  16.545 -0.0427  0.2922 -0.2285
 7186TIP3    H143049   2.607   3.366  16.529 -0.0987 -0.0575  1.5085
 7186TIP3    H243050   2.607   3.505  16.588  0.5065  0.5508  0.1122
 7187TIP3   OH243051   1.757   5.489   5.868  0.4739  0.0982 -0.4085
 7187TIP3    H143052   1.707   5.561   5.907 -0.2094 -0.5136 -0.1596
 7187TIP3    H243053   1.767   5.514   5.776  0.8980  0.8720 -0.1688
 7188TIP3   OH243054   6.436   3.292   1.531  0.0698  0.6978 -0.0985
 7188TIP3    H143055   6.520   3.334   1.510  0.5098 -0.5902 -1.0867
 7188TIP3    H243056   6.439   3.278   1.625  0.7095  1.2157 -0.0349
 7189TIP3   OH243057   2.672   0.637  14.216 -0.4347  0.2496 -0.2856
 7189TIP3    H143058   2.753   0.681  14.241 -0.5516  1.5781 -2.0816
 7189TIP3    H243059   2.689   0.602  14.129 -1.6840  0.2620 -0.5602
 7190TIP3   OH243060   0.426   4.965   3.911 -0.1199  0.6319 -0.3057
 7190TIP3    H143061   0.500   5.025   3.909  2.2777 -2.0981 -0.5618
 7190TIP3    H243062   0.435   4.913   3.831 -1.3711 -0.8436  0.4492
 7191TIP3   OH243063   2.406   2.404   3.908 -0.4261 -0.5796  0.5079
 7191TIP3    H143064   2.486   2.447   3.876  0.0348 -0.4321  1.8030
 7191TIP3    H243065   2.431   2.313   3.921 -0.3774 -0.4691  1.2045
 7192TIP3   OH243066   3.959   0.614   5.663 -0.0250 -0.1465  0.6062
 7192TIP3    H143067   3.976   0.524   5.691 -1.2108 -1.1491 -1.6222
 7192TIP3    H243068   3.960   0.610   5.567  1.5131  2.5719  0.4072
 7193TIP3   OH243069   0.419   4.205  17.023  0.0130  0.1082 -0.0687
 7193TIP3    H143070   0.440   4.247  16.940  1.4134 -0.9046 -0.2691
 7193TIP3    H243071   0.382   4.275  17.077  1.8677  1.5130 -0.5304
 7194TIP3   OH243072   3.806   4.815  13.100  0.0641 -0.4700 -0.3241
 7194TIP3    H143073   3.728   4.817  13.044 -1.0157  1.4005  1.1363
 7194TIP3    H243074   3.781   4.761  13.174 -0.4301  1.2617  0.8398
 7195TIP3   OH243075   6.567   0.161   5.548  0.1357 -0.0088  0.4170
 7195TIP3    H143076   6.501   0.103   5.510  0.3569  0.6482 -1.0665
 7195TIP3    H243077   6.521   0.244   5.561  0.4893  0.2707 -0.0545
 7196TIP3   OH243078   4.692   0.409   5.065 -0.3465 -0.5700 -0.6055
 7196TIP3    H143079   4.665   0.348   4.997 -0.5503 -1.6034  0.3669
 7196TIP3    H243080   4.736   0.354   5.131  0.7507  0.5437 -0.3754
 7197TIP3   OH243081   6.349   4.581  12.485  0.2650 -0.0117  0.0810
 7197TIP3    H143082   6.297   4.579  12.405 -0.2474  0.0909  0.4054
 7197TIP3    H243083   6.288   4.609  12.553  0.1460 -2.0277  0.8983
 7198TIP3   OH243084   6.307   5.074   1.640  0.3216  0.1157 -0.1526
 7198TIP3    H143085   6.260   5.024   1.573  1.2575 -0.5195 -0.3518
 7198TIP3    H243086   6.238   5.118   1.690 -0.6777 -2.8055  1.2258
 7199TIP3   OH243087   5.242   0.138   1.025  0.1499  0.4094  0.6375
 7199TIP3    H143088   5.318   0.192   1.001  0.2101 -0.2934 -0.8939
 7199TIP3    H243089   5.252   0.124   1.119  0.9859  1.7427  0.7832
 7200TIP3   OH243090   6.714   3.126   4.326  0.1413 -0.1389  0.2706
 7200TIP3    H143091   6.651   3.054   4.325 -0.7573  0.6310 -0.3858
 7200TIP3    H243092   6.751   3.124   4.415 -2.1733  0.5344  1.3270
 7201TIP3   OH243093   2.513   0.856  14.228  0.1159 -0.3695 -0.1546
 7201TIP3    H143094   2.441   0.872  14.166  0.9024 -2.7292 -1.7922
 7201TIP3    H243095   2.545   0.769  14.206  1.5061 -0.6424  2.5833
 7202TIP3   OH243096   2.826   6.533  14.812  0.3048  0.0070 -0.5043
 7202TIP3    H143097   2.736   6.556  14.789 -0.1712 -1.6382 -0.4277
 7202TIP3    H243098   2.864   6.501  14.730  1.4935  2.4935 -1.0206
 7203TIP3   OH243099   3.029   6.597   3.844 -0.2201 -0.4562 -0.1857
 7203TIP3    H143100   3.062   6.523   3.792  0.3167 -0.8271  0.6577
 7203TIP3    H243101   3.002   6.661   3.779 -1.3953 -1.6774 -0.9529
 7204TIP3   OH243102   3.968   1.999  13.000 -0.2672  0.1184  0.2604
 7204TIP3    H143103   3.963   1.993  12.905 -0.1229 -0.9177  0.3037
 7204TIP3    H243104   4.057   2.030  13.018  0.3432 -1.4556  0.0934
 7205TIP3   OH243105   2.447   3.351   1.153 -0.8818 -0.6404  0.5563
 7205TIP3    H143106   2.391   3.417   1.194 -3.2361 -0.7247 -2.1942
 7205TIP3    H243107   2.427   3.270   1.200 -0.4505 -0.0294  1.8238
 7206TIP3   OH243108   3.314   0.709   4.096  0.4352  0.8552 -0.0378
 7206TIP3    H143109   3.224   0.678   4.087  0.0927  2.1366 -1.3803
 7206TIP3    H243110   3.367   0.643   4.050  0.2300  0.0071  0.9112
 7207TIP3   OH243111   0.694   5.316   4.084  0.5343  0.1922 -0.7170
 7207TIP3    H143112   0.745   5.395   4.068  0.4751  0.3092 -0.3235
 7207TIP3    H243113   0.721   5.287   4.172  0.8765 -0.4649 -1.0273
 7208TIP3   OH243114   3.070   6.362   0.788 -0.0894  0.3907 -0.0987
 7208TIP3    H143115   2.992   6.415   0.803 -1.3594 -1.1964 -0.7918
 7208TIP3    H243116   3.037   6.272   0.780  2.0448 -0.6766  1.8398
 7209TIP3   OH243117   2.829   4.628  16.005 -0.2959 -0.4456 -0.1410
 7209TIP3    H143118   2.891   4.632  15.932 -1.8621 -0.6143 -1.5476
 7209TIP3    H243119   2.766   4.561  15.979 -1.1387 -0.1953  1.1736
 7210TIP3   OH243120   3.387   1.520   4.997  0.6337  0.3244  0.0821
 7210TIP3    H143121   3.455   1.478   5.049 -0.8383 -0.9112  1.0862
 7210TIP3    H243122   3.379   1.466   4.919  0.9882  0.6129 -0.1512
 7211TIP3   OH243123   0.768   5.949   1.845 -0.2292  0.0910  0.0674
 7211TIP3    H143124   0.694   5.953   1.785  0.0391  2.0168 -0.2119
 7211TIP3    H243125   0.761   5.863   1.887 -1.6972 -0.3917 -1.0871
 7212TIP3   OH243126   3.407   5.275  11.270  0.0063  0.1081  0.6136
 7212TIP3    H143127   3.489   5.259  11.223 -0.4648 -2.3635  0.4945
 7212TIP3    H243128   3.364   5.189  11.273 -3.1012  1.5063 -0.2477
 7213TIP3   OH243129   5.556   2.352  14.492  0.6966 -0.1869  0.1612
 7213TIP3    H143130   5.597   2.414  14.553 -0.7517  0.8793  0.0820
 7213TIP3    H243131   5.551   2.399  14.409 -1.1101 -0.1002  0.2918
 7214TIP3   OH243132   5.016   4.706   0.613  0.1605  0.1957 -0.5389
 7214TIP3    H143133   5.029   4.635   0.550  0.4930  0.4099 -0.7113
 7214TIP3    H243134   4.975   4.776   0.562  1.0894  0.6379 -0.6856
 7215TIP3   OH243135   0.273   6.214  14.442  0.2302  0.4666  0.0161
 7215TIP3    H143136   0.226   6.132  14.458 -0.0382  0.7651  0.8012
 7215TIP3    H243137   0.258   6.232  14.349  0.1903 -0.3130 -0.1332
 7216TIP3   OH243138   1.233   0.108  13.676 -0.3515 -0.7230  0.3218
 7216TIP3    H143139   1.191   0.191  13.653 -0.5679 -0.8386  0.2982
 7216TIP3    H243140   1.276   0.126  13.760  0.4780 -0.2867 -0.1895
 7217TIP3   OH243141   6.244   0.200   0.987 -0.3995 -0.1178 -0.2730
 7217TIP3    H143142   6.160   0.160   1.008  0.0556 -1.4868 -0.9138
 7217TIP3    H243143   6.299   0.127   0.958  0.5917  0.9290 -1.1580
 7218TIP3   OH243144   2.526   0.670   5.487 -0.8308  0.2467 -0.2185
 7218TIP3    H143145   2.590   0.608   5.524  0.0507  1.9526  1.2494
 7218TIP3    H243146   2.541   0.751   5.534 -1.2236  1.9461 -2.8294
 7219TIP3   OH243147   3.792   0.902  14.112 -0.7133 -0.1636 -0.4204
 7219TIP3    H143148   3.711   0.950  14.125 -0.9013 -0.7927  0.8011
 7219TIP3    H243149   3.840   0.953  14.047 -0.8317  1.7854  0.9516
 7220TIP3   OH243150   3.311   0.968   5.480 -0.2946  0.3661  0.0130
 7220TIP3    H143151   3.266   0.888   5.454 -0.1337  0.0003  0.8036
 7220TIP3    H243152   3.242   1.029   5.505 -0.5289  1.1891 -2.4060
 7221TIP3   OH243153   1.258   2.772   3.035  0.0538  0.3500  0.3671
 7221TIP3    H143154   1.227   2.792   2.947  1.7724  0.1496 -0.3353
 7221TIP3    H243155   1.321   2.700   3.022  0.3801  0.3688  1.7364
 7222TIP3   OH243156   5.706   1.942   4.400  0.5066  0.1171  0.2650
 7222TIP3    H143157   5.783   1.962   4.453  1.2489  1.0888 -1.1255
 7222TIP3    H243158   5.662   2.026   4.389 -1.6333 -0.6284  2.2643
 7223TIP3   OH243159   1.786   1.160   5.498 -0.4702  0.4052  0.4774
 7223TIP3    H143160   1.708   1.155   5.552  0.6991 -0.4903  2.1772
 7223TIP3    H243161   1.772   1.095   5.429 -1.0231 -0.1120  1.0663
 7224TIP3   OH243162   6.067   0.233  12.947 -0.1275 -0.3371  0.9475
 7224TIP3    H143163   6.089   0.190  13.030  0.1295  0.0293  1.0715
 7224TIP3    H243164   5.975   0.256  12.957  0.1709  0.6827  1.5850
 7225TIP3   OH243165   2.233   5.845   4.239 -0.2718 -1.1278 -0.2891
 7225TIP3    H143166   2.138   5.856   4.243 -0.1383  0.6830 -0.9971
 7225TIP3    H243167   2.248   5.802   4.155 -0.5205 -2.5838  0.3867
 7226TIP3   OH243168   4.285   6.714   6.403  0.2643 -0.1645 -0.0652
 7226TIP3    H143169   4.325   6.747   6.484  2.7155 -0.7828 -0.9346
 7226TIP3    H243170   4.238   6.790   6.367  0.9117  0.7109  0.8679
 7227TIP3   OH243171   4.440   6.615   1.433  0.1020 -0.5103  0.2180
 7227TIP3    H143172   4.383   6.627   1.509 -0.3266 -0.2387 -0.1422
 7227TIP3    H243173   4.522   6.658   1.457 -0.8556  1.8524 -0.4174
 7228TIP3   OH243174   4.627   1.087  10.694  0.2617 -0.2446  0.1596
 7228TIP3    H143175   4.568   1.085  10.618 -1.0017  1.6924  0.9929
 7228TIP3    H243176   4.650   1.180  10.703  1.6686 -0.6672  1.2136
 7229TIP3   OH243177   4.415   3.725   0.712 -0.1825 -0.0631  0.0334
 7229TIP3    H143178   4.425   3.672   0.633 -0.7242 -0.9247  0.5273
 7229TIP3    H243179   4.504   3.745   0.739  0.0123 -0.0649 -0.5974
 7230TIP3   OH243180   2.646   5.243  12.798 -0.0603 -0.0925  0.0223
 7230TIP3    H143181   2.651   5.166  12.741  0.0832 -0.7408  0.8899
 7230TIP3    H243182   2.570   5.291  12.767 -0.3014 -0.7150 -0.3702
 7231TIP3   OH243183   4.058   3.726   0.895 -0.7038 -0.2996  0.0895
 7231TIP3    H143184   3.997   3.797   0.919 -2.7812 -1.6185 -0.9942
 7231TIP3    H243185   4.012   3.646   0.921  1.2872 -1.3096  0.6307
 7232TIP3   OH243186   2.013   6.073  13.399 -0.4451  0.3459 -0.2019
 7232TIP3    H143187   1.928   6.078  13.442 -0.0492  0.7829  0.5557
 7232TIP3    H243188   2.075   6.100  13.466  0.5600 -2.2733  0.0718
 7233TIP3   OH243189   6.506   2.741   3.960 -0.5356 -0.1957 -0.0296
 7233TIP3    H143190   6.572   2.735   4.029 -0.2634 -2.2996 -0.4209
 7233TIP3    H243191   6.426   2.770   4.006  0.4868  2.0005  0.4998
 7234TIP3   OH243192   6.196   5.069   0.979 -0.8280 -0.8479 -0.2153
 7234TIP3    H143193   6.204   4.975   0.994  0.1965 -0.6549  0.5706
 7234TIP3    H243194   6.281   5.105   1.004 -1.9730  0.5972  2.0042
 7235TIP3   OH243195   3.675   4.506  14.075  0.4461 -0.6832 -0.9230
 7235TIP3    H143196   3.675   4.597  14.045  0.6534 -1.0966 -2.2343
 7235TIP3    H243197   3.632   4.509  14.161  0.5307  0.6579 -0.9108
 7236TIP3   OH243198   1.638   1.002  12.126  0.4713  0.1869 -0.1787
 7236TIP3    H143199   1.581   0.940  12.172  1.4956  0.0425  0.9730
 7236TIP3    H243200   1.580   1.072  12.098 -0.4454 -0.4920 -0.0157
 7237TIP3   OH243201   3.533   4.102   3.690 -0.2931 -0.1226  0.1346
 7237TIP3    H143202   3.575   4.150   3.762 -1.3681 -0.4650  1.0284
 7237TIP3    H243203   3.603   4.051   3.651  0.9559  2.2580 -0.9832
 7238TIP3   OH243204   2.247   4.584   4.913 -0.5605 -0.0929 -0.0791
 7238TIP3    H143205   2.243   4.629   4.829 -0.0962  0.9264  0.4244
 7238TIP3    H243206   2.335   4.549   4.919 -1.2276 -2.0239 -0.9198
 7239TIP3   OH243207   2.656   2.642  11.167  0.0680 -0.5875  0.1753
 7239TIP3    H143208   2.632   2.699  11.240 -0.3897 -0.8649  0.2461
 7239TIP3    H243209   2.603   2.673  11.094  0.0225 -0.7445  0.1409
 7240TIP3   OH243210   0.269   2.544   0.743  0.5122  0.2034 -0.0027
 7240TIP3    H143211   0.364   2.541   0.732  0.4562  0.9243 -0.7815
 7240TIP3    H243212   0.249   2.636   0.761 -0.2042  0.4068 -1.6682
 7241TIP3   OH243213   5.990   5.383  15.868 -0.2572 -0.1285 -0.3343
 7241TIP3    H143214   5.938   5.456  15.835 -0.5490 -0.3080 -0.2741
 7241TIP3    H243215   6.020   5.338  15.789 -0.2689 -0.0778 -0.3684
 7242TIP3   OH243216   6.774   5.749  14.841  0.3411  0.0007  0.0754
 7242TIP3    H143217   6.737   5.694  14.909 -1.1630 -0.6103 -1.1743
 7242TIP3    H243218   6.860   5.710  14.822  0.5392 -0.1439  1.2073
 7243TIP3   OH243219   5.209   2.689  12.861 -0.0876  0.0582  0.2802
 7243TIP3    H143220   5.157   2.746  12.805 -0.1528 -0.6758 -0.4306
 7243TIP3    H243221   5.255   2.748  12.920  0.5190  0.9115 -1.0028
 7244TIP3   OH243222   6.152   6.634  17.072 -0.0837 -0.6412  0.0452
 7244TIP3    H143223   6.129   6.645  17.164 -0.1426  0.9871 -0.1442
 7244TIP3    H243224   6.068   6.621  17.028 -0.1521 -0.2818  0.0711
 7245TIP3   OH243225   3.475   4.119  16.740 -0.0319  0.0278 -0.1176
 7245TIP3    H143226   3.412   4.190  16.754  1.5011  0.9814  2.7156
 7245TIP3    H243227   3.531   4.150  16.669 -0.6127  0.7497 -0.2749
 7246TIP3   OH243228   2.961   0.267   6.386  0.2360  0.6676 -0.2055
 7246TIP3    H143229   3.055   0.285   6.387  0.1879  0.9238  1.3841
 7246TIP3    H243230   2.921   0.348   6.417 -0.4860  0.3583 -0.3229
 7247TIP3   OH243231   3.055   3.714  11.536 -0.0649 -0.2405 -0.5783
 7247TIP3    H143232   3.042   3.640  11.477  0.1435 -0.6732 -0.0870
 7247TIP3    H243233   3.112   3.680  11.605  0.8394  0.6439 -0.8575
 7248TIP3   OH243234   6.517   4.818   3.607 -0.0682 -0.0321  0.1265
 7248TIP3    H143235   6.533   4.876   3.682 -1.3374  0.0950  0.3231
 7248TIP3    H243236   6.467   4.871   3.546 -2.1236 -1.1490  0.7300
 7249TIP3   OH243237   3.340   5.431   1.951  0.4839  0.3612 -0.4184
 7249TIP3    H143238   3.265   5.490   1.961  0.1950  0.0965 -0.9662
 7249TIP3    H243239   3.324   5.361   2.015  0.3704  0.4152 -0.3866
 7250TIP3   OH243240   6.530   0.966  11.834 -0.9402 -0.4995 -0.2177
 7250TIP3    H143241   6.441   0.981  11.805 -1.2088 -1.4305  0.1075
 7250TIP3    H243242   6.576   1.047  11.813 -1.9986  0.2186  0.1646
 7251TIP3   OH243243   3.060   3.853   3.549  0.4735 -0.0248 -0.0796
 7251TIP3    H143244   3.041   3.933   3.501  1.0254  1.3981  1.9415
 7251TIP3    H243245   3.071   3.786   3.482 -2.0707  1.1000 -1.7480
 7252TIP3   OH243246   2.326   5.037  10.467  0.0632 -0.4585 -0.1742
 7252TIP3    H143247   2.363   5.074  10.547  0.0830 -0.3097 -0.2526
 7252TIP3    H243248   2.366   4.950  10.460 -0.6980 -0.8838  0.5177
 7253TIP3   OH243249   0.107   4.757  15.910 -0.3807  0.1701  0.5210
 7253TIP3    H143250   0.142   4.726  15.827  2.2053 -0.2411  1.6798
 7253TIP3    H243251   0.104   4.853  15.901  0.8784  0.2010  0.2879
 7254TIP3   OH243252   1.970   0.652  11.851  0.3277 -0.5109 -0.6396
 7254TIP3    H143253   1.977   0.726  11.791  1.1732  0.4578  0.6011
 7254TIP3    H243254   1.936   0.690  11.932  1.3236 -1.3522  0.2046
 7255TIP3   OH243255   1.676   4.207   1.119 -0.0476 -0.0509 -0.5608
 7255TIP3    H143256   1.664   4.302   1.117 -1.4060 -0.2064 -0.8414
 7255TIP3    H243257   1.627   4.176   1.043  1.0595 -0.9224 -0.9403
 7256TIP3   OH243258   1.360   2.042   5.286  0.0560 -0.2551 -0.0653
 7256TIP3    H143259   1.437   2.099   5.283  0.2245 -0.5106 -0.6830
 7256TIP3    H243260   1.387   1.968   5.340  0.3935 -0.5546 -0.6354
 7257TIP3   OH243261   5.389   3.855  12.411 -0.4766 -0.2208 -0.0789
 7257TIP3    H143262   5.350   3.768  12.416  3.8600 -2.6666 -2.6370
 7257TIP3    H243263   5.350   3.895  12.333 -1.7310 -0.2212  0.5193
 7258TIP3   OH243264   2.799   2.640  11.733  0.1035 -0.3731  0.7825
 7258TIP3    H143265   2.723   2.594  11.768 -0.0627 -1.0136 -0.3706
 7258TIP3    H243266   2.833   2.581  11.665 -0.1387  1.1741 -0.7629
 7259TIP3   OH243267   4.919   5.463  11.716 -0.1457 -0.5182 -0.1414
 7259TIP3    H143268   4.965   5.383  11.742  0.1535 -0.0729  0.7563
 7259TIP3    H243269   4.923   5.463  11.621  0.3839 -1.2655 -0.1315
 7260TIP3   OH243270   4.113   0.934  16.747  0.1487 -0.0430  0.2520
 7260TIP3    H143271   4.156   1.017  16.726 -1.3507  0.9668  1.0207
 7260TIP3    H243272   4.185   0.875  16.770  1.2790  0.8898 -0.7472
 7261TIP3   OH243273   0.997   6.586  14.048  0.1064 -0.0584  0.1355
 7261TIP3    H143274   0.919   6.531  14.053  0.9295 -1.4213 -1.0638
 7261TIP3    H243275   1.000   6.615  13.957  0.4505  0.8250  0.4188
 7262TIP3   OH243276   1.964   3.567  14.900  0.4300  0.4920 -1.1598
 7262TIP3    H143277   2.007   3.622  14.965  1.4569 -0.5909 -0.8873
 7262TIP3    H243278   2.019   3.576  14.822  0.4879  0.0229 -1.1739
 7263TIP3   OH243279   0.213   6.793  11.722  0.1294  0.2097 -0.5508
 7263TIP3    H143280   0.291   6.756  11.763  1.2916  1.2397 -1.7496
 7263TIP3    H243281   0.143   6.776  11.785  1.4482 -0.0689  0.9047
 7264TIP3   OH243282   1.644   0.173   1.703  0.3842 -0.1444  0.1478
 7264TIP3    H143283   1.651   0.216   1.618 -1.9876 -0.0372 -0.0423
 7264TIP3    H243284   1.606   0.239   1.761 -1.4573 -1.3089  0.3455
 7265TIP3   OH243285   5.219   6.529   2.292  0.7576  0.0989 -0.1755
 7265TIP3    H143286   5.230   6.488   2.378 -2.2421  1.0438  0.7901
 7265TIP3    H243287   5.131   6.504   2.265  0.4473  2.3960 -1.5233
 7266TIP3   OH243288   2.989   1.692   5.939  0.7155  0.3067  0.3993
 7266TIP3    H143289   2.906   1.645   5.947  1.3659 -0.8258  0.8997
 7266TIP3    H243290   2.988   1.755   6.011 -0.5199  1.6687 -0.7633
 7267TIP3   OH243291   3.917   0.167   1.092  0.0137  0.6285  0.1392
 7267TIP3    H143292   3.903   0.159   1.187 -2.0752  0.8450 -0.1088
 7267TIP3    H243293   3.998   0.119   1.076  2.1795  3.1415  2.4558
 7268TIP3   OH243294   4.098   2.741  13.817  0.1635  0.6388  0.2315
 7268TIP3    H143295   4.068   2.661  13.775 -0.4805  2.0203 -2.1228
 7268TIP3    H243296   4.183   2.718  13.855  0.5541 -0.8530 -1.4260
 7269TIP3   OH243297   0.405   5.049   3.556  0.0170 -0.2023 -0.2196
 7269TIP3    H143298   0.404   5.048   3.460  1.7986  0.0526 -0.2747
 7269TIP3    H243299   0.338   4.986   3.581  0.5562 -1.4257 -1.6731
 7270TIP3   OH243300   1.816   6.364  13.268  0.3157  0.4726  0.3260
 7270TIP3    H143301   1.773   6.281  13.248 -0.7268  1.0702 -0.0211
 7270TIP3    H243302   1.808   6.373  13.363  1.3394 -0.2852  0.5025
 7271TIP3   OH243303   3.848   1.050  12.518  0.4650 -0.0027 -0.0866
 7271TIP3    H143304   3.943   1.048  12.514  0.6128  3.0605 -0.0607
 7271TIP3    H243305   3.825   0.980  12.580  2.7027 -0.4725  0.2898
 7272TIP3   OH243306   4.238   1.589  12.320 -0.2212  0.0006  0.2636
 7272TIP3    H143307   4.305   1.619  12.259  0.0975  0.7750  0.9803
 7272TIP3    H243308   4.269   1.502  12.348 -1.5689 -1.4811 -2.4527
 7273TIP3   OH243309   2.079   6.743  12.317  0.2132 -0.4020  0.4472
 7273TIP3    H143310   2.158   6.690  12.300  0.5550  0.2778 -0.1391
 7273TIP3    H243311   2.085   6.765  12.410  0.4058 -0.8526  0.5456
 7274TIP3   OH243312   3.473   3.846   1.502  0.4455 -0.3269  0.2157
 7274TIP3    H143313   3.446   3.853   1.410  0.1185  3.4535  0.4760
 7274TIP3    H243314   3.407   3.790   1.542  0.3066 -1.6215 -1.6740
 7275TIP3   OH243315   5.126   2.965   1.297  0.2747 -0.2485 -0.2564
 7275TIP3    H143316   5.218   2.949   1.318  0.1232  0.0751  0.7556
 7275TIP3    H243317   5.108   3.051   1.336 -0.5029 -0.4022 -0.2630
 7276TIP3   OH243318   1.759   0.518   1.814 -0.1789 -0.9720  0.1279
 7276TIP3    H143319   1.769   0.452   1.883  3.4158  0.9102  1.6915
 7276TIP3    H243320   1.825   0.496   1.749 -1.0257 -0.6112 -0.8865
 7277TIP3   OH243321   1.340   5.419  12.127 -0.4403 -0.1200  0.1649
 7277TIP3    H143322   1.377   5.403  12.214 -0.8703 -1.0997  0.1838
 7277TIP3    H243323   1.359   5.338  12.078  1.0045  0.9220 -1.1009
 7278TIP3   OH243324   0.505   1.511  15.598 -0.3081  0.5728  0.1994
 7278TIP3    H143325   0.541   1.435  15.644  1.0804  1.9704  1.5439
 7278TIP3    H243326   0.411   1.493  15.591 -0.1970 -0.7022  1.5886
 7279TIP3   OH243327   4.836   2.088   4.946  0.0775 -0.1560 -0.0901
 7279TIP3    H143328   4.857   2.000   4.978 -1.4502 -0.9132 -1.0808
 7279TIP3    H243329   4.865   2.089   4.855 -0.0101  0.3374 -0.1199
 7280TIP3   OH243330   0.926   5.960   4.144 -0.3405  0.0945 -0.1451
 7280TIP3    H143331   0.929   5.935   4.052 -0.8903  2.8187 -0.9799
 7280TIP3    H243332   0.835   5.981   4.161 -0.0480  0.7684  0.6757
 7281TIP3   OH243333   0.981   6.807   0.928 -0.5455  0.2782 -0.1567
 7281TIP3    H143334   0.947   6.718   0.921 -2.6444  1.0909 -1.1738
 7281TIP3    H243335   0.995   6.821   1.022  2.6786 -2.0329 -0.1334
 7282TIP3   OH243336   3.088   2.466   1.955  0.0264 -0.0953  0.1354
 7282TIP3    H143337   3.173   2.421   1.952  0.2331  0.1003  2.1111
 7282TIP3    H243338   3.096   2.536   1.890  2.0153  0.9587  1.4312
 7283TIP3   OH243339   0.175   2.667   5.133  0.1752 -0.0291  0.7712
 7283TIP3    H143340   0.161   2.598   5.197  3.1910 -0.6564  0.8689
 7283TIP3    H243341   0.136   2.633   5.052  1.0473 -1.5744  0.9856
 7284TIP3   OH243342   3.266   1.307   4.367 -0.1603 -0.0476  0.0165
 7284TIP3    H143343   3.312   1.247   4.308  0.1739 -0.8326  1.0516
 7284TIP3    H243344   3.328   1.378   4.382 -0.2155  0.1169 -0.4954
 7285TIP3   OH243345   0.505   5.287   3.642  0.0454 -0.0001 -0.1154
 7285TIP3    H143346   0.439   5.230   3.602  0.1444 -0.9755  1.0552
 7285TIP3    H243347   0.501   5.267   3.735  0.8218  1.1698  0.1871
 7286TIP3   OH243348   0.264   4.062  16.776  0.4828  0.0125  0.3205
 7286TIP3    H143349   0.301   4.133  16.829  1.7547 -0.4946  0.1293
 7286TIP3    H243350   0.291   3.982  16.821  0.3586 -0.3912 -0.3180
 7287TIP3   OH243351   1.108   6.534  15.859  0.1452  0.2254  0.8014
 7287TIP3    H143352   1.126   6.581  15.940  0.4271  1.3309  0.1198
 7287TIP3    H243353   1.191   6.493  15.836  1.0198  2.5482 -0.5690
 7288TIP3   OH243354   4.673   3.536  14.702 -0.0659 -0.2505 -0.5736
 7288TIP3    H143355   4.729   3.583  14.641  0.6258 -0.7172 -0.3123
 7288TIP3    H243356   4.589   3.529  14.658  0.4422 -0.6337 -1.4970
 7289TIP3   OH243357   6.635   1.574  13.517  0.0705 -0.4580  0.5090
 7289TIP3    H143358   6.648   1.622  13.599 -2.4793 -0.1840  0.8554
 7289TIP3    H243359   6.676   1.489  13.531 -0.8302 -0.6375  2.3514
 7290TIP3   OH243360   3.361   6.593  12.908  0.4174  0.6011 -0.0815
 7290TIP3    H143361   3.376   6.500  12.925  0.6682  0.1058 -2.5530
 7290TIP3    H243362   3.443   6.636  12.933  0.4900  0.0868  0.5735
 7291TIP3   OH243363   1.452   0.239   2.932  0.3721  0.0449 -0.4601
 7291TIP3    H143364   1.472   0.263   3.022 -2.1460  0.3952  0.0667
 7291TIP3    H243365   1.530   0.192   2.902  0.8105 -1.1479  2.2864
 7292TIP3   OH243366   1.379   4.280   5.032  0.5483 -0.1062 -0.7072
 7292TIP3    H143367   1.332   4.196   5.029 -3.0665  1.7366 -0.7843
 7292TIP3    H243368   1.472   4.255   5.030 -0.2888 -4.1250  0.4387
 7293TIP3   OH243369   1.314   2.796  12.913 -0.6342 -0.1749  0.1329
 7293TIP3    H143370   1.372   2.784  12.988 -0.8936 -2.4665  0.0538
 7293TIP3    H243371   1.228   2.813  12.952 -0.5215 -0.0564  0.3298
 7294TIP3   OH243372   5.972   5.322   5.979  0.2905 -0.1360 -0.0586
 7294TIP3    H143373   5.903   5.318   6.046  1.1388 -1.9712  0.7717
 7294TIP3    H243374   6.054   5.309   6.028  0.9248 -1.7957 -1.4539
 7295TIP3   OH243375   0.287   0.173  13.601  0.4252  0.3989  0.0287
 7295TIP3    H143376   0.319   0.090  13.635  0.6282  0.2247 -0.5683
 7295TIP3    H243377   0.367   0.221  13.576  0.2579 -0.3934 -2.2975
 7296TIP3   OH243378   2.719   6.083   1.336 -0.1700  0.2884  0.0002
 7296TIP3    H143379   2.748   6.110   1.249 -0.3695  0.5933  0.0265
 7296TIP3    H243380   2.687   5.993   1.324 -0.3257  0.3782 -0.2691
 7297TIP3   OH243381   4.141   1.267  14.631  0.1427  0.4828 -0.1111
 7297TIP3    H143382   4.143   1.293  14.539  0.9075  0.6593 -0.0567
 7297TIP3    H243383   4.195   1.333  14.676 -3.3622  2.7791  1.1266
 7298TIP3   OH243384   2.777   5.178  16.005  0.4135  0.6248  0.2457
 7298TIP3    H143385   2.686   5.188  15.978  0.4832 -0.6682 -0.5498
 7298TIP3    H243386   2.801   5.263  16.043 -1.0906  0.9995  0.3970
 7299TIP3   OH243387   4.161   2.521  15.034 -0.5567 -0.0263  0.3476
 7299TIP3    H143388   4.207   2.444  15.001  0.9402  1.2139 -0.6159
 7299TIP3    H243389   4.195   2.532  15.123 -1.4266 -0.9484  0.8108
 7300TIP3   OH243390   6.205   3.276  15.846 -0.5227  0.6869 -0.5007
 7300TIP3    H143391   6.297   3.269  15.871 -0.4324  0.5730 -0.8546
 7300TIP3    H243392   6.156   3.252  15.924 -0.2555 -2.0701 -1.0846
 7301TIP3   OH243393   0.885   6.819  11.076 -0.0240 -0.0375  0.1006
 7301TIP3    H143394   0.939   6.877  11.130  0.4007  0.1291 -0.4933
 7301TIP3    H243395   0.807   6.871  11.056  0.3278  0.3120 -0.3813
 7302TIP3   OH243396   3.014   1.471  14.979  0.2327 -0.1841  0.0163
 7302TIP3    H143397   3.093   1.492  14.929  1.7906  1.1309  2.7512
 7302TIP3    H243398   2.948   1.532  14.946  1.3284  0.9411 -0.1832
 7303TIP3   OH243399   2.515   6.784  13.584  0.3767  0.5114 -0.2433
 7303TIP3    H143400   2.492   6.733  13.662 -1.7251  0.5053 -0.7861
 7303TIP3    H243401   2.582   6.731  13.540 -0.5661 -1.0012  0.0416
 7304TIP3   OH243402   4.435   5.986  11.581  0.3565 -0.4718  0.3007
 7304TIP3    H143403   4.420   6.080  11.589  2.4132 -0.0157 -0.5488
 7304TIP3    H243404   4.415   5.965  11.490  0.1429 -0.8185  0.4215
 7305TIP3   OH243405   2.873   2.321  14.959 -0.0180 -0.2194  0.1523
 7305TIP3    H143406   2.926   2.375  14.900 -0.5592  1.5689  1.2457
 7305TIP3    H243407   2.926   2.313  15.038  0.6450 -2.4984 -0.4447
 7306TIP3   OH243408   6.514   6.676   0.700  0.2859 -0.1091 -0.5154
 7306TIP3    H143409   6.565   6.754   0.677  0.2474  0.1019  0.0754
 7306TIP3    H243410   6.466   6.654   0.621  0.0348  0.6832 -0.5921
 7307TIP3   OH243411   5.831   3.465  11.223  0.0984  0.3722 -0.7415
 7307TIP3    H143412   5.919   3.500  11.206  0.1951  0.1706 -0.6677
 7307TIP3    H243413   5.848   3.382  11.268 -0.1382  1.5110  1.5834
 7308TIP3   OH243414   2.662   4.358  13.539  0.0711  0.1386 -0.1208
 7308TIP3    H143415   2.580   4.383  13.495 -0.2291 -0.3662  0.1454
 7308TIP3    H243416   2.647   4.269  13.569  0.5462  0.2131  0.3581
 7309TIP3   OH243417   5.486   0.112  14.723 -0.2461 -0.2858 -0.8449
 7309TIP3    H143418   5.410   0.054  14.716 -0.6458  0.2825 -1.3185
 7309TIP3    H243419   5.554   0.068  14.673  0.1016 -1.3502  0.5065
 7310TIP3   OH243420   1.763   2.208   2.047  0.0825  0.7068 -0.2351
 7310TIP3    H143421   1.792   2.130   2.094 -0.2186  1.7247  1.7597
 7310TIP3    H243422   1.844   2.252   2.023  0.2449  0.1092 -0.8060
 7311TIP3   OH243423   4.548   6.344  12.124 -0.3478 -0.2111 -0.1517
 7311TIP3    H143424   4.630   6.338  12.076  0.4835  1.4604  0.9652
 7311TIP3    H243425   4.568   6.311  12.211 -1.2971 -1.2503 -0.2978
 7312TIP3   OH243426   1.725   6.169  10.610 -0.3923  0.3393  0.4753
 7312TIP3    H143427   1.739   6.259  10.640 -2.9838  0.6750  0.9950
 7312TIP3    H243428   1.651   6.139  10.663  0.6499 -2.2680  0.5777
 7313TIP3   OH243429   0.109   2.373   6.753 -0.3836  0.4182  0.0931
 7313TIP3    H143430   0.177   2.312   6.782  0.3076  0.3842 -1.5324
 7313TIP3    H243431   0.140   2.407   6.669 -1.1514  2.3908  0.5410
 7314TIP3   OH243432   1.875   5.684  15.214  0.0260  0.2105 -0.1904
 7314TIP3    H143433   1.856   5.760  15.159  1.6753 -0.3648 -1.6557
 7314TIP3    H243434   1.971   5.685  15.224 -0.1548 -0.0659  2.2002
 7315TIP3   OH243435   4.446   2.586   5.707  0.0967  0.4215 -0.4439
 7315TIP3    H143436   4.361   2.551   5.733 -1.1624  3.2863 -0.3287
 7315TIP3    H243437   4.490   2.607   5.789  0.2989  0.3216 -0.5250
 7316TIP3   OH243438   1.108   6.770   5.326 -0.0177  0.3343  0.8189
 7316TIP3    H143439   1.128   6.736   5.238  1.0111  0.5809  0.9469
 7316TIP3    H243440   1.018   6.744   5.341  0.6757 -2.3110  0.8960
 7317TIP3   OH243441   1.093   6.241  14.873  0.0747  0.3354 -0.8305
 7317TIP3    H143442   1.180   6.222  14.837  0.9078 -0.7781  1.5903
 7317TIP3    H243443   1.056   6.305  14.812  1.0383 -1.8938 -4.0382
 7318TIP3   OH243444   1.048   4.013  11.742 -0.3790 -0.5644  0.8154
 7318TIP3    H143445   1.031   3.920  11.761 -0.4663 -0.8564 -0.6092
 7318TIP3    H243446   0.964   4.056  11.759 -0.9155 -1.0738 -0.3939
 7319TIP3   OH243447   6.170   0.463  13.172 -0.4184 -0.6231 -0.0616
 7319TIP3    H143448   6.088   0.512  13.181 -0.1684 -0.0167 -0.9762
 7319TIP3    H243449   6.170   0.434  13.080 -0.2380 -1.7751  0.2805
 7320TIP3   OH243450   3.331   5.597   4.089  0.7455 -0.4986 -0.1767
 7320TIP3    H143451   3.300   5.551   4.168 -0.7876  0.4868 -0.1744
 7320TIP3    H243452   3.334   5.689   4.115 -1.5457  0.1022 -1.7286
 7321TIP3   OH243453   3.183   4.066  14.173 -0.6458  0.3707 -0.4877
 7321TIP3    H143454   3.250   4.004  14.144 -2.0260 -0.8629 -1.1367
 7321TIP3    H243455   3.218   4.101  14.256  0.4674 -0.7661 -0.4352
 7322TIP3   OH243456   2.024   6.450  14.782 -0.6922  0.5100  0.0538
 7322TIP3    H143457   2.118   6.454  14.768 -0.8365  1.0710 -0.8179
 7322TIP3    H243458   2.010   6.364  14.821  0.4267  1.3339  2.4263
 7323TIP3   OH243459   1.312   5.550   6.266  0.0093 -0.1683 -0.1430
 7323TIP3    H143460   1.382   5.520   6.209 -0.2017  0.9249 -1.0050
 7323TIP3    H243461   1.329   5.506   6.350  1.1954 -0.6090 -0.5925
 7324TIP3   OH243462   0.932   1.064   5.553 -0.1645 -0.1208  0.6631
 7324TIP3    H143463   0.836   1.065   5.556 -0.2505  0.0750 -1.3233
 7324TIP3    H243464   0.956   1.156   5.561 -0.1714 -0.0900  0.3131
 7325TIP3   OH243465   2.644   3.313  14.237  0.0414  0.3212 -0.2222
 7325TIP3    H143466   2.730   3.355  14.245  1.3084 -2.2371  0.3736
 7325TIP3    H243467   2.583   3.387  14.232  1.9873  2.2633  2.0681
 7326TIP3   OH243468   2.488   3.571   1.587 -0.0066 -0.0846  0.2521
 7326TIP3    H143469   2.475   3.491   1.536 -1.1862  0.4121 -0.2622
 7326TIP3    H243470   2.421   3.631   1.555  0.3882  0.8602  1.1445
 7327TIP3   OH243471   3.521   5.575   0.161 -0.1009 -0.1809 -0.6172
 7327TIP3    H143472   3.509   5.505   0.225  0.3378  1.2493  1.1005
 7327TIP3    H243473   3.595   5.546   0.107 -0.0106 -1.0977 -0.0161
 7328TIP3   OH243474   1.818   2.969   3.692  0.5316 -0.5328 -0.1397
 7328TIP3    H143475   1.766   3.009   3.761  1.2168 -1.9262  1.2597
 7328TIP3    H243476   1.774   2.994   3.610 -0.6634  0.6463  0.8253
 7329TIP3   OH243477   4.525   2.627   6.319  0.2356  0.1675 -0.6985
 7329TIP3    H143478   4.607   2.673   6.305  0.5529 -0.7881 -2.3282
 7329TIP3    H243479   4.550   2.535   6.331 -0.4700  0.1654  1.0151
 7330TIP3   OH243480   2.550   3.466  15.636  0.1788  0.4194  0.8449
 7330TIP3    H143481   2.584   3.476  15.547  0.0384 -0.0801  0.7359
 7330TIP3    H243482   2.467   3.514  15.636 -1.8030 -2.6834 -0.4155
 7331TIP3   OH243483   5.288   5.063   5.083 -0.2819 -0.1862 -0.0327
 7331TIP3    H143484   5.248   5.007   5.149  1.5789  0.6094  1.8848
 7331TIP3    H243485   5.235   5.143   5.083 -0.6545 -0.4315  0.0347
 7332TIP3   OH243486   4.186   1.846   2.643  0.5857  0.2544 -0.2741
 7332TIP3    H143487   4.192   1.759   2.605  1.3474 -0.1786  0.7920
 7332TIP3    H243488   4.219   1.836   2.732 -0.3294  1.4074  0.2323
 7333TIP3   OH243489   1.735   5.308  10.490 -0.1933  0.1909  0.4261
 7333TIP3    H143490   1.723   5.224  10.446 -2.5822  1.2325 -1.0966
 7333TIP3    H243491   1.650   5.350  10.485  0.7533  2.4366  1.7952
 7334TIP3   OH243492   2.087   0.471  12.626 -0.4757  0.3156  0.2311
 7334TIP3    H143493   2.073   0.413  12.701  0.1935 -1.4214 -0.9160
 7334TIP3    H243494   2.182   0.475  12.617 -0.5563 -0.2036 -1.0111
 7335TIP3   OH243495   2.501   2.042   6.649  0.2184 -0.2858  0.2628
 7335TIP3    H143496   2.549   2.051   6.732 -0.6632  0.8068  0.6688
 7335TIP3    H243497   2.433   1.978   6.668 -0.7034  0.8032  0.7452
 7336TIP3   OH243498   4.736   4.695   5.635  0.3723  0.3566  0.3872
 7336TIP3    H143499   4.779   4.767   5.588  1.5553 -1.1134 -0.8796
 7336TIP3    H243500   4.749   4.618   5.579 -2.8619 -0.4646  0.5735
 7337TIP3   OH243501   4.890   1.791   1.332 -0.9978  0.0373  0.6593
 7337TIP3    H143502   4.884   1.716   1.392  2.3896 -2.3996 -1.6945
 7337TIP3    H243503   4.978   1.825   1.346 -0.7319  0.4482 -1.7467
 7338TIP3   OH243504   6.708   3.372  12.570 -0.1506  0.4483 -0.6866
 7338TIP3    H143505   6.754   3.444  12.613  2.0855 -1.5034  0.4218
 7338TIP3    H243506   6.754   3.361  12.487 -0.2083  0.0510 -0.6673
 7339TIP3   OH243507   2.596   0.547   3.675  0.5711 -0.3278 -0.6061
 7339TIP3    H143508   2.595   0.486   3.601 -0.7660 -0.6207 -0.3788
 7339TIP3    H243509   2.567   0.630   3.638  0.4585 -0.3286 -0.5188
 7340TIP3   OH243510   1.153   1.360  10.504 -0.6387 -0.6803  0.5034
 7340TIP3    H143511   1.233   1.345  10.454 -0.5392 -1.3947  0.8606
 7340TIP3    H243512   1.183   1.373  10.594 -0.9546 -1.4910  0.7329
 7341TIP3   OH243513   3.327   6.283  16.074  0.2936  0.3197 -0.5312
 7341TIP3    H143514   3.391   6.289  16.002 -0.4962 -1.3140 -1.4156
 7341TIP3    H243515   3.242   6.295  16.032 -0.0428  3.2705  0.7460
 7342TIP3   OH243516   2.840   6.444   1.498  0.7262  0.1730 -0.0021
 7342TIP3    H143517   2.804   6.369   1.546  0.2596  0.8829  0.7793
 7342TIP3    H243518   2.881   6.405   1.421 -2.2959 -0.6982 -1.3376
 7343TIP3   OH243519   6.011   1.922   4.615  0.1889 -0.5475 -0.0375
 7343TIP3    H143520   5.956   1.900   4.690 -1.3482 -2.2351 -1.5485
 7343TIP3    H243521   5.989   2.013   4.595 -0.8521 -0.6913  0.3870
 7344TIP3   OH243522   1.635   1.267   0.860  0.0229 -0.0603  0.3512
 7344TIP3    H143523   1.616   1.268   0.766  1.8825  2.8882 -0.1161
 7344TIP3    H243524   1.584   1.340   0.896 -0.3013 -0.8609  1.5945
 7345TIP3   OH243525   3.991   2.049  17.155  0.5046  0.5738 -0.4892
 7345TIP3    H143526   3.898   2.026  17.148  0.6048  0.4748 -1.6871
 7345TIP3    H243527   4.036   1.981  17.105  1.2550  0.4809  0.2838
 7346TIP3   OH243528   0.996   0.660   1.737  0.0997  0.2777  0.4334
 7346TIP3    H143529   0.959   0.732   1.686  0.0693  0.1707  0.3028
 7346TIP3    H243530   0.921   0.608   1.764  0.1519  0.0600  0.1669
 7347TIP3   OH243531   0.127   4.906   6.361  0.4714  0.1204  0.7119
 7347TIP3    H143532   0.178   4.984   6.339 -1.6667  0.5948 -3.8062
 7347TIP3    H243533   0.177   4.834   6.324 -0.7493  0.3233 -1.5464
 7348TIP3   OH243534   6.688   4.911  13.744  0.2343  0.0024 -0.6217
 7348TIP3    H143535   6.650   4.917  13.656  1.4213 -0.6827 -1.2070
 7348TIP3    H243536   6.616   4.936  13.802 -1.0950 -1.1572 -1.6749
 7349TIP3   OH243537   4.686   0.314  13.329  0.2414  0.3435 -0.5002
 7349TIP3    H143538   4.664   0.229  13.291  1.4660  0.5681 -1.8412
 7349TIP3    H243539   4.603   0.349  13.361 -0.3580 -1.1384 -0.3473
 7350TIP3   OH243540   1.355   1.604  14.654  0.3625 -0.4103  0.1936
 7350TIP3    H143541   1.265   1.632  14.634  0.4495 -0.0066  0.3588
 7350TIP3    H243542   1.375   1.646  14.738  1.0150  0.2139 -0.2642
 7351TIP3   OH243543   0.242   1.982   2.307  0.1923  0.1809  0.5719
 7351TIP3    H143544   0.324   1.992   2.258  1.3683  0.5619  2.4630
 7351TIP3    H243545   0.254   1.902   2.358 -1.4172 -0.7765 -0.4737
 7352TIP3   OH243546   5.533   6.667   5.605  0.6818  0.6847 -0.3284
 7352TIP3    H143547   5.478   6.641   5.679  1.0636 -0.1453 -0.3316
 7352TIP3    H243548   5.474   6.712   5.545 -0.0242 -0.3506 -0.4118
 7353TIP3   OH243549   0.446   2.088  16.490 -0.1441  0.0992  0.1672
 7353TIP3    H143550   0.381   2.045  16.433  0.7181 -1.9845  0.6488
 7353TIP3    H243551   0.523   2.031  16.485  0.3909  0.5298  2.4461
 7354TIP3   OH243552   1.603   5.174  14.634  0.0760 -0.3646  0.1325
 7354TIP3    H143553   1.522   5.167  14.685  0.8698  0.5618  1.5909
 7354TIP3    H243554   1.604   5.263  14.600  1.5846  0.4940  2.1910
 7355TIP3   OH243555   2.426   4.944   5.323 -0.4576 -0.0102  0.0470
 7355TIP3    H143556   2.479   4.868   5.343 -1.0405 -0.2229  0.8411
 7355TIP3    H243557   2.346   4.909   5.284 -0.4956  0.2328 -0.1006
 7356TIP3   OH243558   5.268   0.435   4.122 -0.2679  0.2163  0.2510
 7356TIP3    H143559   5.229   0.522   4.120 -0.3464  0.2139  1.1398
 7356TIP3    H243560   5.333   0.439   4.193  1.4363  0.2454 -1.2213
 7357TIP3   OH243561   0.134   6.335  16.307  0.3143  0.4482  0.3328
 7357TIP3    H143562   0.046   6.296  16.299 -0.1014  0.9877  1.8023
 7357TIP3    H243563   0.142   6.392  16.231 -0.0885 -0.5583 -0.4989
 7358TIP3   OH243564   2.026   3.924  11.336  0.2528 -0.2652 -0.2409
 7358TIP3    H143565   2.088   3.905  11.406 -0.3106 -1.3071 -0.0189
 7358TIP3    H243566   1.954   3.970  11.379  0.1926 -0.3498 -0.2529
 7359TIP3   OH243567   4.461   5.187  14.065  0.1534  0.5922  0.7445
 7359TIP3    H143568   4.374   5.149  14.049  0.4973  0.3765 -0.8003
 7359TIP3    H243569   4.498   5.132  14.134 -0.0190 -0.8838 -0.2796
 7360TIP3   OH243570   0.085   2.774   3.877 -0.1397  0.6880  0.1076
 7360TIP3    H143571   0.093   2.841   3.809 -1.2644  2.2770  1.4502
 7360TIP3    H243572  -0.009   2.773   3.898 -0.8577 -3.7813 -2.1697
 7361TIP3   OH243573   6.362   5.166   1.962 -0.0188 -0.0754 -0.1137
 7361TIP3    H143574   6.452   5.197   1.950 -0.7064  1.0326 -3.1201
 7361TIP3    H243575   6.311   5.213   1.897 -3.0544  0.1782  2.2272
 7362TIP3   OH243576   0.527   6.420  16.687  1.0880  0.3748 -0.5626
 7362TIP3    H143577   0.441   6.422  16.646  0.1570 -1.2123  1.1460
 7362TIP3    H243578   0.548   6.511  16.704 -0.3323  0.7870 -0.8740
 7363TIP3   OH243579   3.583   5.260   2.885  0.5174 -0.5436 -0.3434
 7363TIP3    H143580   3.653   5.231   2.827 -0.1225  0.6252 -1.7562
 7363TIP3    H243581   3.539   5.331   2.838  0.1771  0.7217  1.7235
 7364TIP3   OH243582   0.377   4.429   0.507  0.3901 -0.5821 -0.1523
 7364TIP3    H143583   0.392   4.409   0.415 -1.4613 -2.9403 -0.0628
 7364TIP3    H243584   0.453   4.393   0.552  1.6083  1.1387 -0.7422
 7365TIP3   OH243585   0.610   5.014  16.548 -0.0154  0.1968  0.9200
 7365TIP3    H143586   0.689   4.996  16.600 -0.8904 -1.4423  1.7511
 7365TIP3    H243587   0.639   5.003  16.458  0.8647  0.2383  1.1814
 7366TIP3   OH243588   3.313   1.425  11.902 -0.5225  0.4126 -0.1157
 7366TIP3    H143589   3.318   1.329  11.903  0.1755  0.4356  1.1271
 7366TIP3    H243590   3.318   1.450  11.995  0.4020  1.7028 -0.4898
 7367TIP3   OH243591   6.793   4.399   3.975  0.1676  0.2782 -0.3874
 7367TIP3    H143592   6.885   4.413   3.952  0.2993 -0.5218 -0.3744
 7367TIP3    H243593   6.746   4.411   3.892  0.5377 -1.5883 -0.9139
 7368TIP3   OH243594   3.597   5.871   0.630 -0.4019  0.0395 -0.4654
 7368TIP3    H143595   3.681   5.880   0.586  0.2308 -0.7251  0.5387
 7368TIP3    H243596   3.543   5.820   0.569 -0.8827  2.2558 -2.0208
 7369TIP3   OH243597   4.350   3.749   6.212  0.2102 -0.1756  0.1266
 7369TIP3    H143598   4.335   3.784   6.124  0.3219 -0.1653  0.1113
 7369TIP3    H243599   4.272   3.697   6.231 -1.0735  1.9983  1.1197
 7370TIP3   OH243600   4.200   4.768   0.177 -0.3254  0.5802  0.0889
 7370TIP3    H143601   4.273   4.816   0.215 -0.3737  0.7893 -0.0829
 7370TIP3    H243602   4.238   4.684   0.149 -0.2140  0.5740  0.2607
 7371TIP3   OH243603   2.872   6.189   5.015  0.1550 -0.0181  0.1817
 7371TIP3    H143604   2.889   6.094   5.019 -1.6790 -0.3890  0.1443
 7371TIP3    H243605   2.791   6.196   4.965 -0.3913  1.4846  1.2364
 7372TIP3   OH243606   3.365   4.989   0.961 -0.7672 -0.7236 -0.2589
 7372TIP3    H143607   3.347   5.080   0.940 -0.9407 -0.7523 -0.2395
 7372TIP3    H243608   3.339   4.980   1.053 -2.1083 -1.1413 -0.6497
 7373TIP3   OH243609   2.458   6.153   2.969 -0.5510 -0.2532 -0.2428
 7373TIP3    H143610   2.467   6.130   2.877 -1.2442  0.4981 -0.5002
 7373TIP3    H243611   2.494   6.077   3.016 -1.6995 -1.3582 -1.0963
 7374TIP3   OH243612   4.424   0.188  11.016 -0.1020  0.0534  0.1778
 7374TIP3    H143613   4.336   0.154  11.028  0.1298 -0.3279  0.9109
 7374TIP3    H243614   4.471   0.118  10.971 -0.2138  0.3189 -0.3520
 7375TIP3   OH243615   0.720   4.814  15.550 -0.1539 -0.3426 -0.4964
 7375TIP3    H143616   0.728   4.909  15.554 -1.8728 -0.1910  1.3872
 7375TIP3    H243617   0.781   4.782  15.617 -1.5135 -0.3232  0.8253
 7376TIP3   OH243618   4.396   6.434   2.250 -0.8114  0.1241 -0.7312
 7376TIP3    H143619   4.307   6.426   2.284  0.0374 -0.1363  1.5811
 7376TIP3    H243620   4.427   6.518   2.283  0.3449 -0.5268 -0.1121
 7377TIP3   OH243621   4.511   3.817   2.292 -0.0399  0.5708 -0.3501
 7377TIP3    H143622   4.559   3.756   2.235 -0.3253  0.6890 -0.7186
 7377TIP3    H243623   4.556   3.811   2.376 -1.0703 -1.4390  0.1273
 7378TIP3   OH243624   5.464   0.747  12.541 -0.0349 -0.1660 -0.2086
 7378TIP3    H143625   5.424   0.663  12.518 -0.8435  0.0061  0.5257
 7378TIP3    H243626   5.391   0.800  12.572  0.7114  0.2974  0.7871
 7379TIP3   OH243627   1.792   1.064  15.029 -0.6857 -0.5561 -0.1233
 7379TIP3    H143628   1.828   1.034  14.945 -1.4813  1.6762 -1.3372
 7379TIP3    H243629   1.764   0.984  15.073 -0.2871 -1.7941 -1.9962
 7380TIP3   OH243630   4.958   2.928  15.078  0.4684 -0.7350  0.3944
 7380TIP3    H143631   4.928   3.018  15.085 -0.8416 -1.0467 -0.8153
 7380TIP3    H243632   5.026   2.920  15.146 -0.6081  0.6424  1.7047
 7381TIP3   OH243633   3.778   1.033  16.812 -0.3920 -0.0403  0.1816
 7381TIP3    H143634   3.707   0.974  16.788 -0.7796 -0.4727  2.1722
 7381TIP3    H243635   3.849   0.976  16.841 -0.2755  0.4227  0.8467
 7382TIP3   OH243636   6.587   0.052   5.085  0.0028 -0.2531 -0.3216
 7382TIP3    H143637   6.492   0.060   5.094 -0.0923  3.1462 -2.4874
 7382TIP3    H243638   6.622   0.085   5.168 -0.7377  0.5943 -0.3306
 7383TIP3   OH243639   2.779   4.029  14.697  0.0877 -0.4556  0.2174
 7383TIP3    H143640   2.841   3.957  14.692  1.8710  0.9931  0.5226
 7383TIP3    H243641   2.818   4.098  14.644  0.4883  1.7050  3.1317
 7384TIP3   OH243642   4.699   6.434  11.871 -0.1851  0.0833 -0.1325
 7384TIP3    H143643   4.760   6.482  11.928  0.5329 -0.7312 -0.2028
 7384TIP3    H243644   4.746   6.354  11.847 -0.3625  0.5234 -2.1043
 7385TIP3   OH243645   2.718   3.335   5.081 -0.3552 -0.3944  0.1482
 7385TIP3    H143646   2.642   3.306   5.031  0.3221 -1.4379 -0.3228
 7385TIP3    H243647   2.766   3.254   5.100  2.0550  0.4114 -1.9292
 7386TIP3   OH243648   6.359   1.081  13.769  0.8633 -0.5758  0.6100
 7386TIP3    H143649   6.301   1.006  13.761  1.0667 -0.6325 -0.4926
 7386TIP3    H243650   6.431   1.063  13.708  1.4068  0.0616  1.0430
 7387TIP3   OH243651   4.276   2.854  16.156  0.2122  0.3578  0.2111
 7387TIP3    H143652   4.274   2.759  16.144  0.9072  0.5019 -1.3714
 7387TIP3    H243653   4.340   2.885  16.092  0.7542  1.8131  1.3968
 7388TIP3   OH243654   3.388   1.046   3.791 -0.1566 -0.0469  0.3995
 7388TIP3    H143655   3.406   0.985   3.862 -0.2841  0.2682  0.7062
 7388TIP3    H243656   3.463   1.039   3.732 -0.5420 -1.0961  0.0064
 7389TIP3   OH243657   1.247   3.028  11.756  0.2646  0.4792 -0.4400
 7389TIP3    H143658   1.324   2.997  11.804  1.0333  2.5669 -0.2322
 7389TIP3    H243659   1.178   2.967  11.781  1.3577 -0.2690  0.9478
 7390TIP3   OH243660   2.702   6.619   1.816 -0.7797  0.3874 -0.2342
 7390TIP3    H143661   2.664   6.695   1.860  1.4413  1.4865 -0.1273
 7390TIP3    H243662   2.717   6.648   1.726  0.4164  0.2034 -0.1032
 7391TIP3   OH243663   0.186   1.008   0.010 -0.3309 -0.0596 -0.3069
 7391TIP3    H143664   0.251   0.959  -0.041  1.3283  2.0852 -0.3775
 7391TIP3    H243665   0.121   1.035  -0.054 -0.0963 -0.3274 -0.6652
 7392TIP3   OH243666   0.889   4.077  14.807 -0.5259  0.2409 -0.1981
 7392TIP3    H143667   0.880   4.060  14.901  1.1348  0.6857  0.0865
 7392TIP3    H243668   0.880   4.172  14.799 -0.6207  0.2091 -0.4709
 7393TIP3   OH243669   0.740   2.162  16.885 -0.2287  0.1306  0.2925
 7393TIP3    H143670   0.683   2.122  16.819 -0.4951 -0.7037  0.9966
 7393TIP3    H243671   0.711   2.123  16.968  0.1696  1.0727  0.8920
 7394TIP3   OH243672   2.155   2.010   5.766 -0.1719  0.2343  0.2697
 7394TIP3    H143673   2.160   2.070   5.692  3.4458 -0.1398 -0.0013
 7394TIP3    H243674   2.149   2.066   5.843 -1.4597  0.7104 -0.1497
 7395TIP3   OH243675   4.554   4.724  16.421  0.0207  0.1062 -0.6070
 7395TIP3    H143676   4.520   4.774  16.347  1.4882  1.3362 -0.5139
 7395TIP3    H243677   4.631   4.774  16.450  0.1185 -0.9299  1.0547
 7396TIP3   OH243678   6.330   2.215  13.247 -0.2455 -0.5032  0.6200
 7396TIP3    H143679   6.362   2.285  13.303 -1.9169  0.3692  0.5625
 7396TIP3    H243680   6.238   2.205  13.271 -0.3281 -1.9255 -0.1544
 7397TIP3   OH243681   1.487   5.285   6.164  0.5576 -0.6158 -0.6628
 7397TIP3    H143682   1.553   5.216   6.168  0.8935 -0.2687 -0.0308
 7397TIP3    H243683   1.415   5.254   6.219  1.1062 -0.0597  0.3869
 7398TIP3   OH243684   5.846   6.081  16.598  0.1382  0.1091 -0.6693
 7398TIP3    H143685   5.846   5.994  16.637 -0.5624  0.1315 -0.5946
 7398TIP3    H243686   5.753   6.099  16.581  0.3527  0.4592 -1.5302
 7399TIP3   OH243687   1.115   5.209   5.035  0.5101  0.4251 -0.1049
 7399TIP3    H143688   1.044   5.245   4.983 -0.5273 -0.5111  0.6305
 7399TIP3    H243689   1.171   5.165   4.972 -1.1001 -1.3030 -0.4069
 7400TIP3   OH243690   2.576   1.398   3.338  0.5981 -0.0059 -0.3602
 7400TIP3    H143691   2.563   1.484   3.378  0.5808  0.3015 -1.0146
 7400TIP3    H243692   2.584   1.338   3.413 -1.1407  0.2903  0.1097
 7401TIP3   OH243693   5.100   4.732  11.256  0.6861 -0.0934 -0.1512
 7401TIP3    H143694   5.131   4.808  11.305 -1.7739  0.8752  0.0480
 7401TIP3    H243695   5.166   4.665  11.271  1.3649  1.0204  2.2789
 7402TIP3   OH243696   2.480   3.208  12.858 -0.3412  0.0090  0.3444
 7402TIP3    H143697   2.443   3.215  12.770  0.7527 -2.5553 -0.4267
 7402TIP3    H243698   2.419   3.256  12.914 -3.0065 -1.2359 -1.2994
 7403TIP3   OH243699   1.691   2.400   5.746  0.0399 -0.8145  0.4195
 7403TIP3    H143700   1.603   2.436   5.734 -0.6098 -2.1548  0.9414
 7403TIP3    H243701   1.749   2.468   5.713 -1.1248  0.5738  1.0989
 7404TIP3   OH243702   5.424   3.726   4.843 -0.2425  0.0881  0.4799
 7404TIP3    H143703   5.411   3.768   4.928 -0.8215 -0.9279  0.9176
 7404TIP3    H243704   5.387   3.638   4.854  0.5718 -0.4058 -0.5198
 7405TIP3   OH243705   6.104   4.049  12.280 -0.1220 -0.1848 -0.1382
 7405TIP3    H143706   6.056   3.973  12.314  0.1638 -0.6708 -0.7937
 7405TIP3    H243707   6.058   4.125  12.317  0.3984 -0.6722  1.6420
 7406TIP3   OH243708   6.209   3.876  10.730 -0.2186 -0.1596 -0.1904
 7406TIP3    H143709   6.229   3.807  10.794  0.7243  1.0799  0.9220
 7406TIP3    H243710   6.208   3.956  10.782 -0.3922  0.7755 -1.5963
 7407TIP3   OH243711   2.357   4.875  16.014 -0.1188  0.4135  0.3398
 7407TIP3    H143712   2.404   4.841  15.937 -0.4539  2.5201 -0.8753
 7407TIP3    H243713   2.408   4.844  16.089  0.5386 -1.2361 -0.7374
 7408TIP3   OH243714   5.739   2.273   5.188  0.1458 -0.5753 -0.0526
 7408TIP3    H143715   5.800   2.302   5.120  0.0727 -2.2207 -0.8819
 7408TIP3    H243716   5.653   2.278   5.147 -0.1308  0.3498  0.6237
 7409TIP3   OH243717   1.998   4.226   0.785 -0.3505  0.3046  0.1005
 7409TIP3    H143718   2.056   4.161   0.824  0.8886 -0.2560 -2.4694
 7409TIP3    H243719   2.056   4.286   0.739 -1.7167  0.2046 -1.8953
 7410TIP3   OH243720   0.873   0.699   0.452 -0.1248  0.4767 -0.2188
 7410TIP3    H143721   0.941   0.710   0.518 -0.6918 -1.0710  0.6842
 7410TIP3    H243722   0.913   0.728   0.371  1.9259 -1.1203  0.1493
 7411TIP3   OH243723   3.449   3.653   0.869 -0.2063 -0.0667  0.0071
 7411TIP3    H143724   3.487   3.740   0.884 -0.8666  0.5020 -1.4611
 7411TIP3    H243725   3.516   3.606   0.818 -0.7742  0.3975 -1.2078
 7412TIP3   OH243726   3.023   3.889   0.363  0.5958 -0.3099 -0.3440
 7412TIP3    H143727   3.030   3.794   0.358 -0.2506 -0.4072  0.1142
 7412TIP3    H243728   3.083   3.914   0.433  2.0464 -0.3240 -1.5305
 7413TIP3   OH243729   4.415   6.214  12.447 -0.3570 -0.3904 -0.1581
 7413TIP3    H143730   4.329   6.222  12.487  0.6104 -0.8552  2.2335
 7413TIP3    H243731   4.476   6.239  12.517  1.4653 -0.1094 -1.7433
 7414TIP3   OH243732   6.067   3.790   6.310 -0.1627 -0.2074  0.1611
 7414TIP3    H143733   6.055   3.803   6.404  0.0158 -0.5414  0.2321
 7414TIP3    H243734   5.981   3.805   6.272 -0.3491 -0.5655  0.4344
 7415TIP3   OH243735   5.473   3.294  13.480  0.0870  0.2858  0.9634
 7415TIP3    H143736   5.564   3.306  13.506  0.2422 -1.7490  1.4608
 7415TIP3    H243737   5.475   3.221  13.418 -0.8506  2.1975 -1.5152
 7416TIP3   OH243738   3.150   3.365  16.281 -0.1319 -0.2665  0.0046
 7416TIP3    H143739   3.065   3.367  16.326  0.0446  0.2105  0.3269
 7416TIP3    H243740   3.156   3.276  16.245 -0.2771 -0.6621  0.9261
 7417TIP3   OH243741   4.793   4.779  16.572  0.3246 -0.0664  0.0340
 7417TIP3    H143742   4.783   4.728  16.652 -0.7752 -1.2221 -0.8013
 7417TIP3    H243743   4.771   4.869  16.599 -0.4164 -0.5022  0.9570
 7418TIP3   OH243744   3.516   2.918  11.558  0.1700  0.1573 -0.2929
 7418TIP3    H143745   3.564   2.879  11.631 -2.1028  0.5191  1.5203
 7418TIP3    H243746   3.522   2.853  11.488  0.9932 -0.9804  0.7953
 7419TIP3   OH243747   4.568   5.483   5.339 -0.3022 -0.9113  0.3082
 7419TIP3    H143748   4.659   5.508   5.356 -0.2958  1.0417 -2.0473
 7419TIP3    H243749   4.572   5.428   5.262 -1.0214 -2.3005  1.2291
 7420TIP3   OH243750   6.031   1.519  15.094  0.4594 -0.2112 -1.0299
 7420TIP3    H143751   5.968   1.545  15.026 -0.5231 -0.6932 -0.3176
 7420TIP3    H243752   6.074   1.442  15.058 -1.2013 -1.4444 -0.4642
 7421TIP3   OH243753   2.234   1.371  12.556 -0.4348  0.7810 -0.0761
 7421TIP3    H143754   2.226   1.414  12.641 -0.7532  0.1199  0.2382
 7421TIP3    H243755   2.230   1.443  12.493 -0.2058  1.2787  0.4615
 7422TIP3   OH243756   3.536   0.006  10.443 -0.1677  0.0080  0.5028
 7422TIP3    H143757   3.450   0.000  10.402 -0.0660  2.1106 -0.1514
 7422TIP3    H243758   3.596  -0.032  10.379 -0.3546  0.6734 -0.0784
 7423TIP3   OH243759   2.528   4.630   5.699 -0.2922  0.1937  0.3507
 7423TIP3    H143760   2.465   4.648   5.769 -0.9019 -1.0208  0.1452
 7423TIP3    H243761   2.484   4.566   5.643  1.2638 -1.0005  0.4150
 7424TIP3   OH243762   2.262   4.160  12.326  0.5098  0.4947  0.2282
 7424TIP3    H143763   2.268   4.065  12.315 -0.0862  0.2168  1.9190
 7424TIP3    H243764   2.232   4.171  12.416 -1.2063  2.2554 -0.4988
 7425TIP3   OH243765   5.866   5.570  15.726 -0.0793  0.6401 -0.2864
 7425TIP3    H143766   5.841   5.655  15.690  0.2862  0.6525 -0.5242
 7425TIP3    H243767   5.809   5.507  15.682 -0.4014  0.7674 -0.0545
 7426TIP3   OH243768   0.557   1.600  14.971  0.6363 -0.2438  0.2819
 7426TIP3    H143769   0.506   1.642  15.040  1.2509  0.7150  0.1599
 7426TIP3    H243770   0.503   1.607  14.893  0.9402  0.7769  0.1521
 7427TIP3   OH243771   4.415   5.618   3.208 -0.0071 -0.2176 -0.2834
 7427TIP3    H143772   4.468   5.539   3.198 -0.2081 -0.2717 -0.9762
 7427TIP3    H243773   4.460   5.668   3.276 -0.6640 -1.5715  1.2180
 7428TIP3   OH243774   2.606   6.264   3.567  0.2252  0.4819 -0.0762
 7428TIP3    H143775   2.682   6.307   3.606  0.5078  1.0914 -1.2596
 7428TIP3    H243776   2.630   6.171   3.564  1.2464  0.7511 -1.0992
 7429TIP3   OH243777   2.043   1.357  13.491  0.0847 -0.2820 -0.1926
 7429TIP3    H143778   2.131   1.380  13.519  0.2301  0.1942 -1.0235
 7429TIP3    H243779   2.027   1.409  13.412 -0.4970 -1.2086 -0.7204
 7430TIP3   OH243780   5.692   4.616   2.740  0.5725  0.0674 -0.7202
 7430TIP3    H143781   5.607   4.660   2.729  0.0912 -0.7200 -0.2498
 7430TIP3    H243782   5.669   4.524   2.750  1.3677  0.0343  1.0239
 7431TIP3   OH243783   5.802   2.849  16.822  0.1814 -1.1119 -0.3781
 7431TIP3    H143784   5.800   2.944  16.808 -2.9218 -0.6779  2.0109
 7431TIP3    H243785   5.751   2.812  16.750  0.2496 -0.8539 -0.5588
 7432TIP3   OH243786   4.846   5.164  15.632 -0.5098  0.4671  0.4029
 7432TIP3    H143787   4.767   5.155  15.686 -0.7068 -5.0739 -0.2656
 7432TIP3    H243788   4.918   5.137  15.689  0.1761  0.6079 -0.3689
 7433TIP3   OH243789   6.270   3.275  16.317  0.3216  0.3799 -0.6721
 7433TIP3    H143790   6.347   3.316  16.279 -1.5058  3.8173 -1.0563
 7433TIP3    H243791   6.228   3.344  16.368 -1.9482 -1.6378  0.4233
 7434TIP3   OH243792   3.096   0.603   5.799  0.0833  0.4482 -0.7141
 7434TIP3    H143793   3.102   0.691   5.838  0.6241 -0.0057  0.2731
 7434TIP3    H243794   3.185   0.568   5.807 -0.4630 -0.7723  0.3276
 7435TIP3   OH243795   1.313   5.943   4.718  0.0470  0.0385  0.5122
 7435TIP3    H143796   1.321   5.905   4.806 -0.9801  0.4900  0.8160
 7435TIP3    H243797   1.218   5.955   4.706  0.3014  2.7152  0.5438
 7436TIP3   OH243798   3.547   4.826  11.615 -0.2480  1.1382  0.0075
 7436TIP3    H143799   3.603   4.752  11.637 -1.3244  0.0977 -0.5964
 7436TIP3    H243800   3.606   4.901  11.610  1.2634 -0.0881 -1.6425
 7437TIP3   OH243801   4.782   5.214  16.208  0.1342 -0.3067 -0.2674
 7437TIP3    H143802   4.826   5.164  16.139  3.1787  1.2738  0.3635
 7437TIP3    H243803   4.834   5.197  16.287 -1.6566  0.0775  1.0747
 7438TIP3   OH243804   2.954   1.534   2.975 -0.2826  0.1333  0.4078
 7438TIP3    H143805   3.036   1.561   3.017  0.8523 -0.8089 -1.1042
 7438TIP3    H243806   2.894   1.520   3.048  1.7247 -1.8630  1.8085
 7439TIP3   OH243807   5.696   1.599   4.586  0.3768 -0.5518  0.0180
 7439TIP3    H143808   5.790   1.611   4.574  0.6837 -1.5064  1.2496
 7439TIP3    H243809   5.688   1.544   4.664 -1.2248 -0.0623  0.2502
 7440TIP3   OH243810   4.683   6.508  13.264  0.1087 -0.3175 -0.2244
 7440TIP3    H143811   4.607   6.491  13.320 -0.3478  0.7393 -0.4888
 7440TIP3    H243812   4.740   6.432  13.277 -0.6397 -0.7678  0.5691
 7441TIP3   OH243813   1.518   1.060  15.972  0.9926 -0.1734  0.2986
 7441TIP3    H143814   1.570   1.084  16.048 -0.6726 -1.7594  2.0614
 7441TIP3    H243815   1.492   1.144  15.933  1.3819  0.7028  1.8424
 7442TIP3   OH243816   6.045   3.319   0.606  0.5237 -0.2732 -0.4412
 7442TIP3    H143817   6.017   3.407   0.581 -1.9678 -1.4069 -2.0503
 7442TIP3    H243818   6.000   3.261   0.545  1.4910 -2.7453  1.0278
 7443TIP3   OH243819   1.177   0.676  14.262  0.5838  0.2594  0.2289
 7443TIP3    H143820   1.210   0.715  14.181 -0.1150  0.0279 -0.1690
 7443TIP3    H243821   1.197   0.741  14.329  1.2359  0.4188 -0.1120
 7444TIP3   OH243822   1.708   2.012   1.488  0.2779  0.4023  0.0213
 7444TIP3    H143823   1.687   2.031   1.396 -2.1531  1.3669  0.6933
 7444TIP3    H243824   1.713   2.098   1.529  0.4410 -0.0562  0.9792
 7445TIP3   OH243825   0.894   6.430  11.878 -0.6651  0.0318  0.4531
 7445TIP3    H143826   0.915   6.523  11.887 -0.6884  0.1843 -0.9081
 7445TIP3    H243827   0.976   6.384  11.898 -0.7173  0.3077  1.3746
 7446TIP3   OH243828   6.192   0.647   4.184  0.3270  0.0109 -0.1746
 7446TIP3    H143829   6.147   0.692   4.255  0.1081  0.2150 -0.4441
 7446TIP3    H243830   6.217   0.716   4.123 -0.4027 -0.2736 -0.8067
 7447TIP3   OH243831   0.640   1.476   5.077 -0.3248 -0.4672 -0.5015
 7447TIP3    H143832   0.673   1.428   5.001  1.4700  1.8339 -1.3077
 7447TIP3    H243833   0.612   1.561   5.042 -0.2504  0.3373  1.2757
 7448TIP3   OH243834   6.704   3.961  15.843 -0.2502 -0.5879 -0.2218
 7448TIP3    H143835   6.655   3.987  15.765  1.6773  0.4708 -1.1320
 7448TIP3    H243836   6.653   3.997  15.916 -1.1765 -0.1091 -1.0826
 7449TIP3   OH243837   3.926   3.003  13.390 -0.2483  0.7158  0.1607
 7449TIP3    H143838   3.931   2.923  13.338 -0.0195  0.6820  0.2329
 7449TIP3    H243839   4.010   3.046  13.375  0.5429 -0.1546  1.8777
 7450TIP3   OH243840   3.976   3.268   2.530 -0.0910 -0.1923  0.3679
 7450TIP3    H143841   3.884   3.247   2.513 -0.3542  1.3210 -0.2594
 7450TIP3    H243842   3.972   3.338   2.596  0.5173  0.9880 -0.8103
 7451TIP3   OH243843   2.324   5.265   5.062 -0.1456  0.1436 -0.6964
 7451TIP3    H143844   2.260   5.246   5.130 -1.0498  3.8446 -0.3324
 7451TIP3    H243845   2.408   5.241   5.101 -0.7454  1.2030  1.3775
 7452TIP3   OH243846   3.395   3.320   4.366  0.5278  0.5927  0.3310
 7452TIP3    H143847   3.316   3.368   4.392  1.2482  1.7931  0.3710
 7452TIP3    H243848   3.467   3.365   4.411  1.3912  0.4439 -0.8558
 7453TIP3   OH243849   2.901   0.704  11.478 -0.1042 -0.7676 -0.5813
 7453TIP3    H143850   2.917   0.798  11.481  0.2741 -0.7971 -1.3916
 7453TIP3    H243851   2.903   0.676  11.569  2.0623 -0.3684 -0.4496
 7454TIP3   OH243852   6.362   4.093   1.727  0.6090 -0.1213  0.0956
 7454TIP3    H143853   6.295   4.040   1.684 -0.9330  3.2456 -2.1008
 7454TIP3    H243854   6.427   4.110   1.659  1.9945 -0.5887  1.2568
 7455TIP3   OH243855   2.922   5.574   2.752  0.8558  0.7921  0.0327
 7455TIP3    H143856   2.835   5.614   2.749 -0.5146 -1.9642 -0.7660
 7455TIP3    H243857   2.942   5.553   2.661  0.5241 -2.0350  0.4972
 7456TIP3   OH243858   1.008   5.647  16.839  0.1204 -1.0500 -0.1405
 7456TIP3    H143859   1.090   5.610  16.872 -0.1672 -0.9903  0.6669
 7456TIP3    H243860   0.957   5.666  16.918  0.2990  1.1844 -0.5151
 7457TIP3   OH243861   3.573   4.777  16.009  0.1482 -0.0700  0.4791
 7457TIP3    H143862   3.552   4.852  16.064  0.5831 -0.2698  0.9348
 7457TIP3    H243863   3.666   4.760  16.026 -0.1459 -1.2375  1.0577
 7458TIP3   OH243864   1.203   5.640  16.243  0.1533  0.0900 -0.6304
 7458TIP3    H143865   1.227   5.581  16.314  0.7975 -0.0279 -0.9393
 7458TIP3    H243866   1.262   5.617  16.171 -0.1569  0.5372 -1.0387
 7459TIP3   OH243867   0.160   6.594  17.138  0.1833 -0.2538 -0.2074
 7459TIP3    H143868   0.145   6.587  17.232 -0.7915 -2.6000 -0.4661
 7459TIP3    H243869   0.073   6.610  17.101  0.5424  0.5408 -0.7401
 7460TIP3   OH243870   1.381   3.096  16.091 -0.2133  0.5320  0.1523
 7460TIP3    H143871   1.449   3.154  16.057 -0.0978  0.1930 -0.1957
 7460TIP3    H243872   1.300   3.128  16.052 -0.1526  0.4744 -0.0213
 7461TIP3   OH243873   1.325   2.019  15.649 -0.2391  0.0840  0.0530
 7461TIP3    H143874   1.303   1.985  15.563 -0.4197 -0.4343  0.3030
 7461TIP3    H243875   1.388   1.956  15.685 -1.0138 -0.2997  0.7531
 7462TIP3   OH243876   3.347   0.262   3.361 -0.3281 -0.0973  0.5868
 7462TIP3    H143877   3.365   0.348   3.324 -2.9542  0.0784 -0.4601
 7462TIP3    H243878   3.285   0.278   3.432 -0.5828 -1.0945  0.6074
 7463TIP3   OH243879   3.919   2.161  14.657  0.1398  0.9125 -0.3625
 7463TIP3    H143880   3.910   2.256  14.657 -1.6234  0.7858 -0.4167
 7463TIP3    H243881   3.979   2.142  14.586  1.1398  2.0185  0.1568
 7464TIP3   OH243882   5.956   3.766  14.034 -0.3760 -0.1488 -0.1005
 7464TIP3    H143883   5.883   3.783  13.974 -0.2533 -1.2189 -0.5704
 7464TIP3    H243884   5.929   3.689  14.083 -0.4999  0.7440  1.2974
 7465TIP3   OH243885   1.483   5.256  12.742 -0.0923  0.1872 -0.0314
 7465TIP3    H143886   1.427   5.301  12.805  0.9119  0.9172  0.3505
 7465TIP3    H243887   1.570   5.256  12.781 -0.4508 -4.8131  1.5097
 7466TIP3   OH243888   4.651   0.907   0.332 -0.3309  0.5820  0.0434
 7466TIP3    H143889   4.584   0.894   0.265  0.4621 -1.7305 -0.4097
 7466TIP3    H243890   4.620   0.854   0.406  0.9999 -0.6198 -0.2164
 7467TIP3   OH243891   6.458   0.003  12.743  0.1436  0.2072  0.2579
 7467TIP3    H143892   6.399  -0.009  12.818  0.4681 -2.9207  0.1683
 7467TIP3    H243893   6.403   0.040  12.675 -0.8114  0.7268  1.2729
 7468TIP3   OH243894   0.530   3.090  17.050 -0.1216 -0.1024 -0.4224
 7468TIP3    H143895   0.605   3.098  17.109 -0.6909 -1.5580  0.5662
 7468TIP3    H243896   0.509   2.997  17.050 -1.3364  0.1406 -1.4361
 7469TIP3   OH243897   0.247   5.101   1.887  0.4171 -0.0948 -0.3840
 7469TIP3    H143898   0.231   5.079   1.979  0.4788  0.7554 -0.1626
 7469TIP3    H243899   0.185   5.047   1.838 -1.3434  1.2393  0.2919
 7470TIP3   OH243900   0.194   5.986  16.932  0.0938  0.3290  0.0387
 7470TIP3    H143901   0.157   5.923  16.994  0.5257  1.4684  1.5275
 7470TIP3    H243902   0.289   5.980  16.945  0.1012  2.1686  1.1884
 7471TIP3   OH243903   4.039   0.849   5.142  0.0516 -0.1117 -0.8565
 7471TIP3    H143904   4.109   0.907   5.173 -0.3378  0.6532 -1.3578
 7471TIP3    H243905   4.058   0.764   5.181 -0.4174  0.7933  1.4560
 7472TIP3   OH243906   4.391   0.946  11.474 -1.0035 -0.7889  0.3965
 7472TIP3    H143907   4.473   0.935  11.524 -1.2368  0.9207  1.2231
 7472TIP3    H243908   4.394   1.036  11.443 -1.5933 -1.3634 -1.4482
 7473TIP3   OH243909   4.843   4.641  13.562 -0.3581 -0.1318 -0.1809
 7473TIP3    H143910   4.870   4.606  13.648 -0.1711 -1.3706 -0.7175
 7473TIP3    H243911   4.892   4.588  13.499  0.3044  1.4493 -1.0570
 7474TIP3   OH243912   4.685   1.206   0.925 -0.3099 -0.0537  0.1887
 7474TIP3    H143913   4.618   1.138   0.926 -0.7811  0.4144  1.4613
 7474TIP3    H243914   4.749   1.178   0.991 -0.5241  0.7462  0.7445
 7475TIP3   OH243915   0.409   0.343  13.080  0.4999 -0.6485 -0.4296
 7475TIP3    H143916   0.330   0.357  13.133  1.0883 -0.5170  0.4319
 7475TIP3    H243917   0.379   0.287  13.008 -0.9718  1.5322 -1.6327
 7476TIP3   OH243918   4.730   2.970  16.692  0.1461 -0.1642  0.4105
 7476TIP3    H143919   4.675   2.981  16.770  1.0280 -0.0263  1.0253
 7476TIP3    H243920   4.730   3.056  16.651  0.7769  0.1300  1.0068
 7477TIP3   OH243921   3.241   0.604   2.303 -0.3713  0.2359 -0.0645
 7477TIP3    H143922   3.314   0.542   2.306 -0.3647  0.2683  0.4868
 7477TIP3    H243923   3.283   0.690   2.297 -0.3541  0.2719  0.5076
 7478TIP3   OH243924   0.957   1.463  12.572  0.0361 -0.0880  0.0076
 7478TIP3    H143925   0.949   1.407  12.650  0.4216 -0.0329  0.0883
 7478TIP3    H243926   0.869   1.499  12.560  0.3791  1.4420  1.5713
 7479TIP3   OH243927   3.022   6.149   2.246 -0.3789  0.1108 -0.0272
 7479TIP3    H143928   2.990   6.080   2.304 -0.6113 -1.0987 -1.5228
 7479TIP3    H243929   3.109   6.119   2.218  0.0229  1.0094  0.2237
 7480TIP3   OH243930   4.052   4.135   0.120 -0.7863  0.0027 -0.3344
 7480TIP3    H143931   4.083   4.198   0.056 -0.3012  0.3468  0.2300
 7480TIP3    H243932   3.962   4.163   0.140 -0.4206  0.8105  0.2559
 7481TIP3   OH243933   0.206   0.650  15.314  0.5125 -0.3243  0.5233
 7481TIP3    H143934   0.293   0.688  15.326 -0.4433  2.2501  0.0521
 7481TIP3    H243935   0.158   0.716  15.263 -1.3599 -2.1879 -0.2744
 7482TIP3   OH243936   6.787   4.183   2.753 -0.4379  0.4190 -0.3200
 7482TIP3    H143937   6.715   4.191   2.816  1.0443  1.1883  1.3903
 7482TIP3    H243938   6.772   4.253   2.690 -0.5367  1.4081  0.7585
 7483TIP3   OH243939   3.012   6.081   4.723 -0.4477  0.0322 -0.0214
 7483TIP3    H143940   2.933   6.058   4.772 -0.5035  0.4712  0.0929
 7483TIP3    H243941   3.084   6.055   4.781 -0.4648  3.3052  1.6915
 7484TIP3   OH243942   1.605   1.970  14.216  0.4639 -0.2941 -0.5188
 7484TIP3    H143943   1.695   1.987  14.186 -0.4811  1.7778 -2.5420
 7484TIP3    H243944   1.570   1.908  14.153 -0.1230  0.4943 -0.9902
 7485TIP3   OH243945   3.225   5.085   1.831 -0.0329 -0.0152 -0.2386
 7485TIP3    H143946   3.245   4.995   1.856  2.1336  0.5260  0.2155
 7485TIP3    H243947   3.292   5.108   1.767 -0.2144  1.4377  0.0505
 7486TIP3   OH243948   1.320   1.473   0.988 -0.5392 -0.2675  0.0011
 7486TIP3    H143949   1.402   1.449   1.032  0.1120  0.6538 -0.6775
 7486TIP3    H243950   1.316   1.568   0.996  0.1317  0.0687 -2.8075
 7487TIP3   OH243951   0.839   3.857   4.055 -0.0794 -0.1239 -0.1899
 7487TIP3    H143952   0.749   3.860   4.024  0.1136  1.3476 -0.6759
 7487TIP3    H243953   0.870   3.947   4.048  2.1208 -0.9217 -2.0769
 7488TIP3   OH243954   1.061   6.804  16.362  0.0973  0.4117  0.2204
 7488TIP3    H143955   1.001   6.739  16.328 -1.7252  0.5989  2.7791
 7488TIP3    H243956   1.067   6.870  16.293 -2.6401  0.3611 -0.1565
 7489TIP3   OH243957   3.067   6.339   5.284 -0.1855  0.2501 -0.4042
 7489TIP3    H143958   3.036   6.389   5.360 -0.0100  0.0305 -0.1916
 7489TIP3    H243959   3.057   6.248   5.309 -1.9106  0.1382 -1.3383
 7490TIP3   OH243960   3.797   4.307   2.480  0.3289  0.0417  0.1500
 7490TIP3    H143961   3.741   4.244   2.435  1.2835 -0.8043  0.1221
 7490TIP3    H243962   3.791   4.386   2.427 -1.2353  0.1546  0.4302
 7491TIP3   OH243963   5.251   5.787  13.370 -0.2477 -0.2348 -0.2280
 7491TIP3    H143964   5.288   5.864  13.413  0.7705 -0.6937 -0.2437
 7491TIP3    H243965   5.266   5.715  13.431  2.3927 -1.1530 -1.7629
 7492TIP3   OH243966   6.463   4.433   2.760  0.3127 -0.1464 -0.0676
 7492TIP3    H143967   6.404   4.444   2.834  1.3205 -2.2715  1.1520
 7492TIP3    H243968   6.409   4.453   2.683 -1.0483  1.1050  1.1327
 7493TIP3   OH243969   6.446   2.443  16.127 -0.3228  0.0108 -0.4401
 7493TIP3    H143970   6.417   2.492  16.051 -1.5873 -1.1833 -0.7719
 7493TIP3    H243971   6.522   2.491  16.160 -0.8241  1.5131 -1.4085
 7494TIP3   OH243972   5.302   2.946  12.053 -0.5656 -0.2203  0.2492
 7494TIP3    H143973   5.246   2.957  11.977 -1.8211 -0.3944  1.1286
 7494TIP3    H243974   5.280   2.860  12.088 -1.0422  0.4359  1.6211
 7495TIP3   OH243975   2.567   4.394   4.006  0.0862 -0.3273 -0.6626
 7495TIP3    H143976   2.623   4.318   3.992  0.8845  0.4000 -1.5611
 7495TIP3    H243977   2.537   4.386   4.096 -0.6446 -2.2242 -1.0460
 7496TIP3   OH243978   2.996   1.299   1.284 -0.4625 -0.5779  0.0071
 7496TIP3    H143979   3.038   1.236   1.343 -0.7257 -2.0035 -1.2738
 7496TIP3    H243980   2.940   1.351   1.341  1.9754  0.5271  1.5691
 7497TIP3   OH243981   2.026   6.144  14.506 -0.0450 -0.0512  0.2523
 7497TIP3    H143982   1.980   6.213  14.555 -0.2149  0.7305 -0.9473
 7497TIP3    H243983   1.957   6.097  14.460  0.1757 -0.2720  0.1439
 7498TIP3   OH243984   0.953   1.551   0.675  0.0241 -0.5125  0.2280
 7498TIP3    H143985   1.004   1.473   0.698  1.7956  0.2815 -0.7484
 7498TIP3    H243986   0.875   1.547   0.730  2.1641 -0.6667  3.4984
 7499TIP3   OH243987   1.256   5.198  14.047 -0.3959  0.1756 -0.6001
 7499TIP3    H143988   1.215   5.115  14.023  1.8317 -0.8027 -1.1817
 7499TIP3    H243989   1.349   5.179  14.052  0.2944  2.8555 -1.6124
 7500TIP3   OH243990   0.247   0.524   3.071  0.2747 -0.1123  0.2620
 7500TIP3    H143991   0.309   0.596   3.066  0.5864 -0.4551 -1.2198
 7500TIP3    H243992   0.234   0.509   3.165  0.6759  1.4538  0.5811
 7501TIP3   OH243993   1.520   1.638  15.459  0.3721  0.6291 -0.1437
 7501TIP3    H143994   1.430   1.619  15.432  0.4684  0.0517 -0.0505
 7501TIP3    H243995   1.555   1.693  15.388  0.2131  0.1751 -0.5773
 7502TIP3   OH243996   0.313   3.927   1.985 -1.1764 -0.0471  0.6478
 7502TIP3    H143997   0.251   3.977   1.933 -1.9881 -0.8420  0.8144
 7502TIP3    H243998   0.363   3.876   1.922  0.5556  1.8625  0.3604
 7503TIP3   OH243999   0.957   2.827   4.889 -0.0845 -0.2350  0.5741
 7503TIP3    H144000   1.001   2.782   4.817  1.7382  1.8267  0.2890
 7503TIP3    H244001   1.027   2.846   4.952 -0.7011  2.1209  0.6625
 7504TIP3   OH244002   3.429   2.063   0.214  0.0203  0.3047  0.5067
 7504TIP3    H144003   3.461   2.130   0.154 -1.1602 -0.0628 -0.5721
 7504TIP3    H244004   3.340   2.091   0.236 -0.8297 -1.3169 -0.6683
 7505TIP3   OH244005   2.740   1.572  15.209  0.3136 -0.3843  0.4930
 7505TIP3    H144006   2.744   1.590  15.115 -0.5969 -1.7948  0.1576
 7505TIP3    H244007   2.829   1.547  15.233  0.6886  0.5817  0.1496
 7506TIP3   OH244008   6.133   3.513   2.783 -1.0273  0.3166 -0.3232
 7506TIP3    H144009   6.121   3.588   2.725  2.3435  0.3080 -1.2008
 7506TIP3    H244010   6.149   3.439   2.725 -1.3274 -0.4947  0.5855
 7507TIP3   OH244011   5.802   1.476   3.164 -0.1478 -0.2315  0.2532
 7507TIP3    H144012   5.793   1.566   3.132 -1.0446 -0.3717  0.0702
 7507TIP3    H244013   5.837   1.485   3.253  2.1585  0.1653 -0.6529
 7508TIP3   OH244014   1.365   2.641   6.548 -0.2771  0.3017  0.5470
 7508TIP3    H144015   1.460   2.636   6.557 -0.1317  0.7614 -0.5258
 7508TIP3    H244016   1.334   2.551   6.561  0.1055  0.4585  2.7554
 7509TIP3   OH244017   4.710   6.368  16.500 -0.4031  0.1853 -0.5092
 7509TIP3    H144018   4.726   6.413  16.417 -1.6603  0.6424 -0.5364
 7509TIP3    H244019   4.673   6.436  16.557  1.3282  0.1175  0.7667
 7510TIP3   OH244020   2.766   4.612  14.050  0.4843 -0.6670  0.5764
 7510TIP3    H144021   2.670   4.611  14.049  0.3608  1.3150  2.4423
 7510TIP3    H244022   2.791   4.618  13.957 -1.4550  3.9660  0.0722
 7511TIP3   OH244023   0.263   1.308  15.616  0.2285 -0.4610  0.0215
 7511TIP3    H144024   0.248   1.371  15.686  0.4518  0.7575 -0.9943
 7511TIP3    H244025   0.299   1.231  15.660  0.3623  0.2772  1.2341
 7512TIP3   OH244026   5.326   6.259  12.033 -0.1753  0.0930  0.6700
 7512TIP3    H144027   5.410   6.217  12.051 -0.9490 -1.4420  0.8596
 7512TIP3    H244028   5.345   6.318  11.960  0.4630 -2.5451 -1.4622
 7513TIP3   OH244029   1.673   6.332   6.566  0.5415  0.5236 -0.3826
 7513TIP3    H144030   1.666   6.422   6.535 -0.3897  0.0197 -1.7209
 7513TIP3    H244031   1.611   6.328   6.639 -0.2930  0.6856 -1.0593
 7514TIP3   OH244032   4.996   3.135  12.593 -0.6123  0.1946 -0.0809
 7514TIP3    H144033   4.968   3.135  12.501  0.3676 -0.7354 -0.4064
 7514TIP3    H244034   4.946   3.206  12.633  0.2517  1.8628 -1.7479
 7515TIP3   OH244035   2.852   3.447   5.879 -0.1017  0.2526  0.5670
 7515TIP3    H144036   2.826   3.525   5.929 -0.5160 -0.2792  1.2058
 7515TIP3    H244037   2.935   3.472   5.838 -0.4467  1.1758  0.4040
 7516TIP3   OH244038   4.089   3.212  13.781 -0.1592  0.4920  0.2144
 7516TIP3    H144039   4.022   3.169  13.728  0.0817  2.3531 -1.7197
 7516TIP3    H244040   4.042   3.245  13.857 -1.4674  1.6700 -1.0578
 7517TIP3   OH244041   0.139   0.457  16.089 -0.1137  0.5123  0.2816
 7517TIP3    H144042   0.175   0.490  16.007  1.6924  1.6501  1.4420
 7517TIP3    H244043   0.045   0.452  16.074  0.2026  0.2970 -1.9594
 7518TIP3   OH244044   3.523   1.092  13.139  0.2226 -0.6978  0.0441
 7518TIP3    H144045   3.459   1.038  13.093  2.4676 -1.3361 -2.6341
 7518TIP3    H244046   3.603   1.084  13.087  1.7562  2.1720  1.6716
 7519TIP3   OH244047   3.127   1.119  12.367 -0.5135  0.4928 -0.1798
 7519TIP3    H144048   3.083   1.195  12.328  1.5125  0.6164 -2.4449
 7519TIP3    H244049   3.175   1.079  12.295  1.5299 -0.7370  1.7371
 7520TIP3   OH244050   0.457   2.928  15.319 -0.0665 -0.1151  0.0873
 7520TIP3    H144051   0.484   2.898  15.406  0.2475 -0.4912 -0.1383
 7520TIP3    H244052   0.404   3.006  15.336 -0.9125 -0.8080  0.6735
 7521TIP3   OH244053   6.721   4.428  15.985 -0.1529  0.1695 -0.0377
 7521TIP3    H144054   6.755   4.370  15.916 -1.6309  0.8212 -1.3686
 7521TIP3    H244055   6.799   4.471  16.020  0.9644 -2.3203  0.7669
 7522TIP3   OH244056   6.695   0.743   0.009 -0.4413  0.1046 -0.0071
 7522TIP3    H144057   6.609   0.749  -0.032 -0.5700 -1.3651 -0.0249
 7522TIP3    H244058   6.677   0.708   0.096  0.2475 -2.3308 -0.7478
 7523TIP3   OH244059   3.821   4.909  16.519  0.8207 -1.0855 -0.2865
 7523TIP3    H144060   3.760   4.978  16.546  0.5781 -1.4234  0.0358
 7523TIP3    H244061   3.854   4.939  16.435  0.7290 -0.5649 -0.1436
 7524TIP3   OH244062   2.277   5.307  12.255  0.1045  0.4101 -0.5688
 7524TIP3    H144063   2.184   5.286  12.262  0.1234  0.4820 -0.0784
 7524TIP3    H244064   2.320   5.243  12.311  0.4761 -0.4529 -1.8073
 7525TIP3   OH244065   0.872   1.227  15.046 -0.1957 -0.1771  0.0533
 7525TIP3    H144066   0.793   1.231  14.991 -0.2152 -2.0214 -0.1155
 7525TIP3    H244067   0.943   1.213  14.984  0.5901  3.1545  0.0262
 7526TIP3   OH244068   2.669   4.364  16.015 -0.0787 -0.3857 -0.0771
 7526TIP3    H144069   2.712   4.320  15.942  1.5306  0.6978  0.1658
 7526TIP3    H244070   2.634   4.293  16.069 -0.8880 -1.2135 -1.6396
 7527TIP3   OH244071   5.101   2.262   1.051 -0.2126 -0.2945  0.4226
 7527TIP3    H144072   5.098   2.329   1.119  1.6739 -0.1588  0.4284
 7527TIP3    H244073   5.067   2.184   1.093 -1.2343  0.3369  0.8086
 7528TIP3   OH244074   3.390   3.781  11.884  0.0552  0.5833  0.3070
 7528TIP3    H144075   3.465   3.752  11.832  0.1682  0.6567  0.4279
 7528TIP3    H244076   3.377   3.872  11.858  0.7005  0.9114  1.0824
 7529TIP3   OH244077   4.478   5.166   5.184 -1.0793  0.2811  0.2901
 7529TIP3    H144078   4.505   5.085   5.141  2.0358  1.5562 -0.4143
 7529TIP3    H244079   4.455   5.138   5.273  0.6148 -1.3207  0.2964
 7530TIP3   OH244080   5.303   4.177  14.493 -0.1671  0.6131 -0.0124
 7530TIP3    H144081   5.295   4.082  14.503 -0.7207  0.4941 -1.3293
 7530TIP3    H244082   5.214   4.210  14.506 -0.6830  0.5620 -2.8214
 7531TIP3   OH244083   3.501   3.353  11.775  0.1900 -0.3039  0.2446
 7531TIP3    H144084   3.435   3.284  11.764  0.1934 -0.2780  0.0441
 7531TIP3    H244085   3.509   3.364  11.869 -1.1130  0.6501  0.2846
 7532TIP3   OH244086   2.030   6.240   2.671  0.6072  0.0159  0.2763
 7532TIP3    H144087   2.095   6.205   2.732  0.3204  0.2491  0.7275
 7532TIP3    H244088   1.989   6.163   2.632  1.1257 -0.1329  0.0175
 7533TIP3   OH244089   5.857   1.129  14.724 -0.3956 -0.1427  0.2407
 7533TIP3    H144090   5.843   1.186  14.800 -0.7241  0.7960 -0.4991
 7533TIP3    H244091   5.844   1.187  14.649  1.6280 -0.6306 -0.5423
 7534TIP3   OH244092   3.838   3.857   2.851 -0.3986 -0.5419  0.5590
 7534TIP3    H144093   3.911   3.872   2.911 -1.8166  1.5450  1.8858
 7534TIP3    H244094   3.760   3.884   2.900 -1.7202  0.5427 -1.9453
 7535TIP3   OH244095   5.917   5.174   1.970 -0.1032  0.3248  0.0179
 7535TIP3    H144096   5.938   5.087   1.938 -0.0897 -0.0370  0.9685
 7535TIP3    H244097   5.831   5.194   1.935 -0.0398 -0.0091 -0.3246
 7536TIP3   OH244098   6.416   4.289  14.323 -0.8878  0.3226 -0.4588
 7536TIP3    H144099   6.445   4.351  14.257  2.5520 -0.5512  0.0148
 7536TIP3    H244100   6.394   4.210  14.274  1.4636 -0.2579 -0.7216
 7537TIP3   OH244101   2.007   4.875   1.753 -0.1254 -0.5685 -0.2512
 7537TIP3    H144102   2.091   4.910   1.780 -0.7610  0.5704  0.3432
 7537TIP3    H244103   1.984   4.924   1.674 -0.4660 -0.4852 -0.1060
 7538TIP3   OH244104   1.580   5.623  12.579  0.0271  0.4131 -0.2269
 7538TIP3    H144105   1.613   5.533  12.585 -0.3013  0.0583 -2.6585
 7538TIP3    H244106   1.486   5.613  12.565 -0.1557  1.1870  0.3837
 7539TIP3   OH244107   6.785   1.028  15.519  0.1152  0.4477  0.4753
 7539TIP3    H144108   6.878   1.051  15.517  0.1432  0.3218  0.2954
 7539TIP3    H244109   6.747   1.085  15.586  0.2895  0.6237  0.4244
 7540TIP3   OH244110   3.681   4.674  16.611  0.2245 -0.5284 -0.4399
 7540TIP3    H144111   3.741   4.746  16.592 -1.3068  0.1962 -3.0541
 7540TIP3    H244112   3.681   4.667  16.707  2.7768  0.8465 -0.2624
 7541TIP3   OH244113   6.294   3.808   0.014 -0.0939 -0.0503  0.4041
 7541TIP3    H144114   6.218   3.827   0.069 -1.1845 -1.7033 -0.4508
 7541TIP3    H244115   6.336   3.733   0.057  0.1273 -0.1537  0.0101
 7542TIP3   OH244116   3.921   6.209   5.239 -0.7068 -1.1351  0.6372
 7542TIP3    H144117   3.994   6.147   5.238  0.7036  0.4235 -0.4170
 7542TIP3    H244118   3.916   6.241   5.149 -1.6080  0.0239  1.0742
 7543TIP3   OH244119   1.289   6.053  13.304 -0.0216  0.1164 -0.8334
 7543TIP3    H144120   1.332   5.988  13.361 -0.9884 -1.3255 -1.6901
 7543TIP3    H244121   1.342   6.132  13.314  1.8877 -1.1245 -0.6121
 7544TIP3   OH244122   0.861   3.769   0.415  0.3674 -0.4297 -0.0085
 7544TIP3    H144123   0.820   3.855   0.428 -1.0162 -1.1766  0.8744
 7544TIP3    H244124   0.945   3.789   0.375  0.3274  1.3759  0.6815
 7545TIP3   OH244125   4.765   4.743   4.335 -0.0486  0.6719 -0.3277
 7545TIP3    H144126   4.811   4.698   4.406  0.7970  1.3834 -0.4100
 7545TIP3    H244127   4.773   4.836   4.355  0.4451  0.9006 -1.4892
 7546TIP3   OH244128   6.617   5.101  14.709 -0.5459 -0.5426  0.0798
 7546TIP3    H144129   6.594   5.134  14.796 -1.3966  2.6483 -1.2264
 7546TIP3    H244130   6.709   5.122  14.699 -0.5674 -0.4791  0.0179
 7547TIP3   OH244131   6.427   6.346  13.493 -0.2406  0.0755  0.1270
 7547TIP3    H144132   6.489   6.419  13.493 -0.0186 -0.1041 -0.4586
 7547TIP3    H244133   6.362   6.369  13.559  0.4097  0.2988  0.6978
 7548TIP3   OH244134   1.933   4.488  11.734  0.1635  0.3131 -0.1242
 7548TIP3    H144135   1.921   4.580  11.756  1.1830  0.4514 -0.1128
 7548TIP3    H244136   1.845   4.451  11.735 -0.1842  1.1417  0.5056
 7549TIP3   OH244137   0.140   1.609   1.184 -0.3498  0.5961 -0.1461
 7549TIP3    H144138   0.074   1.602   1.115  0.4144  2.1663 -1.0776
 7549TIP3    H244139   0.223   1.591   1.140 -0.1502 -2.7468  1.2708
 7550TIP3   OH244140   5.043   0.178  16.976 -0.2490  0.3174 -0.2217
 7550TIP3    H144141   5.066   0.129  16.897 -0.5093  0.9608 -0.7067
 7550TIP3    H244142   5.047   0.269  16.949  2.8579  0.7680  1.3522
 7551TIP3   OH244143   5.835   0.303   0.065 -0.4713  0.0614 -0.1836
 7551TIP3    H144144   5.777   0.350   0.006 -1.2690 -0.1709  0.4062
 7551TIP3    H244145   5.922   0.340   0.046 -0.7100  0.0276 -1.4448
 7552TIP3   OH244146   3.825   6.224  13.661 -0.8770  0.0788 -0.2643
 7552TIP3    H144147   3.885   6.248  13.590 -0.0919 -1.6835 -0.2444
 7552TIP3    H244148   3.776   6.304  13.678  0.3067  1.1101 -1.4277
 7553TIP3   OH244149   4.573   2.836   2.760  0.4951  0.1576  0.3614
 7553TIP3    H144150   4.657   2.789   2.765  0.9196  0.9052  0.3881
 7553TIP3    H244151   4.511   2.778   2.803  1.2445  0.1050  1.4144
 7554TIP3   OH244152   0.746   3.934   2.932  0.2982  0.6662 -0.4784
 7554TIP3    H144153   0.791   4.014   2.904  0.7994 -0.0258 -1.7084
 7554TIP3    H244154   0.814   3.867   2.934  0.0012  0.3662  1.1173
 7555TIP3   OH244155   4.997   3.555  12.207 -0.4076 -0.4159  0.4466
 7555TIP3    H144156   4.928   3.567  12.142 -0.4286 -1.8034  0.1885
 7555TIP3    H244157   5.028   3.466  12.194  0.8782 -0.0986  1.1097
 7556TIP3   OH244158   6.272   6.103   5.226 -0.7829  0.0676  0.6999
 7556TIP3    H144159   6.345   6.154   5.261 -0.3446  1.6528 -2.2201
 7556TIP3    H244160   6.224   6.165   5.171 -3.2813 -1.4373  1.0126
 7557TIP3   OH244161   0.172   2.406  11.345  0.6463 -0.1817 -0.1753
 7557TIP3    H144162   0.208   2.467  11.280 -0.1944 -0.1388 -0.6142
 7557TIP3    H244163   0.149   2.328  11.295 -0.0275 -0.1436  0.0648
 7558TIP3   OH244164   2.818   5.504  15.436  0.3958  0.3100  0.2419
 7558TIP3    H144165   2.803   5.449  15.359 -0.8909  0.0165  0.6733
 7558TIP3    H244166   2.738   5.557  15.443  0.9371  1.0738  0.7770
 7559TIP3   OH244167   1.533   2.241  15.289 -0.9050 -0.4847  0.4167
 7559TIP3    H144168   1.544   2.336  15.288 -1.0307 -0.3639 -3.5486
 7559TIP3    H244169   1.441   2.227  15.266 -0.6961 -1.5576  0.1658
 7560TIP3   OH244170   2.022   0.507  13.650 -0.6785  0.2647 -0.8245
 7560TIP3    H144171   2.111   0.544  13.655 -1.4979  2.4215 -1.0092
 7560TIP3    H244172   1.975   0.568  13.593 -2.1410 -1.1779 -1.2162
 7561TIP3   OH244173   3.458   0.465   1.359 -0.0693 -0.1974 -0.1889
 7561TIP3    H144174   3.418   0.409   1.426 -1.8335  0.1127 -0.9292
 7561TIP3    H244175   3.388   0.480   1.296  1.2515  0.3974 -1.5574
 7562TIP3   OH244176   0.842   2.415  15.338  0.3454  0.3670 -0.4204
 7562TIP3    H144177   0.908   2.415  15.269  0.2597 -1.8011 -0.5518
 7562TIP3    H244178   0.877   2.474  15.405  0.3434  2.6906 -2.3220
 7563TIP3   OH244179   5.650   3.337   4.885 -0.4477 -0.3178 -0.1991
 7563TIP3    H144180   5.712   3.264   4.886  0.8410  0.7150 -0.8088
 7563TIP3    H244181   5.618   3.340   4.795 -2.2809 -1.5280  0.3680
 7564TIP3   OH244182   5.248   4.092   0.238 -0.0733  0.1590  0.3249
 7564TIP3    H144183   5.291   4.009   0.255  0.6798  0.4744 -0.0009
 7564TIP3    H244184   5.165   4.068   0.196  0.3752 -0.4152 -0.2535
 7565TIP3   OH244185   4.041   2.315  14.059 -0.6449 -0.0471 -0.2393
 7565TIP3    H144186   4.007   2.226  14.059  1.9487 -1.1376 -1.0787
 7565TIP3    H244187   4.089   2.322  13.976  1.6080  1.0976  1.0624
 7566TIP3   OH244188   1.817   1.898  10.241  0.0983  0.3321 -0.2197
 7566TIP3    H144189   1.809   1.842  10.319  0.1452 -1.1155 -1.2192
 7566TIP3    H244190   1.748   1.964  10.251  0.5384  0.5923  1.3706
 7567TIP3   OH244191   2.206   2.936  11.243 -0.5344 -0.2806 -0.2242
 7567TIP3    H144192   2.152   2.980  11.177 -0.7317 -0.3277 -0.0946
 7567TIP3    H244193   2.216   3.001  11.313 -0.9194 -0.4759  0.0173
 7568TIP3   OH244194   5.904   6.801  13.017  0.4217 -0.0491 -0.2530
 7568TIP3    H144195   5.967   6.856  12.971  0.7994  1.3746  1.8077
 7568TIP3    H244196   5.958   6.742  13.069  0.0055 -1.4341 -1.3433
 7569TIP3   OH244197   5.313   5.409  16.923  0.3946  0.3507 -0.0727
 7569TIP3    H144198   5.304   5.424  17.017 -0.6312 -0.1357 -0.0837
 7569TIP3    H244199   5.405   5.387  16.911  0.6003  0.7132  0.7736
 7570TIP3   OH244200   2.992   5.658   3.809 -0.3771  0.5802  0.0981
 7570TIP3    H144201   2.943   5.582   3.839 -1.0718  1.9705  2.8892
 7570TIP3    H244202   2.953   5.681   3.725 -2.0802 -0.4970  0.5522
 7571TIP3   OH244203   1.797   4.959  16.527 -0.0159  0.4127  0.3833
 7571TIP3    H144204   1.782   4.914  16.610 -1.0496  1.3889  0.7562
 7571TIP3    H244205   1.730   5.028  16.525  0.3928  0.7984 -0.9747
 7572TIP3   OH244206   1.005   5.597   3.482 -0.0471  0.2998 -0.6572
 7572TIP3    H144207   0.972   5.550   3.405 -0.4456 -0.0812 -0.2564
 7572TIP3    H244208   1.069   5.537   3.521  0.8462  0.8680 -1.2001
 7573TIP3   OH244209   3.214   0.678  15.879 -0.7110 -0.2789 -0.0109
 7573TIP3    H144210   3.195   0.748  15.816  1.7145  2.3150  1.8638
 7573TIP3    H244211   3.305   0.654  15.861 -0.6615 -0.9959  1.0946
 7574TIP3   OH244212   2.317   4.188  15.675  0.4715  0.3359 -0.3028
 7574TIP3    H144213   2.286   4.103  15.705  0.5987  0.2582 -0.3870
 7574TIP3    H244214   2.367   4.224  15.748  0.8136  0.1306 -0.4320
 7575TIP3   OH244215   1.681   1.655   6.495 -0.1239 -0.0074  0.0666
 7575TIP3    H144216   1.627   1.637   6.572 -0.6326  0.2433 -0.2310
 7575TIP3    H244217   1.761   1.604   6.510 -0.9836 -1.5033 -0.1395
 7576TIP3   OH244218   2.917   3.081  11.192 -0.3461  0.4621 -0.4619
 7576TIP3    H144219   2.831   3.075  11.234  0.1556  0.5870  0.6362
 7576TIP3    H244220   2.910   3.155  11.133 -1.1997  0.0388 -0.9105
 7577TIP3   OH244221   5.578   5.513  16.884 -0.5629  0.9460  0.1622
 7577TIP3    H144222   5.588   5.580  16.816 -1.3088  1.8220  0.8812
 7577TIP3    H244223   5.521   5.554  16.949 -0.3013 -0.0713  1.0591
 7578TIP3   OH244224   0.481   3.983   5.482  0.5529  0.8239  0.1255
 7578TIP3    H144225   0.429   4.063   5.482 -0.3749  0.4115  3.7624
 7578TIP3    H244226   0.561   4.006   5.530  2.0643  0.4217 -2.0173
 7579TIP3   OH244227   6.041   3.952   0.058 -0.5266 -0.2523 -0.7354
 7579TIP3    H144228   6.068   4.018   0.122  1.1770 -2.4619  0.9771
 7579TIP3    H244229   6.083   3.981  -0.024 -0.2639  1.0602 -0.1694
 7580TIP3   OH244230   2.126   5.103  12.814  0.5781  0.5968 -0.0502
 7580TIP3    H144231   2.117   5.014  12.781 -1.5206  1.2410 -1.4533
 7580TIP3    H244232   2.127   5.093  12.910  0.5637 -0.9352 -0.1870
 7581TIP3   OH244233   2.576   1.771   3.703 -0.1990 -0.9303  0.6004
 7581TIP3    H144234   2.484   1.771   3.730 -1.5251  1.5139 -3.0926
 7581TIP3    H244235   2.614   1.848   3.746 -0.7389 -0.2815 -0.0558
 7582TIP3   OH244236   1.343   6.187  14.270  0.0833  0.0843 -0.4262
 7582TIP3    H144237   1.361   6.113  14.212 -0.2176  0.3623 -0.8773
 7582TIP3    H244238   1.391   6.261  14.232  0.9646 -0.0297  0.4152
 7583TIP3   OH244239   5.098   6.476  12.008  0.0486  0.6107  0.3167
 7583TIP3    H144240   5.152   6.492  12.086 -0.4539 -0.2195  0.8483
 7583TIP3    H244241   5.009   6.497  12.037 -0.2157 -0.2300  0.1426
 7584TIP3   OH244242   4.405   5.059  11.341  0.3341  0.3256  0.0389
 7584TIP3    H144243   4.367   4.971  11.341  0.7625  0.1027 -1.8594
 7584TIP3    H244244   4.500   5.045  11.346  0.4701  0.5997 -1.3043
 7585TIP3   OH244245   0.869   4.142  17.205  0.4875 -0.4263  0.4284
 7585TIP3    H144246   0.852   4.189  17.124  0.4013 -1.2958 -0.0748
 7585TIP3    H244247   0.887   4.210  17.269  0.8490  0.2683 -0.3885
 7586TIP3   OH244248   3.315   5.526   0.723 -0.2172 -0.0916  0.1149
 7586TIP3    H144249   3.239   5.497   0.774 -1.5736 -0.5345 -2.0171
 7586TIP3    H244250   3.292   5.614   0.694 -0.4772 -0.6537 -1.4915
 7587TIP3   OH244251   6.406   5.391   4.186  0.0599 -0.3698 -0.3376
 7587TIP3    H144252   6.419   5.322   4.250  1.2537 -1.1676 -1.3825
 7587TIP3    H244253   6.418   5.472   4.235  2.6728 -0.9624  0.1838
 7588TIP3   OH244254   1.487   3.329  14.934  0.3038 -0.0804 -0.0065
 7588TIP3    H144255   1.570   3.376  14.930  1.7397 -2.2989  1.3343
 7588TIP3    H244256   1.421   3.395  14.914  2.3349  1.8959 -0.5867
 7589TIP3   OH244257   4.615   2.289  10.930  0.1243 -0.8603  0.0139
 7589TIP3    H144258   4.550   2.224  10.955  0.2204 -0.6064  0.9785
 7589TIP3    H244259   4.565   2.367  10.909  0.1233 -0.3859  1.6231
 7590TIP3   OH244260   6.468   5.361  13.399 -0.5203  0.5059 -0.6622
 7590TIP3    H144261   6.555   5.335  13.367  0.3011  1.0579  1.0395
 7590TIP3    H244262   6.449   5.298  13.469 -1.0489  1.0032 -0.3546
 7591TIP3   OH244263   0.740   4.767  10.991  0.2145  0.0272  0.1771
 7591TIP3    H144264   0.788   4.722  10.922 -0.6403 -1.6714  0.6524
 7591TIP3    H244265   0.758   4.717  11.071 -1.8451 -0.3526  0.4725
 7592TIP3   OH244266   5.783   1.946   5.108  0.3709 -0.2411 -0.3819
 7592TIP3    H144267   5.848   2.012   5.132  1.3530 -1.4308  0.3415
 7592TIP3    H244268   5.757   1.907   5.192  1.1912 -2.0393 -0.9226
 7593TIP3   OH244269   1.337   3.387   4.317 -0.0830 -0.2076  0.2672
 7593TIP3    H144270   1.284   3.466   4.303  0.1838 -0.0996 -0.1364
 7593TIP3    H244271   1.273   3.318   4.333 -0.3208  0.0760  0.5670
 7594TIP3   OH244272   1.389   4.325  12.588  0.1864  0.4139  0.2446
 7594TIP3    H144273   1.436   4.245  12.611  2.2282  0.9752 -1.6024
 7594TIP3    H244274   1.300   4.311  12.619  0.9847 -1.7043  1.7957
 7595TIP3   OH244275   3.829   0.591   1.090  0.0821 -0.1872 -0.0655
 7595TIP3    H144276   3.822   0.686   1.085 -0.5859 -0.2464 -0.4220
 7595TIP3    H244277   3.873   0.566   1.009 -1.2055 -0.3015 -0.7519
 7596TIP3   OH244278   3.204   1.023   4.394 -0.0330  0.3488  0.2421
 7596TIP3    H144279   3.256   1.095   4.430  0.2858 -0.4693  1.4502
 7596TIP3    H244280   3.264   0.948   4.394 -0.2640  0.1320 -1.2902
 7597TIP3   OH244281   2.628   2.323  14.855  0.3152  0.4598 -0.4843
 7597TIP3    H144282   2.705   2.314  14.911 -0.3220 -0.2645  0.3042
 7597TIP3    H244283   2.582   2.399  14.891  0.1325  0.2613 -0.2951
 7598TIP3   OH244284   6.734   1.773  13.735 -0.0607 -0.5586 -0.7157
 7598TIP3    H144285   6.761   1.758  13.826 -2.0918 -0.5975 -0.0732
 7598TIP3    H244286   6.678   1.851  13.739  0.1388 -0.3216 -2.0170
 7599TIP3   OH244287   2.626   2.053  12.611 -0.4728 -0.4045 -0.9248
 7599TIP3    H144288   2.648   1.966  12.643 -0.6201 -0.0004  0.3430
 7599TIP3    H244289   2.690   2.111  12.654 -1.0173  0.2214 -0.9493
 7600TIP3   OH244290   5.020   6.661  15.517  0.2028 -0.3000  0.5539
 7600TIP3    H144291   5.013   6.748  15.479  0.1350 -0.8452 -0.7496
 7600TIP3    H244292   4.932   6.624  15.510  0.7949 -1.4845 -1.5614
 7601TIP3   OH244293   2.921   4.826  11.541 -0.0154  0.2831  0.5031
 7601TIP3    H144294   2.849   4.784  11.589  0.9476 -1.2772  0.6210
 7601TIP3    H244295   2.984   4.756  11.525  1.7054  1.6919  0.7751
 7602TIP3   OH244296   4.094   3.359  15.440 -0.2926 -0.5154 -0.0457
 7602TIP3    H144297   4.145   3.383  15.362  0.2861  0.0889  0.5002
 7602TIP3    H244298   4.088   3.264  15.437  0.3498 -0.5481 -0.4500
 7603TIP3   OH244299   6.430   4.604   0.374 -0.6436  0.7004 -0.2013
 7603TIP3    H144300   6.360   4.660   0.409  0.6189  2.7201 -0.7722
 7603TIP3    H244301   6.389   4.560   0.299 -1.9455  0.0354  0.8429
 7604TIP3   OH244302   0.594   0.566   2.637  0.3026  0.3000  0.6279
 7604TIP3    H144303   0.552   0.480   2.641  0.2692  0.2897  0.1874
 7604TIP3    H244304   0.604   0.593   2.728 -0.3193  0.1359  0.7476
 7605TIP3   OH244305   0.828   4.193   2.916  0.6214 -0.0192 -0.4474
 7605TIP3    H144306   0.896   4.253   2.886  0.5886  0.2317 -0.0136
 7605TIP3    H244307   0.807   4.221   3.005 -0.6694  0.4519 -0.8743
 7606TIP3   OH244308   0.478   0.943  12.288 -0.0410  0.6713  0.2489
 7606TIP3    H144309   0.527   0.976  12.363  0.1374  2.2762 -0.5222
 7606TIP3    H244310   0.536   0.959  12.213 -0.3387 -0.6210 -0.2840
 7607TIP3   OH244311   1.236   1.494   1.274  0.1931  0.0981 -0.3058
 7607TIP3    H144312   1.303   1.558   1.252  1.7356 -1.2300  0.2673
 7607TIP3    H244313   1.251   1.475   1.366 -0.6859 -0.5560 -0.2905
 7608TIP3   OH244314   0.220   6.008   4.397  0.6289 -0.0250  0.2613
 7608TIP3    H144315   0.292   5.966   4.350  0.8587 -1.2225  1.6205
 7608TIP3    H244316   0.199   5.947   4.468 -2.0903  0.0339 -0.4110
 7609TIP3   OH244317   6.383   2.221  13.958 -0.0649 -0.2239  0.3564
 7609TIP3    H144318   6.314   2.274  13.995  0.0852 -0.5546  1.1290
 7609TIP3    H244319   6.430   2.185  14.034  1.4067  0.5750 -0.1287
 7610TIP3   OH244320   4.410   0.077  12.421 -0.5136 -0.2534  0.8830
 7610TIP3    H144321   4.319   0.068  12.450 -0.7640  0.1499  0.2358
 7610TIP3    H244322   4.435   0.165  12.450 -0.5994 -0.0491  0.3550
 7611TIP3   OH244323   4.822   4.439  11.694 -0.4044  1.1393 -0.5761
 7611TIP3    H144324   4.800   4.350  11.721 -1.3131  1.4387 -0.2886
 7611TIP3    H244325   4.757   4.461  11.627 -0.5474  1.7760 -0.2411
 7612TIP3   OH244326   4.117   0.316   1.953 -0.1430  0.0472  0.7905
 7612TIP3    H144327   4.090   0.406   1.938  0.3130  0.3825  1.9023
 7612TIP3    H244328   4.191   0.303   1.894 -1.9329 -0.5399 -1.4778
 7613TIP3   OH244329   6.331   3.391   3.849 -0.0371 -0.0816 -0.0867
 7613TIP3    H144330   6.300   3.431   3.930 -0.8624 -2.9490  1.1619
 7613TIP3    H244331   6.254   3.392   3.792 -0.2600 -0.4263  0.1967
 7614TIP3   OH244332   6.807   1.674   5.181 -0.6989  0.5006  0.4035
 7614TIP3    H144333   6.868   1.738   5.144  0.5533 -0.0409  1.4448
 7614TIP3    H244334   6.747   1.726   5.235  0.0967  0.8322  0.9783
 7615TIP3   OH244335   3.434   2.068   3.631 -0.1073 -0.6389  0.0733
 7615TIP3    H144336   3.450   2.106   3.545 -0.3440  0.3341  0.4417
 7615TIP3    H244337   3.441   2.143   3.691  0.3175 -1.3474  0.9237
 7616TIP3   OH244338   2.580   5.040   6.550 -0.1769 -0.2210  0.0662
 7616TIP3    H144339   2.558   4.994   6.470  1.1759  1.3795 -1.2940
 7616TIP3    H244340   2.658   4.996   6.583  0.0902 -0.0119 -0.2795
 7617TIP3   OH244341   6.013   1.600   1.579 -0.6470  0.1378 -0.6094
 7617TIP3    H144342   5.961   1.674   1.546 -0.3377  0.5690 -0.1480
 7617TIP3    H244343   6.097   1.609   1.535  0.1134  1.2894  0.9569
 7618TIP3   OH244344   3.491   4.010  13.579 -0.3487  0.3101 -0.0125
 7618TIP3    H144345   3.443   3.948  13.524 -2.2010  2.5896 -1.1363
 7618TIP3    H244346   3.442   4.012  13.661 -0.4796  0.5067 -0.0943
 7619TIP3   OH244347   1.653   5.753  14.271  0.0350 -0.0654  0.4322
 7619TIP3    H144348   1.594   5.747  14.346  0.6119  1.2531  1.0221
 7619TIP3    H244349   1.596   5.742  14.195 -1.3138  2.8052  0.8998
 7620TIP3   OH244350   5.605   4.546  14.154 -0.4023  0.4138 -0.1125
 7620TIP3    H144351   5.549   4.572  14.227  1.2432 -0.4796  1.5286
 7620TIP3    H244352   5.570   4.462  14.125 -0.3492  0.1952  0.4445
 7621TIP3   OH244353   6.382   3.159   1.300 -0.0289  0.4358 -0.5863
 7621TIP3    H144354   6.376   3.170   1.395 -1.8366 -0.5255 -0.5476
 7621TIP3    H244355   6.367   3.065   1.287 -0.1895  0.6309 -1.8502
 7622TIP3   OH244356   6.227   4.342  17.124  0.5139 -0.0596 -0.3596
 7622TIP3    H144357   6.289   4.347  17.052  0.6155  1.1531 -0.2039
 7622TIP3    H244358   6.174   4.421  17.116  0.3522 -0.0384  0.7442
 7623TIP3   OH244359   2.594   3.966   4.288 -0.4255  0.1315  0.1469
 7623TIP3    H144360   2.662   3.944   4.352 -0.2581  0.8056  0.2092
 7623TIP3    H244361   2.638   4.022   4.224 -0.4565 -0.9644 -0.8729
 7624TIP3   OH244362   4.404   2.058  11.796  0.3323 -0.0769 -0.3177
 7624TIP3    H144363   4.464   2.094  11.730 -0.3706  1.1633 -0.3035
 7624TIP3    H244364   4.459   1.999  11.848  1.1589 -0.2106 -1.2941
 7625TIP3   OH244365   0.966   3.103  14.854  0.1750  0.4427 -0.4873
 7625TIP3    H144366   1.050   3.077  14.894 -0.0384  1.1854  0.4797
 7625TIP3    H244367   0.928   3.165  14.916 -2.6576 -2.3027  0.7934
 7626TIP3   OH244368   4.836   0.973  16.031  0.0749 -0.0133  0.2164
 7626TIP3    H144369   4.775   0.968  15.958  0.4453  0.9671 -0.1812
 7626TIP3    H244370   4.805   1.048  16.082  1.4258  1.0466 -0.4642
 7627TIP3   OH244371   2.411   5.265   3.531 -0.2066  0.3146 -0.2866
 7627TIP3    H144372   2.448   5.236   3.448 -1.5759  2.4085 -1.7334
 7627TIP3    H244373   2.361   5.190   3.563 -2.3117  0.3645 -3.0460
 7628TIP3   OH244374   6.422   4.682   4.407  0.0992 -0.3843  0.5951
 7628TIP3    H144375   6.448   4.754   4.465 -1.4057  1.0568 -0.4285
 7628TIP3    H244376   6.480   4.609   4.431  1.4115  1.0366  1.9322
 7629TIP3   OH244377   3.212   5.914   4.845  0.0109  0.0610  0.5578
 7629TIP3    H144378   3.184   5.839   4.898 -0.3790 -0.3111 -0.1682
 7629TIP3    H244379   3.283   5.880   4.791  0.0885  0.3159  0.4996
 7630TIP3   OH244380   4.995   4.174   3.521  0.1748  0.4457 -0.1141
 7630TIP3    H144381   4.939   4.188   3.444  0.2986  0.8668 -0.1319
 7630TIP3    H244382   4.992   4.258   3.567 -0.6832 -0.1062  0.8714
 7631TIP3   OH244383   4.928   1.806  12.154  0.2026 -0.0245  0.0730
 7631TIP3    H144384   4.961   1.895  12.137  0.3116 -0.2036 -0.6744
 7631TIP3    H244385   4.869   1.817  12.228  2.7980  0.1221  2.2612
 7632TIP3   OH244386   2.252   0.656  13.652 -0.6630 -0.7550 -0.2749
 7632TIP3    H144387   2.318   0.595  13.685  0.2065 -0.2764 -1.0762
 7632TIP3    H244388   2.269   0.737  13.700  0.8911  0.0788 -2.0903
 7633TIP3   OH244389   0.755   6.407   3.023  0.0331  0.0436  0.0661
 7633TIP3    H144390   0.701   6.478   3.056  0.4034 -0.6389  2.2757
 7633TIP3    H244391   0.716   6.328   3.061  0.1078 -0.8811 -1.6921
 7634TIP3   OH244392   1.440   2.384  11.074  0.1001  0.3288 -0.1490
 7634TIP3    H144393   1.501   2.359  11.004  0.5642  0.9394  0.0270
 7634TIP3    H244394   1.394   2.460  11.039  0.9894  1.2142  0.5504
 7635TIP3   OH244395   2.659   0.675   1.172 -0.2057  0.3393 -0.0719
 7635TIP3    H144396   2.586   0.711   1.221  0.3892  0.1940  0.9569
 7635TIP3    H244397   2.737   0.700   1.222  0.4767  0.6704 -1.2474
 7636TIP3   OH244398   5.984   1.728  15.839  0.3716 -0.0792  0.0626
 7636TIP3    H144399   5.934   1.781  15.777  1.7581 -1.3554 -2.2437
 7636TIP3    H244400   5.930   1.651  15.855  0.1773  0.0782  0.1686
 7637TIP3   OH244401   3.426   4.213  13.371  0.2474  0.1577 -0.5689
 7637TIP3    H144402   3.446   4.200  13.464 -0.2423  1.4410 -0.2569
 7637TIP3    H244403   3.338   4.177  13.360  0.8554 -1.2916 -0.8826
 7638TIP3   OH244404   1.587   6.729   3.100  0.5748 -0.1298 -0.5086
 7638TIP3    H144405   1.679   6.701   3.105  1.3019  2.0020 -0.6625
 7638TIP3    H244406   1.591   6.813   3.054 -1.3719  0.3698  0.1504
 7639TIP3   OH244407   4.835   5.856  12.956  0.6541 -0.1803  0.1344
 7639TIP3    H144408   4.855   5.873  12.864  1.6977 -0.4580  0.2926
 7639TIP3    H244409   4.865   5.765  12.970  0.5608 -0.1202  0.7551
 7640TIP3   OH244410   1.080   0.341  13.619  0.3790  0.5333  0.1355
 7640TIP3    H144411   0.994   0.333  13.661 -0.0172 -1.1937 -0.8752
 7640TIP3    H244412   1.131   0.396  13.677 -0.4329 -0.9950  2.4224
 7641TIP3   OH244413   1.712   5.992   4.900 -0.2818  0.0134 -0.6755
 7641TIP3    H144414   1.749   6.080   4.898  0.3544 -0.2513 -0.8337
 7641TIP3    H244415   1.788   5.934   4.904 -0.6917 -0.5316 -0.6740
 7642TIP3   OH244416   3.643   1.800   0.634 -0.2287  0.2473  0.4189
 7642TIP3    H144417   3.659   1.766   0.546  1.0425 -0.7518  1.0073
 7642TIP3    H244418   3.727   1.837   0.661 -0.4665  0.1034  1.3968
 7643TIP3   OH244419   6.090   5.114  12.226  0.5357  0.0919 -0.0167
 7643TIP3    H144420   6.168   5.161  12.255 -0.0068  1.5635 -0.8280
 7643TIP3    H244421   6.109   5.089  12.135 -0.3073  1.3850 -0.5736
 7644TIP3   OH244422   3.163   5.824  14.680 -0.2464 -0.3262  0.4984
 7644TIP3    H144423   3.230   5.867  14.733 -1.0734  0.2626  1.0882
 7644TIP3    H244424   3.133   5.751  14.733 -1.0435  0.2356  0.8442
 7645TIP3   OH244425   3.663   5.263  10.763 -0.4846 -0.8876  0.3472
 7645TIP3    H144426   3.747   5.218  10.749 -0.6107 -1.1205  0.3378
 7645TIP3    H244427   3.638   5.293  10.675 -0.2167 -0.4668  0.4091
 7646TIP3   OH244428   0.193   4.399   3.622 -0.7533  0.6261  0.4880
 7646TIP3    H144429   0.132   4.431   3.556 -1.7811  1.4251  1.7729
 7646TIP3    H244430   0.205   4.473   3.682  2.0641  0.7290 -0.0952
 7647TIP3   OH244431   0.355   4.791   5.086  0.2851  0.2614 -0.3844
 7647TIP3    H144432   0.400   4.764   5.006 -1.3415 -1.6724 -0.7048
 7647TIP3    H244433   0.263   4.777   5.068 -0.2280  1.0564  1.3932
 7648TIP3   OH244434   3.834   6.169  13.220 -0.4229  0.0918  0.4032
 7648TIP3    H144435   3.849   6.115  13.143 -1.7707 -2.4670  1.8108
 7648TIP3    H244436   3.747   6.208  13.205  0.8172  2.5780 -0.9096
 7649TIP3   OH244437   2.816   0.137  15.437 -0.2679 -0.2244 -0.3775
 7649TIP3    H144438   2.766   0.209  15.400  1.7723  1.8286  0.6272
 7649TIP3    H244439   2.833   0.163  15.527 -0.5002 -2.5885  0.4269
 7650TIP3   OH244440   6.242   0.905   4.941  0.0411  0.1636 -0.3983
 7650TIP3    H144441   6.230   0.952   5.023 -0.8132 -0.3824 -0.1969
 7650TIP3    H244442   6.157   0.865   4.924  0.6592 -1.0453 -0.7321
 7651TIP3   OH244443   5.077   6.028   2.572  0.2267  0.5907 -0.2748
 7651TIP3    H144444   5.090   6.039   2.478  0.3299 -0.2350 -0.3679
 7651TIP3    H244445   4.982   6.034   2.583 -0.0749 -1.9660 -0.8418
 7652TIP3   OH244446   2.144   0.128  16.746  0.1671  0.0648 -0.3677
 7652TIP3    H144447   2.169   0.035  16.750  1.3897  0.2429 -2.3581
 7652TIP3    H244448   2.145   0.149  16.652  2.6462  2.7467  0.0991
 7653TIP3   OH244449   6.666   3.156  16.373  0.0611  0.1572  0.2124
 7653TIP3    H144450   6.602   3.141  16.303 -0.8917  1.1605  0.8286
 7653TIP3    H244451   6.706   3.071  16.388 -0.4323 -0.2856 -0.8582
 7654TIP3   OH244452   1.199   5.222   2.048  0.4604 -0.1820 -0.0857
 7654TIP3    H144453   1.131   5.278   2.012  1.5651  0.4776 -1.2531
 7654TIP3    H244454   1.202   5.243   2.141 -3.2486 -2.7134  0.8231
 7655TIP3   OH244455   6.188   6.521  11.570 -0.0437 -0.0615  0.1622
 7655TIP3    H144456   6.101   6.544  11.604 -0.0533 -0.7950  0.6714
 7655TIP3    H244457   6.202   6.580  11.496 -1.8681 -1.3283 -1.2713
 7656TIP3   OH244458   1.078   1.568   2.207 -0.3197  0.1605 -0.0841
 7656TIP3    H144459   1.158   1.517   2.196  0.4575  1.4572 -0.6367
 7656TIP3    H244460   1.025   1.547   2.130  0.1676  0.4886 -0.5106
 7657TIP3   OH244461   3.579   2.760   2.930 -0.0259  0.3382 -0.2461
 7657TIP3    H144462   3.558   2.672   2.962  2.4334  0.5327  2.2952
 7657TIP3    H244463   3.620   2.745   2.845  0.3374 -0.9938  0.1401
 7658TIP3   OH244464   4.704   1.161   5.509  0.7824  0.4016  0.1311
 7658TIP3    H144465   4.694   1.080   5.460  1.0120 -0.1828  1.0215
 7658TIP3    H244466   4.786   1.150   5.557 -0.1349  0.3438  1.7522
 7659TIP3   OH244467   2.233   2.514   0.389  0.1888  0.1327  0.2298
 7659TIP3    H144468   2.158   2.574   0.395  1.0619  1.2782  0.1608
 7659TIP3    H244469   2.269   2.512   0.478  1.1248  1.0405 -0.0998
 7660TIP3   OH244470   4.473   0.532  16.498 -0.5779  0.1753  0.6809
 7660TIP3    H144471   4.471   0.463  16.564  1.1856  0.8046  1.4303
 7660TIP3    H244472   4.532   0.499  16.430  0.3928  0.9847  1.1130
 7661TIP3   OH244473   5.037   6.054  12.916 -0.6283  0.3561  0.3004
 7661TIP3    H144474   4.966   6.013  12.965 -0.3635 -0.9276 -0.3606
 7661TIP3    H244475   5.088   5.981  12.881  1.0321  1.2414  0.7622
 7662TIP3   OH244476   2.965   4.711  13.054 -0.8340  0.0973 -0.4770
 7662TIP3    H144477   3.034   4.749  13.000 -1.4406 -0.2161 -1.5019
 7662TIP3    H244478   2.973   4.755  13.138  0.6544  0.0161 -0.5507
 7663TIP3   OH244479   1.453   6.340   2.644 -0.3231 -0.4663  0.1624
 7663TIP3    H144480   1.412   6.299   2.720 -2.9508 -0.3050 -1.0418
 7663TIP3    H244481   1.503   6.413   2.680 -0.7964 -0.9008  1.7883
 7664TIP3   OH244482   1.137   2.309  15.046  0.6203 -0.0930 -0.9949
 7664TIP3    H144483   1.182   2.274  14.969 -0.4132 -0.9652 -1.2236
 7664TIP3    H244484   1.053   2.263  15.048  0.0711  0.8980 -0.1117
 7665TIP3   OH244485   4.323   3.116   0.788 -0.4761 -0.1470 -0.2178
 7665TIP3    H144486   4.389   3.138   0.853  0.0240 -0.2125 -0.6974
 7665TIP3    H244487   4.338   3.023   0.769 -1.5984 -0.5376  0.6831
 7666TIP3   OH244488   0.953   3.785   4.719  0.2261 -0.0057 -0.4410
 7666TIP3    H144489   1.034   3.810   4.675 -0.0983 -1.6392 -2.1109
 7666TIP3    H244490   0.890   3.773   4.648 -1.1363 -0.0123  0.7203
 7667TIP3   OH244491   6.530   3.021   2.172 -0.5899  0.2012 -0.2780
 7667TIP3    H144492   6.548   2.928   2.185  0.7815  0.4368 -0.2602
 7667TIP3    H244493   6.487   3.026   2.087 -1.1002 -0.4935 -0.0634
 7668TIP3   OH244494   6.074   6.691   4.362 -0.7093 -0.3319  0.0867
 7668TIP3    H144495   6.044   6.673   4.451  0.3615  0.8022  0.7187
 7668TIP3    H244496   6.016   6.760   4.330  0.5688  1.2728  1.0040
 7669TIP3   OH244497   2.588   0.845  17.013 -0.2180 -0.4587 -0.2917
 7669TIP3    H144498   2.531   0.769  17.023  1.1186 -1.7693 -1.9495
 7669TIP3    H244499   2.646   0.843  17.089 -1.0835 -0.2710  0.3798
 7670TIP3   OH244500   0.015   1.040  14.949 -0.2790 -0.1457 -0.0799
 7670TIP3    H144501  -0.066   1.088  14.936  0.5999  0.8498 -2.4385
 7670TIP3    H244502   0.027   1.037  15.044 -2.6046  0.4157  0.2746
 7671TIP3   OH244503   3.791   2.437   5.003 -0.6236 -0.0142  0.4976
 7671TIP3    H144504   3.846   2.465   5.075 -0.2578 -0.5055  0.4188
 7671TIP3    H244505   3.702   2.457   5.030 -0.3946  0.9331  0.5595
 7672TIP3   OH244506   1.870   1.214  14.716  0.6680  0.2017  0.0886
 7672TIP3    H144507   1.925   1.291  14.733  1.5072 -0.6924  1.6495
 7672TIP3    H244508   1.905   1.146  14.774 -2.1546 -0.3788  1.3234
 7673TIP3   OH244509   2.854   5.682  13.915  0.1063 -0.6937 -0.0413
 7673TIP3    H144510   2.838   5.773  13.939  0.2491 -1.1625  2.0322
 7673TIP3    H244511   2.809   5.671  13.831  0.4223  1.3745 -0.5249
 7674TIP3   OH244512   4.204   4.616   5.339  0.1031  0.0362 -0.0371
 7674TIP3    H144513   4.167   4.620   5.251  0.0526  2.2697  0.0272
 7674TIP3    H244514   4.299   4.612   5.325  0.2494  2.7325 -0.2726
 7675TIP3   OH244515   2.777   0.725  15.426 -0.0164  0.8085  0.0190
 7675TIP3    H144516   2.846   0.780  15.389 -0.6938  1.6015 -0.1223
 7675TIP3    H244517   2.798   0.637  15.397  1.4333  0.8890  0.7448
 7676TIP3   OH244518   4.132   1.999  15.066 -0.2037 -0.8198  0.2331
 7676TIP3    H144519   4.193   1.993  14.991 -0.4155 -2.2184  0.1444
 7676TIP3    H244520   4.152   1.922  15.119 -0.0727  0.1412  1.6428
 7677TIP3   OH244521   5.408   0.135  12.679 -0.1971  0.0147 -0.6716
 7677TIP3    H144522   5.340   0.089  12.729 -1.3994 -0.3379 -2.5064
 7677TIP3    H244523   5.468   0.065  12.651 -1.2742 -0.3063 -2.3130
 7678TIP3   OH244524   4.864   3.397  11.700  0.1847  0.1536 -0.3658
 7678TIP3    H144525   4.885   3.483  11.737 -1.8948  0.7400 -0.4281
 7678TIP3    H244526   4.829   3.417  11.613  1.7946 -0.9565 -1.3060
 7679TIP3   OH244527   0.961   4.039   1.235 -0.4755 -0.9187  0.6896
 7679TIP3    H144528   1.044   4.016   1.193  1.1792  2.7052  1.6020
 7679TIP3    H244529   0.897   4.038   1.163  1.2908  0.4425 -1.0143
 7680TIP3   OH244530   6.785   2.111  13.511 -0.4889 -0.8911  0.1680
 7680TIP3    H144531   6.832   2.031  13.533 -0.3695 -0.5815  1.0784
 7680TIP3    H244532   6.756   2.098  13.421  1.2570 -1.1237 -0.3906
 7681TIP3   OH244533   2.656   5.515  14.888  0.1187  0.4444  0.8636
 7681TIP3    H144534   2.656   5.536  14.795 -2.0106  2.4300  1.2156
 7681TIP3    H244535   2.666   5.420  14.891 -1.6638  0.0805 -1.5267
 7682TIP3   OH244536   1.544   1.493  10.380  0.0377 -0.2714  0.0730
 7682TIP3    H144537   1.461   1.539  10.390  0.1121  0.2480 -1.4310
 7682TIP3    H244538   1.610   1.561  10.393  0.3120 -0.8443  2.1310
 7683TIP3   OH244539   0.648   3.635   1.981  0.1694  0.0775  0.2644
 7683TIP3    H144540   0.731   3.658   2.022  0.2260  0.4386 -0.0504
 7683TIP3    H244541   0.612   3.718   1.951  0.0548 -0.1607 -0.2703
 7684TIP3   OH244542   3.013   3.141  11.570  0.3314 -0.1834 -0.1041
 7684TIP3    H144543   2.945   3.192  11.614  1.0133 -0.4625  1.3316
 7684TIP3    H244544   2.998   3.051  11.599 -0.0402 -0.6066 -1.5499
 7685TIP3   OH244545   5.645   3.156  15.749 -0.1307 -0.4904  0.3578
 7685TIP3    H144546   5.615   3.227  15.806 -1.0162 -0.9251  0.4475
 7685TIP3    H244547   5.688   3.200  15.676 -0.5946  0.1365  0.4547
 7686TIP3   OH244548   6.352   1.650  11.121  0.4274 -0.8724  0.5533
 7686TIP3    H144549   6.418   1.698  11.172 -0.1886  0.0684  0.4985
 7686TIP3    H244550   6.280   1.636  11.182 -1.3126  2.2940 -0.5255
 7687TIP3   OH244551   0.517   3.675   5.039 -0.2224 -0.4696  0.6380
 7687TIP3    H144552   0.443   3.623   5.007 -0.3278 -0.4765  0.8931
 7687TIP3    H244553   0.476   3.750   5.082 -0.0670  0.1163 -0.2198
 7688TIP3   OH244554   5.549   5.067  16.943 -0.4984  0.1866  0.2420
 7688TIP3    H144555   5.622   5.014  16.975 -0.7560  1.1211  2.5753
 7688TIP3    H244556   5.568   5.080  16.850  1.0118 -1.6246  0.2443
 7689TIP3   OH244557   4.098   5.798   2.451  0.3248  0.7320 -0.1685
 7689TIP3    H144558   4.083   5.704   2.440  0.8913  0.4419  1.2845
 7689TIP3    H244559   4.013   5.838   2.432 -0.1559 -0.1600  0.0286
 7690TIP3   OH244560   0.924   5.525  11.492 -1.1983  0.0680 -0.0474
 7690TIP3    H144561   0.964   5.537  11.578 -0.8385 -1.3798  0.0159
 7690TIP3    H244562   0.925   5.612  11.452 -0.8409  0.6477  1.1741
 7691TIP3   OH244563   0.801   6.769  12.105  0.3633  0.2789 -0.2754
 7691TIP3    H144564   0.705   6.765  12.095  0.6051 -0.0986 -3.8145
 7691TIP3    H244565   0.821   6.707  12.175 -1.9805  0.5947  0.7718
 7692TIP3   OH244566   0.222   4.098  11.738  0.5011  0.2693 -0.2402
 7692TIP3    H144567   0.231   4.164  11.669  2.1346  0.9962  0.6272
 7692TIP3    H244568   0.184   4.022  11.693  0.8900  0.9523 -1.7982
 7693TIP3   OH244569   4.188   1.409  13.583  0.5434  0.3857 -0.1075
 7693TIP3    H144570   4.230   1.347  13.643  0.3863 -0.6300 -1.0169
 7693TIP3    H244571   4.241   1.405  13.504 -0.6395 -0.1306 -0.9007
 7694TIP3   OH244572   2.053   1.993   4.867  0.0087  0.0508  0.6397
 7694TIP3    H144573   1.982   1.934   4.892 -0.7006  1.0016  0.8979
 7694TIP3    H244574   2.010   2.077   4.850  0.8327  0.1638 -1.0457
 7695TIP3   OH244575   2.107   0.026  14.143  0.3209  0.9709  0.2439
 7695TIP3    H144576   2.134   0.028  14.235 -0.1231  0.9111  0.3794
 7695TIP3    H244577   2.013   0.046  14.145  0.4392  1.6281 -0.2531
 7696TIP3   OH244578   3.643   2.438  15.979 -0.0891  0.1856 -0.3744
 7696TIP3    H144579   3.629   2.513  16.036  0.6363 -0.0097  0.0773
 7696TIP3    H244580   3.559   2.425  15.935 -2.2143 -2.2575  3.7470
 7697TIP3   OH244581   2.356   1.628   2.356  0.0648 -0.4943  0.9179
 7697TIP3    H144582   2.320   1.568   2.291 -2.2251  1.4364  0.2378
 7697TIP3    H244583   2.451   1.618   2.348 -0.1187 -0.8575 -2.2399
 7698TIP3   OH244584   3.241   6.460  11.365 -0.2747 -0.1635 -0.3760
 7698TIP3    H144585   3.246   6.418  11.279 -0.8846 -0.8998 -0.0601
 7698TIP3    H244586   3.200   6.544  11.347  1.2842  0.4929 -1.0681
 7699TIP3   OH244587   1.000   6.336   4.469 -0.5617 -0.0919 -0.0530
 7699TIP3    H144588   1.061   6.315   4.539  0.8218  2.6958 -0.2886
 7699TIP3    H244589   1.051   6.388   4.407 -2.8359  1.2744 -0.9105
 7700TIP3   OH244590   5.512   2.395  13.824 -0.4459 -0.2240 -0.2663
 7700TIP3    H144591   5.508   2.435  13.737  1.0514  2.1674  0.6518
 7700TIP3    H244592   5.444   2.441  13.875 -0.5585 -0.8099  0.1253
 7701TIP3   OH244593   5.835   0.189  10.435 -0.0277 -0.2296  0.2326
 7701TIP3    H144594   5.913   0.160  10.482 -0.0245  0.3869  0.6225
 7701TIP3    H244595   5.848   0.283  10.424  0.1624 -0.4316 -1.3893
 7702TIP3   OH244596   6.337   2.967   0.792 -0.2478  0.0485 -0.7346
 7702TIP3    H144597   6.364   2.947   0.882  0.5701 -1.0128 -1.1926
 7702TIP3    H244598   6.260   3.023   0.803 -1.0946 -1.2719  0.6599
 7703TIP3   OH244599   6.262   1.953   5.215 -0.6978  0.1220 -0.1728
 7703TIP3    H144600   6.333   1.962   5.278  0.6134  2.3512 -1.8238
 7703TIP3    H244601   6.220   1.870   5.238  1.6921 -0.7147  1.5971
 7704TIP3   OH244602   1.645   4.192  13.182 -0.3517 -0.1200 -0.3509
 7704TIP3    H144603   1.592   4.197  13.261  0.0821 -1.6560  0.0751
 7704TIP3    H244604   1.734   4.210  13.212 -0.3030  0.0795 -0.6206
 7705TIP3   OH244605   3.799   2.275   1.040 -0.0309  0.3319  0.4274
 7705TIP3    H144606   3.749   2.292   0.960  0.5402 -1.0408 -0.2646
 7705TIP3    H244607   3.737   2.287   1.111 -1.2455 -0.8710 -0.3851
 7706TIP3   OH244608   4.719   4.104   4.022 -0.0709  0.0240 -0.1282
 7706TIP3    H144609   4.745   4.018   4.057 -0.4194  0.1745  0.5150
 7706TIP3    H244610   4.782   4.121   3.952 -0.9882 -1.4933 -1.3927
 7707TIP3   OH244611   1.811   5.409  15.239  0.0610  0.7119 -0.2791
 7707TIP3    H144612   1.888   5.352  15.231  0.6177  1.2883  0.8524
 7707TIP3    H244613   1.839   5.492  15.201  0.4223  1.2999  1.2163
 7708TIP3   OH244614   4.216   6.359  13.721  0.1840  0.2270  0.2879
 7708TIP3    H144615   4.199   6.275  13.677 -0.2695 -0.7556  2.2539
 7708TIP3    H244616   4.301   6.348  13.762 -0.6764  0.0254  2.0849
 7709TIP3   OH244617   0.575   0.990  17.175 -0.2974  0.0086  0.1263
 7709TIP3    H144618   0.558   1.084  17.183  0.0710  0.0990 -0.1159
 7709TIP3    H244619   0.489   0.952  17.159 -0.3938  0.3610 -0.2377
 7710TIP3   OH244620   3.231   1.681   4.781  0.5041 -0.0130  0.5093
 7710TIP3    H144621   3.287   1.604   4.796 -0.2734 -0.6337  0.3201
 7710TIP3    H244622   3.214   1.716   4.868 -2.0063 -2.1686  1.0430
 7711TIP3   OH244623   5.821   5.628  11.588  0.4022 -0.0176  0.0070
 7711TIP3    H144624   5.831   5.561  11.655 -0.7339 -0.6953 -0.4818
 7711TIP3    H244625   5.911   5.650  11.563  0.8031 -0.7333  0.7783
 7712TIP3   OH244626   5.182   0.837  15.054  0.3235 -0.2469 -1.3352
 7712TIP3    H144627   5.102   0.862  15.100  0.4675 -2.1367  0.0553
 7712TIP3    H244628   5.233   0.917  15.048  0.2892  0.1274  1.8580
 7713TIP3   OH244629   1.057   4.635   2.232  0.8838  0.5713  0.0012
 7713TIP3    H144630   1.056   4.724   2.197 -1.0555  1.2939  1.7188
 7713TIP3    H244631   1.139   4.629   2.282  2.1928  0.5120 -1.9993
 7714TIP3   OH244632   4.270   2.962  15.258  0.1999  0.1656  0.0081
 7714TIP3    H144633   4.192   2.919  15.223  0.0543  0.2433  0.2359
 7714TIP3    H244634   4.324   2.890  15.290 -0.8440  0.2235  2.0544
 7715TIP3   OH244635   2.539   4.823  15.799 -0.0776  0.0168 -0.6163
 7715TIP3    H144636   2.483   4.798  15.726  2.3481  0.3011 -2.7355
 7715TIP3    H244637   2.581   4.905  15.771  1.1037  0.0300  0.9933
 7716TIP3   OH244638   0.707   5.680  11.279  0.4932 -0.4606 -0.0179
 7716TIP3    H144639   0.681   5.749  11.340 -0.9355 -0.4437 -0.5898
 7716TIP3    H244640   0.760   5.724  11.213 -0.0324  0.0213 -0.1286
 7717TIP3   OH244641   2.154   4.534   2.509 -0.7614  1.1163 -0.1795
 7717TIP3    H144642   2.234   4.566   2.467 -0.5380  0.1352 -0.5220
 7717TIP3    H244643   2.157   4.439   2.498 -1.5394  0.9897  0.5821
 7718TIP3   OH244644   4.467   5.758  12.400  0.2886  0.3276 -0.0692
 7718TIP3    H144645   4.509   5.844  12.405  2.4332 -0.6719  0.2111
 7718TIP3    H244646   4.506   5.717  12.323 -0.0939 -0.6942  0.2647
 7719TIP3   OH244647   2.873   1.558   4.126 -0.5313  0.3683 -0.0515
 7719TIP3    H144648   2.924   1.583   4.049 -0.1116 -1.3649 -0.3761
 7719TIP3    H244649   2.785   1.592   4.109  0.0012  1.5947 -0.4300
 7720TIP3   OH244650   0.527   1.039   5.018  0.6982 -0.1137  0.7593
 7720TIP3    H144651   0.484   1.096   5.081  0.9208 -0.7108  1.4619
 7720TIP3    H244652   0.565   0.969   5.070 -1.0971 -1.9158 -0.2067
 7721TIP3   OH244653   6.604   4.512  12.220 -0.2157  0.5193  0.4062
 7721TIP3    H144654   6.616   4.504  12.315 -0.3431 -2.3529  0.2729
 7721TIP3    H244655   6.668   4.451  12.183 -1.8848 -0.3515 -1.2100
 7722TIP3   OH244656   0.273   4.080  12.321  0.0169  0.3353  0.0089
 7722TIP3    H144657   0.339   4.111  12.384 -1.4486  0.7517  1.4066
 7722TIP3    H244658   0.245   4.158  12.274  1.1159  0.0241 -1.2394
 7723TIP3   OH244659   3.564   0.900   1.175 -0.1380 -0.2916 -0.7775
 7723TIP3    H144660   3.629   0.869   1.238  1.2768  1.0034 -1.5235
 7723TIP3    H244661   3.590   0.860   1.092 -1.9948 -1.9993 -0.6037
 7724TIP3   OH244662   3.244   3.528  14.500 -0.0912  0.5223  0.2310
 7724TIP3    H144663   3.316   3.475  14.535  0.0524 -0.9800 -2.1155
 7724TIP3    H244664   3.282   3.615  14.491  2.0470 -0.5465 -2.3665
 7725TIP3   OH244665   4.989   1.228  11.889 -0.0667  0.2174 -0.1036
 7725TIP3    H144666   5.081   1.252  11.899  0.6982 -2.1570 -0.7175
 7725TIP3    H244667   4.964   1.258  11.802  0.9525 -1.3657 -0.9851
 7726TIP3   OH244668   2.365   3.650   2.005 -0.0398 -0.1717  0.0402
 7726TIP3    H144669   2.355   3.735   2.047 -2.7348 -0.0111 -0.7364
 7726TIP3    H244670   2.292   3.598   2.038  1.7435 -2.3704  0.7628
 7727TIP3   OH244671   6.145   5.074   0.658 -0.0629 -0.0891  0.0781
 7727TIP3    H144672   6.149   5.018   0.736  0.9424 -1.5494 -0.9546
 7727TIP3    H244673   6.207   5.145   0.677  1.5700 -1.4041 -0.0510
 7728TIP3   OH244674   0.662   6.713  12.965  0.3928 -0.0885 -0.9181
 7728TIP3    H144675   0.570   6.721  12.987  0.5950  1.0749 -0.4699
 7728TIP3    H244676   0.705   6.687  13.046  0.5334 -0.1642 -1.0140
 7729TIP3   OH244677   2.943   4.209   4.755  0.1897  0.4993  0.0307
 7729TIP3    H144678   2.907   4.171   4.835  0.7145 -1.7370 -0.7213
 7729TIP3    H244679   3.036   4.189   4.759  0.2757  0.6520 -0.9856
 7730TIP3   OH244680   5.507   0.361  13.331 -0.4286  0.0141  0.7272
 7730TIP3    H144681   5.480   0.404  13.251 -2.7997  0.9927  1.9619
 7730TIP3    H244682   5.511   0.268  13.309 -2.5626  0.0996 -0.1780
 7731TIP3   OH244683   2.746   5.604   1.684  0.2247  0.5278 -0.3660
 7731TIP3    H144684   2.655   5.579   1.667 -0.2461  1.5081  0.5570
 7731TIP3    H244685   2.793   5.580   1.605 -0.3158 -2.4242  0.1065
 7732TIP3   OH244686   6.032   1.188   4.887 -0.1464  0.2359 -0.2604
 7732TIP3    H144687   6.081   1.165   4.808 -1.4035 -1.3970 -0.6245
 7732TIP3    H244688   6.093   1.173   4.959  0.7084  0.8095 -0.8610
 7733TIP3   OH244689   0.492   4.217   1.283  0.0929  0.1660  0.2604
 7733TIP3    H144690   0.400   4.205   1.305  0.5641 -0.0988  2.4091
 7733TIP3    H244691   0.509   4.154   1.213 -1.5419  0.8989 -0.8565
 7734TIP3   OH244692   4.085   1.199  10.589  0.0891 -0.0754  1.0109
 7734TIP3    H144693   4.080   1.158  10.676  0.1252  1.1793  1.6285
 7734TIP3    H244694   4.177   1.219  10.576 -0.1430  1.4872  1.5531
 7735TIP3   OH244695   4.238   6.611  15.601  0.5566 -0.6295 -0.8720
 7735TIP3    H144696   4.253   6.531  15.551 -1.0842 -1.1207 -0.6288
 7735TIP3    H244697   4.189   6.583  15.678 -1.7968  0.8130 -1.7484
 7736TIP3   OH244698   3.489   6.480   2.007  0.0382 -0.1048 -0.1281
 7736TIP3    H144699   3.551   6.552   2.016  0.9451 -0.7122 -1.2268
 7736TIP3    H244700   3.403   6.520   2.019  0.5459  1.0755 -0.3309
 7737TIP3   OH244701   4.060   4.689   6.057  0.0358 -0.2447 -0.2535
 7737TIP3    H144702   3.993   4.757   6.045  1.1717  0.8263 -0.8207
 7737TIP3    H244703   4.143   4.737   6.053  0.9213 -1.7852 -1.5573
 7738TIP3   OH244704   0.701   0.148  11.704 -0.5522  0.2911  0.1712
 7738TIP3    H144705   0.671   0.087  11.771 -0.5107  0.4216  0.3101
 7738TIP3    H244706   0.776   0.192  11.745 -0.7310  0.6048  0.1585
 7739TIP3   OH244707   2.197   1.610   0.304 -0.1840 -0.8992 -0.3038
 7739TIP3    H144708   2.172   1.534   0.250  1.8635 -0.5338 -1.8863
 7739TIP3    H244709   2.245   1.572   0.378  0.4981 -1.1789 -0.8851
 7740TIP3   OH244710   2.424   1.338  14.443  0.5856 -0.2182  0.0784
 7740TIP3    H144711   2.428   1.262  14.501  1.2848 -0.7227 -0.6106
 7740TIP3    H244712   2.374   1.403  14.492  1.6861 -0.3988  1.5091
 7741TIP3   OH244713   3.213   1.374   3.049 -0.3077 -0.6044 -0.9075
 7741TIP3    H144714   3.261   1.316   2.990 -0.9164 -0.9206 -1.0995
 7741TIP3    H244715   3.136   1.324   3.075  0.8393 -1.2018  1.6486
 7742TIP3   OH244716   1.353   3.885  16.596  0.0101 -0.1518 -0.6408
 7742TIP3    H144717   1.438   3.839  16.596 -0.1210 -0.3979 -0.6955
 7742TIP3    H244718   1.330   3.891  16.689  0.0001 -0.2529 -0.6365
 7743TIP3   OH244719   0.856   2.990   2.547 -0.0236 -0.1321  0.2259
 7743TIP3    H144720   0.903   2.914   2.515 -2.4326 -1.0116 -1.5823
 7743TIP3    H244721   0.874   3.058   2.482 -0.4463 -0.1674  0.0706
 7744TIP3   OH244722   5.263   0.409  11.260 -0.2545  0.3913 -0.2530
 7744TIP3    H144723   5.261   0.499  11.229  1.7363  0.0631 -1.5548
 7744TIP3    H244724   5.310   0.414  11.344 -0.7222  0.6258 -0.0001
 7745TIP3   OH244725   3.525   1.414   0.050  0.2855 -0.1445 -0.4730
 7745TIP3    H144726   3.458   1.402  -0.017  0.2047 -1.4369 -0.1753
 7745TIP3    H244727   3.484   1.386   0.131  1.3098 -1.4196 -0.3566
 7746TIP3   OH244728   6.116   2.961   5.071  0.0782  0.0974  0.1879
 7746TIP3    H144729   6.131   3.047   5.110  1.5890 -1.1916  2.8152
 7746TIP3    H244730   6.062   2.915   5.136 -1.1949 -0.7747 -1.4344
 7747TIP3   OH244731   0.807   6.194   0.557 -0.0017 -0.5258  0.4174
 7747TIP3    H144732   0.879   6.169   0.499 -1.2467 -2.2025 -0.4994
 7747TIP3    H244733   0.783   6.113   0.602 -1.0584  0.0759  0.9714
 7748TIP3   OH244734   3.184   2.114   1.151 -0.2964 -0.3650  0.5137
 7748TIP3    H144735   3.091   2.107   1.176 -0.6411 -0.4843 -0.7417
 7748TIP3    H244736   3.226   2.040   1.195 -1.1250 -1.3480 -0.3016
 7749TIP3   OH244737   6.293   5.314  11.460  0.4434 -0.9479  0.3101
 7749TIP3    H144738   6.326   5.277  11.378  0.3673  1.5844 -0.9488
 7749TIP3    H244739   6.203   5.280  11.467  0.3863 -1.0360 -0.7418
 7750TIP3   OH244740   6.693   6.789  16.278 -0.3778  0.3274 -0.3202
 7750TIP3    H144741   6.706   6.799  16.372  0.9410 -0.3872 -0.4018
 7750TIP3    H244742   6.658   6.874  16.250  1.1900  1.3032  0.4978
 7751TIP3   OH244743   6.695   5.838  13.016  1.0204 -0.3900 -0.0385
 7751TIP3    H144744   6.615   5.888  12.998  1.3873  0.6743  1.1409
 7751TIP3    H244745   6.760   5.877  12.958  0.8806 -0.6971 -0.4012
 7752TIP3   OH244746   4.868   3.514   0.910 -0.0654  0.2357 -0.0868
 7752TIP3    H144747   4.886   3.544   0.821 -1.9222  1.0838 -0.2314
 7752TIP3    H244748   4.917   3.432   0.918  0.6836  0.4853 -1.6381
 7753TIP3   OH244749   1.039   4.000  16.287 -0.0264 -0.0500  1.0451
 7753TIP3    H144750   1.065   4.063  16.355  0.1531 -0.2296  1.1449
 7753TIP3    H244751   0.967   4.043  16.240  0.5647  0.5388  0.6491
 7754TIP3   OH244752   5.109   5.345  11.180  0.2095  0.0325 -0.1441
 7754TIP3    H144753   5.198   5.317  11.203  0.2798  0.1951 -0.2145
 7754TIP3    H244754   5.085   5.288  11.107 -0.8790 -2.0255  1.7166
 7755TIP3   OH244755   2.255   6.598   3.346 -0.1822  0.4801 -0.0421
 7755TIP3    H144756   2.180   6.551   3.383 -0.2275 -0.6697 -1.5208
 7755TIP3    H244757   2.330   6.542   3.365  0.0862  0.8981  0.1308
 7756TIP3   OH244758   1.608   2.088   6.856 -0.0231  0.1414 -0.3880
 7756TIP3    H144759   1.624   2.033   6.932  4.0843  0.2598 -0.9682
 7756TIP3    H244760   1.585   2.027   6.786 -1.4703 -0.1655  0.3065
 7757TIP3   OH244761   6.140   2.742   0.810  0.0369  0.0337 -0.1278
 7757TIP3    H144762   6.151   2.683   0.885 -0.3018  0.4482  0.2523
 7757TIP3    H244763   6.226   2.780   0.797 -0.3425  1.5226  1.3764
 7758TIP3   OH244764   4.432   5.973   1.796  0.1297 -0.5151  0.0329
 7758TIP3    H144765   4.465   6.062   1.791  1.3864 -1.0399 -1.5557
 7758TIP3    H244766   4.431   5.942   1.706 -3.6281 -0.9763  0.0740
 7759TIP3   OH244767   0.636   1.458   0.230  0.9724  0.5341 -0.4442
 7759TIP3    H144768   0.551   1.488   0.262  1.2387  0.3316  0.4915
 7759TIP3    H244769   0.691   1.455   0.309  0.7562 -3.1387 -0.2396
 7760TIP3   OH244770   6.120   6.608  14.409  0.2384  0.1402  0.3944
 7760TIP3    H144771   6.214   6.593  14.409  0.1831 -0.9073 -2.9085
 7760TIP3    H244772   6.108   6.690  14.362 -0.5171 -0.3823 -0.3602
 7761TIP3   OH244773   5.292   6.756  14.721 -0.1314  0.3125  0.3172
 7761TIP3    H144774   5.329   6.709  14.796 -0.2081  0.5097  0.4788
 7761TIP3    H244775   5.294   6.692  14.649  0.1741  0.2044  0.4216
 7762TIP3   OH244776   3.968   4.077  14.054 -0.1716 -0.0747 -0.6047
 7762TIP3    H144777   3.944   3.989  14.024  0.0701 -0.5395  0.4936
 7762TIP3    H244778   4.047   4.098  14.006  1.1664 -1.5020  0.8502
 7763TIP3   OH244779   1.737   3.336   0.315 -0.2779 -0.3886 -0.0778
 7763TIP3    H144780   1.731   3.406   0.250 -1.4004  0.7769  1.2220
 7763TIP3    H244781   1.701   3.374   0.395 -1.2300 -2.5733  0.5958
 7764TIP3   OH244782   5.074   5.334   2.640 -0.2016 -0.2372 -0.9139
 7764TIP3    H144783   5.135   5.390   2.688  0.0243 -0.5352 -0.8489
 7764TIP3    H244784   5.022   5.394   2.588 -0.6589  0.1252 -0.0670
 7765TIP3   OH244785   5.182   5.348   0.377 -0.4794 -0.0771 -0.1401
 7765TIP3    H144786   5.130   5.293   0.318 -0.6742 -0.0436 -0.0005
 7765TIP3    H244787   5.269   5.309   0.375 -0.0560  0.8375 -1.6621
 7766TIP3   OH244788   1.928   4.366   4.783 -0.7455 -0.1398 -0.1513
 7766TIP3    H144789   1.841   4.400   4.764 -0.4376  0.8936  0.2464
 7766TIP3    H244790   1.923   4.274   4.757 -1.0572  0.5876 -2.9422
 7767TIP3   OH244791   2.021   5.219  12.188  0.0360  0.0180 -0.5956
 7767TIP3    H144792   2.037   5.125  12.182 -0.7118 -0.1630  0.0036
 7767TIP3    H244793   1.996   5.245  12.099  0.4253 -0.3074 -0.8035
 7768TIP3   OH244794   3.006   3.700   4.952  0.5021  0.4363  0.0292
 7768TIP3    H144795   2.932   3.745   4.993 -0.4845  0.8167 -2.0272
 7768TIP3    H244796   3.083   3.737   4.995 -0.4415  0.9235  1.3769
 7769TIP3   OH244797   1.470   2.353  14.993  0.5023 -0.2678  0.5026
 7769TIP3    H144798   1.384   2.390  15.012  0.1332  0.4347 -2.1600
 7769TIP3    H244799   1.516   2.422  14.945  1.5399 -1.5831 -0.4743
 7770TIP3   OH244800   4.204   1.857  13.342  0.6115  0.1930  0.1588
 7770TIP3    H144801   4.245   1.792  13.285  1.3419  1.4415 -0.7984
 7770TIP3    H244802   4.200   1.815  13.428  2.2690 -0.6391 -0.1330
 7771TIP3   OH244803   3.833   4.228   3.224 -0.7380 -0.5102 -0.4628
 7771TIP3    H144804   3.921   4.234   3.261 -1.0150 -0.8748  0.2683
 7771TIP3    H244805   3.819   4.314   3.184 -0.9158  0.3760  1.3973
 7772TIP3   OH244806   0.742   6.639  17.138  0.3009 -0.1189 -0.2455
 7772TIP3    H144807   0.826   6.605  17.168  1.2348  2.4288  0.2466
 7772TIP3    H244808   0.761   6.728  17.108 -1.8274 -0.2296 -2.2384
 7773TIP3   OH244809   5.913   1.490  15.579  0.3619  0.1712  0.1022
 7773TIP3    H144810   5.955   1.461  15.498 -1.1180  1.3742 -1.1399
 7773TIP3    H244811   5.924   1.415  15.639  2.8627 -0.1578 -0.6230
 7774TIP3   OH244812   1.104   6.005  13.666 -0.1534 -0.1872 -0.5189
 7774TIP3    H144813   1.027   6.012  13.723 -1.2193  2.9528 -2.1219
 7774TIP3    H244814   1.092   5.921  13.621 -1.3201 -0.8951  1.0059
 7775TIP3   OH244815   3.057   5.304   1.791  0.1799  0.3993  0.1267
 7775TIP3    H144816   3.082   5.212   1.801 -0.6709  0.0348 -1.0236
 7775TIP3    H244817   3.139   5.352   1.807  0.9606 -0.6221 -0.6615
 7776TIP3   OH244818   0.748   0.127   1.272 -0.3236 -0.2330  0.4022
 7776TIP3    H144819   0.686   0.109   1.201  0.4264 -0.3793 -0.2248
 7776TIP3    H244820   0.721   0.212   1.306 -1.4555 -0.7186  0.7716
 7777TIP3   OH244821   4.827   5.200  11.874 -0.0792 -0.7961  0.1556
 7777TIP3    H144822   4.832   5.105  11.860 -1.3437 -1.0090  1.0282
 7777TIP3    H244823   4.742   5.225  11.838 -0.5708 -0.3207  1.5972
 7778TIP3   OH244824   1.032   1.698  15.515  0.1275  0.5502 -0.4976
 7778TIP3    H144825   1.029   1.793  15.511 -1.4483  0.4884 -1.2808
 7778TIP3    H244826   0.951   1.669  15.475  1.4367 -1.1841 -2.0696
 7779TIP3   OH244827   6.726   6.112   1.891 -0.2638  0.1679 -0.3157
 7779TIP3    H144828   6.692   6.175   1.954 -2.2154 -0.5176 -0.6257
 7779TIP3    H244829   6.734   6.162   1.809  1.2759  0.7844  0.1676
 7780TIP3   OH244830   6.640   3.695  15.879 -0.7444  0.2995 -0.1365
 7780TIP3    H144831   6.604   3.675  15.793  0.1087  0.3216 -0.5107
 7780TIP3    H244832   6.624   3.789  15.891  0.7739  0.7184 -1.0992
 7781TIP3   OH244833   3.766   3.130   4.167 -0.1180  0.5000 -0.2001
 7781TIP3    H144834   3.778   3.201   4.104 -0.4921 -0.3371 -1.2653
 7781TIP3    H244835   3.701   3.162   4.229  1.3474  1.9153  0.6863
 7782TIP3   OH244836   3.553   3.995  14.761  0.0409 -0.2187  0.4414
 7782TIP3    H144837   3.543   4.056  14.835 -1.4073 -1.4713  1.3559
 7782TIP3    H244838   3.539   3.909  14.800  0.1895 -0.9902 -1.1444
 7783TIP3   OH244839   3.016   6.244   6.279  0.4557 -0.2027  0.7183
 7783TIP3    H144840   3.056   6.220   6.363 -0.0208 -1.1268  0.6996
 7783TIP3    H244841   2.934   6.195   6.277 -0.0256  0.5975  0.1500
 7784TIP3   OH244842   6.711   5.938  11.708  0.1004  0.4100  0.0504
 7784TIP3    H144843   6.760   5.884  11.770  1.2540  1.3860  0.0128
 7784TIP3    H244844   6.695   6.020  11.754 -2.4581 -0.2257  0.4551
 7785TIP3   OH244845   6.766   1.329  16.241 -0.0329  0.3126  0.1207
 7785TIP3    H144846   6.752   1.315  16.148  0.3753  1.3635 -0.1028
 7785TIP3    H244847   6.724   1.253  16.283 -0.7318  0.1333 -0.8734
 7786TIP3   OH244848   2.937   6.706  15.338  0.2966 -0.2827 -0.1782
 7786TIP3    H144849   3.003   6.683  15.403  0.0027  1.1175  0.6745
 7786TIP3    H244850   2.889   6.778  15.378 -1.8427 -1.3334 -0.7331
 7787TIP3   OH244851   0.383   3.296   4.946 -0.1098 -0.4175  0.1206
 7787TIP3    H144852   0.341   3.222   4.902 -0.6205 -0.1019  0.0621
 7787TIP3    H244853   0.444   3.331   4.881 -1.3206  0.4386 -0.6032
 7788TIP3   OH244854   0.852   6.147  11.467  0.9375 -0.1562  0.2930
 7788TIP3    H144855   0.811   6.205  11.403 -0.4849 -1.0068  0.3988
 7788TIP3    H244856   0.943   6.178  11.472  1.4430 -0.7911 -2.9730
 7789TIP3   OH244857   0.162   1.686   2.940  0.6847  0.0481  0.7027
 7789TIP3    H144858   0.071   1.687   2.970  1.0650 -0.3582  1.9366
 7789TIP3    H244859   0.171   1.766   2.887 -0.1366  0.5906  1.3535
 7790TIP3   OH244860   1.366   1.857  15.099  0.4677  0.0490  0.0672
 7790TIP3    H144861   1.279   1.823  15.117  0.3793  1.2522  2.3234
 7790TIP3    H244862   1.351   1.946  15.066  0.7815 -0.9735 -3.1197
 7791TIP3   OH244863   5.549   6.284   5.715 -0.0377 -0.1263 -0.8763
 7791TIP3    H144864   5.552   6.194   5.747 -1.8329 -0.4320 -1.4777
 7791TIP3    H244865   5.578   6.278   5.624  0.8789  0.0960 -0.6155
 7792TIP3   OH244866   4.469   1.274  16.815  0.1076  0.0479  0.2316
 7792TIP3    H144867   4.488   1.317  16.732  1.0969 -0.2541  0.2879
 7792TIP3    H244868   4.554   1.241  16.845 -0.2331  0.1492  1.3593
 7793TIP3   OH244869   0.079   6.786   1.986 -0.0829 -0.2517  0.1385
 7793TIP3    H144870   0.151   6.723   1.982  0.1983  0.0742 -0.0087
 7793TIP3    H244871   0.114   6.864   1.943 -0.6989 -0.2618 -0.3886
 7794TIP3   OH244872   2.418   4.868  12.232  0.0637 -0.5645  0.3396
 7794TIP3    H144873   2.433   4.853  12.325  0.6092  0.4264  0.4183
 7794TIP3    H244874   2.505   4.884  12.196 -0.3788  1.5443  0.1259
 7795TIP3   OH244875   2.596   1.218  12.923  0.1438 -0.7469  0.2306
 7795TIP3    H144876   2.619   1.210  13.015 -0.9238 -0.4840  0.5363
 7795TIP3    H244877   2.500   1.222  12.922  0.1274 -0.9622 -0.9047
 7796TIP3   OH244878   4.518   5.868   5.769  0.1757 -0.1231  0.0210
 7796TIP3    H144879   4.507   5.941   5.708 -0.1769 -0.6268 -0.5244
 7796TIP3    H244880   4.430   5.851   5.803  0.3442  0.0513  0.5537
 7797TIP3   OH244881   2.443   2.328   0.025  0.0343 -0.1857  0.2391
 7797TIP3    H144882   2.507   2.300  -0.041  0.9901  1.0284  0.6121
 7797TIP3    H244883   2.490   2.394   0.077 -2.1138  2.2572 -0.6993
 7798TIP3   OH244884   4.275   1.163  16.661  0.0208 -0.2409 -0.2292
 7798TIP3    H144885   4.319   1.143  16.579 -0.9391  1.7768 -1.3026
 7798TIP3    H244886   4.346   1.183  16.722  0.8822  5.2663 -2.5175
 7799TIP3   OH244887   0.982   1.399   4.639 -0.0074 -0.3297 -0.1505
 7799TIP3    H144888   0.950   1.317   4.676 -0.5189  0.8011  2.0587
 7799TIP3    H244889   1.066   1.414   4.683 -0.2345  0.6411 -0.0267
 7800TIP3   OH244890   5.728   2.145  15.897 -0.4179  0.5017 -0.5685
 7800TIP3    H144891   5.644   2.188  15.881 -1.0975 -1.0711 -1.5586
 7800TIP3    H244892   5.737   2.083  15.825  0.4507 -1.0571  0.8032
 7801TIP3   OH244893   1.095   3.647  17.003 -0.4254  0.3934  0.0782
 7801TIP3    H144894   1.012   3.649  16.954 -0.8519 -1.7150  0.6102
 7801TIP3    H244895   1.068   3.633  17.094  0.4350  2.5683  0.7350
 7802TIP3   OH244896   0.636   3.046   0.990 -0.8137 -0.0374  0.0609
 7802TIP3    H144897   0.707   2.985   0.973  0.5436  1.2991  0.7355
 7802TIP3    H244898   0.558   3.003   0.955  0.1776 -1.9088  0.0570
 7803TIP3   OH244899   1.174   0.391  16.303  0.2996 -0.2007 -0.0335
 7803TIP3    H144900   1.229   0.351  16.371  0.6492 -0.2988 -0.3716
 7803TIP3    H244901   1.117   0.451  16.351 -0.4062 -1.2900  0.5009
 7804TIP3   OH244902   1.862   3.537   5.802 -0.1870 -0.4258 -0.0091
 7804TIP3    H144903   1.937   3.575   5.757 -0.4810  0.6853  0.3895
 7804TIP3    H244904   1.809   3.613   5.828 -0.0900 -1.0016  2.0987
 7805TIP3   OH244905   2.903   0.335   2.826  0.3708 -0.0945  0.2774
 7805TIP3    H144906   2.878   0.382   2.747 -0.7777  1.1351  1.3132
 7805TIP3    H244907   2.825   0.338   2.881  1.4210 -0.1058  1.8294
 7806TIP3   OH244908   5.225   4.554  16.007  0.1343 -0.8855 -0.4833
 7806TIP3    H144909   5.246   4.547  16.100  1.4520  0.5350 -0.6533
 7806TIP3    H244910   5.129   4.546  16.004  0.0653 -0.9257  0.9881
 7807TIP3   OH244911   3.738   1.655  11.036  0.2550  0.5238  0.5339
 7807TIP3    H144912   3.810   1.678  10.978 -0.5232  0.8082 -0.3345
 7807TIP3    H244913   3.698   1.578  10.995  1.8123 -1.5036  2.5295
 7808TIP3   OH244914   0.509   3.515  11.777 -0.0996  0.0072  0.0617
 7808TIP3    H144915   0.567   3.507  11.852 -0.4038 -1.7476  0.1590
 7808TIP3    H244916   0.453   3.589  11.798 -0.3345 -0.5842  1.7066
 7809TIP3   OH244917   5.509   1.452   3.947 -0.2055 -0.2354  0.4216
 7809TIP3    H144918   5.443   1.460   4.016  1.6324 -0.2384  2.2963
 7809TIP3    H244919   5.531   1.542   3.925 -0.6281 -0.2323  0.0221
 7810TIP3   OH244920   4.463   4.594  12.302  0.1519  0.1963 -0.0072
 7810TIP3    H144921   4.481   4.612  12.210 -1.6134 -0.1395 -0.4589
 7810TIP3    H244922   4.429   4.504  12.303  0.9591 -0.1230  1.0962
 7811TIP3   OH244923   5.272   3.384   2.085 -0.3648  0.2766 -0.3105
 7811TIP3    H144924   5.275   3.458   2.146 -0.3630  1.8656 -2.1458
 7811TIP3    H244925   5.185   3.391   2.045 -1.3435 -2.1988  1.1550
 7812TIP3   OH244926   2.675   5.996   3.588 -0.6959  0.0836 -0.3222
 7812TIP3    H144927   2.697   5.912   3.628 -0.6016 -0.4342 -1.4239
 7812TIP3    H244928   2.626   5.973   3.509  0.9769  0.9604 -1.6826
 7813TIP3   OH244929   5.360   4.162  17.199 -0.2961 -0.9200 -0.4038
 7813TIP3    H144930   5.276   4.150  17.244 -0.5937  1.1207 -0.3267
 7813TIP3    H244931   5.424   4.173  17.269 -0.1639 -1.2425 -0.4717
 7814TIP3   OH244932   5.620   0.874  15.874 -0.1350 -0.3758 -0.0650
 7814TIP3    H144933   5.681   0.862  15.946  0.4725  0.3072 -0.4432
 7814TIP3    H244934   5.669   0.848  15.796 -0.5459 -0.4466 -0.3023
 7815TIP3   OH244935   0.269   4.485  15.043  0.0684  0.0484 -0.7210
 7815TIP3    H144936   0.331   4.485  15.116  0.9396  1.0239 -1.4369
 7815TIP3    H244937   0.200   4.546  15.070 -0.4029 -0.7592 -0.0777
 7816TIP3   OH244938   0.661   0.985  13.623  0.0300  0.0391 -0.3667
 7816TIP3    H144939   0.750   1.016  13.639 -0.4327  2.0478 -1.2666
 7816TIP3    H244940   0.605   1.055  13.658 -1.1298 -0.3582 -1.3524
 7817TIP3   OH244941   5.211   4.528  15.068 -0.8153  0.0828 -0.2206
 7817TIP3    H144942   5.235   4.617  15.044 -1.2167 -0.0656 -1.2155
 7817TIP3    H244943   5.294   4.479  15.066 -0.2625  0.7643  2.1051
 7818TIP3   OH244944   3.113   0.169  11.796  0.3494  0.0543  0.4947
 7818TIP3    H144945   3.049   0.240  11.802  0.3954  0.0441  1.1593
 7818TIP3    H244946   3.186   0.198  11.850  0.2751 -0.5939  0.9589
 7819TIP3   OH244947   6.749   2.688   1.653 -0.4848  0.3262  0.1535
 7819TIP3    H144948   6.735   2.720   1.742  0.4999  0.2783  0.3369
 7819TIP3    H244949   6.840   2.710   1.633 -0.4053 -0.5109 -0.4862
 7820TIP3   OH244950   0.002   0.177   1.355 -0.2823  0.2215  0.4495
 7820TIP3    H144951   0.035   0.113   1.292  2.2014  0.5930  1.2712
 7820TIP3    H244952  -0.022   0.125   1.432  0.9159  0.1557  0.7977
 7821TIP3   OH244953   4.173   6.645   4.483 -0.3514  0.5313  0.1961
 7821TIP3    H144954   4.090   6.676   4.520 -0.6076 -0.3230  0.3753
 7821TIP3    H244955   4.238   6.662   4.550 -0.5542  0.3469  0.4440
 7822TIP3   OH244956   0.467   2.024  13.810 -0.3360  0.0269  0.0307
 7822TIP3    H144957   0.398   1.981  13.759  0.2575 -1.4157  0.3959
 7822TIP3    H244958   0.542   2.028  13.750 -0.2726  0.2152  0.1222
 7823TIP3   OH244959   5.218   4.721  13.494  0.0761  0.5557  0.3865
 7823TIP3    H144960   5.229   4.814  13.514  0.7590  0.5174  0.1894
 7823TIP3    H244961   5.128   4.714  13.462 -0.7643  0.7830  2.5119
 7824TIP3   OH244962   3.093   0.867   1.914  0.1747 -0.1768 -0.0523
 7824TIP3    H144963   3.157   0.891   1.847 -2.5297  0.0377 -2.7838
 7824TIP3    H244964   3.039   0.945   1.926 -0.4210 -0.7390  1.1404
 7825TIP3   OH244965   4.905   6.393   1.748  0.4133  0.5874  0.3791
 7825TIP3    H144966   4.883   6.330   1.816 -2.4998  0.6769 -0.3339
 7825TIP3    H244967   4.947   6.341   1.680  0.8318 -0.0028  1.0719
 7826TIP3   OH244968   2.888   4.538   2.961 -0.0785  0.1307  0.0369
 7826TIP3    H144969   2.956   4.476   2.936 -0.8388 -0.5498 -0.3935
 7826TIP3    H244970   2.841   4.495   3.033 -0.9082 -0.0144 -0.5817
 7827TIP3   OH244971   5.208   0.615   3.424 -0.0990 -0.2629 -0.1031
 7827TIP3    H144972   5.215   0.711   3.418  2.2013 -0.4635 -2.4593
 7827TIP3    H244973   5.144   0.592   3.357 -1.1553 -0.3696  0.9202
 7828TIP3   OH244974   3.450   4.345   4.018 -0.2710  0.4684 -0.6358
 7828TIP3    H144975   3.476   4.257   3.991  1.9917  0.7668  0.3705
 7828TIP3    H244976   3.463   4.399   3.939  0.2184  0.2351 -0.7166
 7829TIP3   OH244977   1.067   3.774   1.462 -0.1961 -0.4037  0.2843
 7829TIP3    H144978   1.116   3.776   1.545  3.4102  0.4368 -1.6542
 7829TIP3    H244979   0.997   3.839   1.474 -0.2770 -0.8583  2.8809
 7830TIP3   OH244980   6.301   2.025   2.161  0.0589 -0.5013 -0.2476
 7830TIP3    H144981   6.325   1.978   2.082  1.7477  1.4170 -0.9728
 7830TIP3    H244982   6.245   2.097   2.131  0.5786  0.1507  0.3012
 7831TIP3   OH244983   5.837   3.343  11.849  0.6695  0.3374 -0.7121
 7831TIP3    H144984   5.840   3.262  11.799 -1.2860  0.2777 -0.8251
 7831TIP3    H244985   5.744   3.365  11.853  0.9976  1.6326  0.8350
 7832TIP3   OH244986   2.216   0.272  14.006  0.6404 -0.4698 -0.6639
 7832TIP3    H144987   2.302   0.270  14.047  0.7768 -0.0719 -0.9270
 7832TIP3    H244988   2.176   0.188  14.031  1.1268 -0.6878 -0.6006
 7833TIP3   OH244989   1.465   2.444   0.069  0.0222 -0.0882 -0.1312
 7833TIP3    H144990   1.419   2.465  -0.012 -0.0680  0.7607  0.1326
 7833TIP3    H244991   1.398   2.404   0.124 -0.0260 -0.2583 -0.3126
 7834TIP3   OH244992   2.910   3.809  10.394 -0.3367  0.1951 -0.4853
 7834TIP3    H144993   2.899   3.715  10.408 -1.9355  0.4439  0.2265
 7834TIP3    H244994   2.973   3.816  10.323  0.6787 -1.3873  0.2147
 7835TIP3   OH244995   4.019   0.051  11.642 -0.8373 -0.2298  0.3153
 7835TIP3    H144996   4.044  -0.031  11.685  0.2825  0.7958  1.6990
 7835TIP3    H244997   4.022   0.116  11.711 -0.9456  1.1377 -0.9213
 7836TIP3   OH244998   5.344   6.667  15.262  0.0476  0.1279  0.1181
 7836TIP3    H144999   5.336   6.575  15.285 -1.5614  0.2411  0.1171
 7836TIP3    H245000   5.429   6.694  15.297  0.0773 -1.0937  1.0064
 7837TIP3   OH245001   0.923   5.122  11.648 -0.2709 -0.0059 -0.2264
 7837TIP3    H145002   0.864   5.070  11.594 -0.8821  0.5913 -0.1454
 7837TIP3    H245003   0.992   5.150  11.587 -1.6161  1.7166 -1.0652
 7838TIP3   OH245004   1.597   2.935   3.986 -0.0573  0.3009  0.1334
 7838TIP3    H145005   1.503   2.924   3.999 -0.1854  1.0416 -0.1074
 7838TIP3    H245006   1.606   3.020   3.942  0.4277 -1.2621 -3.0862
 7839TIP3   OH245007   5.943   2.521   4.663  0.0187  0.4174 -0.4446
 7839TIP3    H145008   5.946   2.425   4.668  2.2475  0.4392 -0.0308
 7839TIP3    H245009   5.948   2.550   4.754 -2.8970  1.0011 -0.3749
 7840TIP3   OH245010   6.486   5.938   3.165 -0.3229  0.3798 -0.1892
 7840TIP3    H145011   6.557   5.979   3.215  0.0377 -1.0642  0.5426
 7840TIP3    H245012   6.407   5.977   3.201  0.0464  1.3452 -0.3857
 7841TIP3   OH245013   0.369   3.026   0.795  0.1149 -0.3964  0.2222
 7841TIP3    H145014   0.350   3.119   0.808 -3.0935 -0.8317 -0.6396
 7841TIP3    H245015   0.348   2.985   0.879 -1.0053 -0.6423 -0.1647
 7842TIP3   OH245016   0.414   0.236   4.127 -0.1657 -0.3949  0.2117
 7842TIP3    H145017   0.432   0.162   4.186  0.8299  0.7183  1.3793
 7842TIP3    H245018   0.441   0.313   4.177  1.3633  0.5757 -1.9449
 7843TIP3   OH245019   2.040   6.599  14.013 -0.5606  0.2071  0.7537
 7843TIP3    H145020   2.095   6.527  14.042  2.1292  1.8854  0.1935
 7843TIP3    H245021   2.082   6.677  14.050 -2.6877  1.5896  0.4153
 7844TIP3   OH245022   5.961   5.017  13.560  0.5390  0.1239  0.0540
 7844TIP3    H145023   5.937   5.061  13.478  0.3655 -1.2348 -0.6536
 7844TIP3    H245024   5.878   5.007  13.607  0.4786 -0.0227 -0.0822
 7845TIP3   OH245025   6.110   3.513  11.176 -0.1162 -0.4279 -0.4041
 7845TIP3    H145026   6.205   3.525  11.171 -0.0856  0.0519  0.8852
 7845TIP3    H245027   6.092   3.501  11.270 -1.4725  1.0047 -0.4283
 7846TIP3   OH245028   4.939   4.071  15.460  0.6062 -0.3897  0.3212
 7846TIP3    H145029   4.977   4.029  15.382  1.2550  1.9054 -0.6864
 7846TIP3    H245030   4.963   4.163  15.451 -2.4434  0.6012  1.3797
 7847TIP3   OH245031   0.635   2.787  11.567 -0.1491  0.3153 -0.0307
 7847TIP3    H145032   0.609   2.767  11.477 -0.7307  0.2165  0.1564
 7847TIP3    H245033   0.731   2.778  11.567 -0.1997 -0.2722 -0.4921
 7848TIP3   OH245034   3.792   3.248   2.815 -0.6122  0.3050  0.0507
 7848TIP3    H145035   3.716   3.230   2.870 -1.1282 -2.0547 -1.3075
 7848TIP3    H245036   3.762   3.228   2.726  1.1250  0.9381 -0.7173
 7849TIP3   OH245037   1.056   0.748  14.008  0.2190 -0.0966  0.5940
 7849TIP3    H145038   1.150   0.762  13.995 -0.2821  4.9360  0.0195
 7849TIP3    H245039   1.039   0.779  14.097 -1.0480  1.3319 -0.0761
 7850TIP3   OH245040   1.439   6.156   5.349  0.3929 -0.1260  0.2839
 7850TIP3    H145041   1.361   6.209   5.331 -1.1975 -2.6912 -0.9901
 7850TIP3    H245042   1.433   6.136   5.442  0.6651  1.3161  0.6393
 7851TIP3   OH245043   0.259   0.473  11.593  0.1431 -0.0722  0.5088
 7851TIP3    H145044   0.184   0.433  11.547  0.4133  2.1660 -2.1768
 7851TIP3    H245045   0.330   0.410  11.582  0.1456  0.2545 -2.2397
 7852TIP3   OH245046   1.387   0.600  12.925  0.6699  0.6064 -0.5772
 7852TIP3    H145047   1.343   0.628  12.845  1.9686  1.8839 -0.8751
 7852TIP3    H245048   1.472   0.643  12.923  1.3386 -0.5601  0.7506
 7853TIP3   OH245049   6.419   0.512  14.284  0.3920  0.0813 -0.1559
 7853TIP3    H145050   6.504   0.523  14.241  0.9067 -1.0733  0.5027
 7853TIP3    H245051   6.381   0.435  14.242  0.3178 -0.2615  0.5168
 7854TIP3   OH245052   0.802   6.563  16.835 -0.6843  0.2058  0.1330
 7854TIP3    H145053   0.824   6.520  16.752 -0.8058 -1.6150  0.9965
 7854TIP3    H245054   0.872   6.627  16.848  1.5091 -2.0968  0.4386
 7855TIP3   OH245055   2.230   2.994   6.013 -0.2575 -0.0658  0.1943
 7855TIP3    H145056   2.178   2.993   6.094 -1.3181 -0.9329 -0.4633
 7855TIP3    H245057   2.316   2.962   6.040 -0.3035  0.5525  1.1464
 7856TIP3   OH245058   5.988   1.548   3.501  0.3287  0.1506 -0.2617
 7856TIP3    H145059   5.980   1.644   3.497 -1.1224  0.0231 -0.6157
 7856TIP3    H245060   5.898   1.516   3.507  0.6361 -1.3095 -2.4726
 7857TIP3   OH245061   1.145   4.614   1.194  0.1416  0.5359 -0.4131
 7857TIP3    H145062   1.092   4.534   1.196 -0.4837  0.9626  0.4621
 7857TIP3    H245063   1.177   4.624   1.283  0.7149  0.9453 -0.6565
 7858TIP3   OH245064   1.522   3.905   3.267 -0.0597  0.0630  0.2802
 7858TIP3    H145065   1.480   3.973   3.215 -0.3474  0.7818  1.4219
 7858TIP3    H245066   1.611   3.901   3.234 -0.6186 -0.5434 -1.2621
 7859TIP3   OH245067   4.395   5.347  12.387  0.6048 -0.5263  0.4186
 7859TIP3    H145068   4.422   5.258  12.365  0.6187 -0.6986  1.1113
 7859TIP3    H245069   4.413   5.398  12.308  0.7586 -1.1017  0.0780
 7860TIP3   OH245070   1.286   5.410   1.382  0.0370  0.1841  0.3575
 7860TIP3    H145071   1.197   5.412   1.417  0.5653 -0.4811  1.8092
 7860TIP3    H245072   1.322   5.496   1.402 -0.4488  0.6840 -0.7907
 7861TIP3   OH245073   1.122   2.537   4.114 -0.5060 -0.2525  0.4549
 7861TIP3    H145074   1.114   2.446   4.086  1.5655 -0.6621  1.0197
 7861TIP3    H245075   1.186   2.575   4.053 -2.5445  1.3248 -0.8093
 7862TIP3   OH245076   5.023   3.286   1.815  0.4177  0.0178 -0.4582
 7862TIP3    H145077   5.035   3.349   1.886  3.5942  0.7617 -1.4789
 7862TIP3    H245078   5.059   3.204   1.849  0.5645 -0.0098 -0.6778
 7863TIP3   OH245079   4.064   5.998  11.130 -0.0281  0.4544  0.0433
 7863TIP3    H145080   3.972   5.976  11.123 -0.0654  0.8456 -0.8317
 7863TIP3    H245081   4.110   5.920  11.099 -0.0017 -0.2420  1.7106
 7864TIP3   OH245082   6.290   4.144  11.850  0.0836  0.3324  0.2032
 7864TIP3    H145083   6.375   4.114  11.884  0.3270 -0.0949 -0.7573
 7864TIP3    H245084   6.308   4.230  11.813  0.2813 -0.1021 -0.7267
 7865TIP3   OH245085   6.178   5.005   0.397 -0.5358  0.1352  0.0039
 7865TIP3    H145086   6.141   4.989   0.484  1.0486  0.8675  0.8600
 7865TIP3    H245087   6.128   5.079   0.363 -0.9884  0.0160  0.4018
 7866TIP3   OH245088   1.843   0.180  11.147 -0.1004  0.6424  0.3159
 7866TIP3    H145089   1.929   0.151  11.115  0.3754  1.7782  0.4938
 7866TIP3    H245090   1.826   0.261  11.098 -2.3520 -0.9645 -1.7338
 7867TIP3   OH245091   1.480   5.580  11.786 -0.3502 -0.3239  0.0790
 7867TIP3    H145092   1.411   5.608  11.726  0.7506  1.4674 -0.4259
 7867TIP3    H245093   1.482   5.648  11.853  2.2850  0.8561 -1.0619
 7868TIP3   OH245094   0.201   3.787   0.424  0.1206  0.0586 -0.3739
 7868TIP3    H145095   0.216   3.711   0.480  1.2455 -0.9412 -1.9476
 7868TIP3    H245096   0.209   3.753   0.335  1.4673  2.1729 -1.1264
 7869TIP3   OH245097   6.332   2.625  15.943  0.4579 -0.4658 -0.0557
 7869TIP3    H145098   6.264   2.661  16.001  2.1839  0.7814  1.3038
 7869TIP3    H245099   6.290   2.620  15.857 -1.0084  1.3803  0.4840
 7870TIP3   OH245100   0.614   1.456   4.074 -0.1580  0.1419 -0.2059
 7870TIP3    H145101   0.647   1.420   4.156  0.3461 -1.3230 -1.0104
 7870TIP3    H245102   0.566   1.535   4.099  1.4934  0.7210  1.3054
 7871TIP3   OH245103   1.552   0.700  14.769  0.6664 -0.2952  0.0604
 7871TIP3    H145104   1.487   0.731  14.707  0.6837  1.0586  0.6830
 7871TIP3    H245105   1.540   0.605  14.771 -0.2932 -0.2127 -0.9201
 7872TIP3   OH245106   1.059   1.540  15.195  0.9380  0.0940  0.3962
 7872TIP3    H145107   0.989   1.520  15.133  1.4809 -1.3179  0.1978
 7872TIP3    H245108   1.074   1.634  15.185 -0.0833  0.1872 -0.4340
 7873TIP3   OH245109   6.257   2.144  13.702 -0.1376  0.6179  0.5676
 7873TIP3    H145110   6.209   2.072  13.742  1.4732  0.4248  2.3054
 7873TIP3    H245111   6.323   2.168  13.767 -0.5549  3.6520  0.0590
 7874TIP3   OH245112   5.390   1.642  14.189  0.4973  0.3485 -0.1910
 7874TIP3    H145113   5.391   1.672  14.280 -0.5974  0.4704 -0.2053
 7874TIP3    H245114   5.482   1.645  14.162  0.7965  0.6357  0.8014
 7875TIP3   OH245115   1.474   4.692  13.917  0.0466 -0.1357  0.1828
 7875TIP3    H145116   1.396   4.745  13.905 -0.0143 -0.3475 -0.3681
 7875TIP3    H245117   1.532   4.717  13.846  0.0931 -0.6664  0.0300
 7876TIP3   OH245118   4.522   3.093  14.797 -0.3203  0.1860 -0.1558
 7876TIP3    H145119   4.456   3.161  14.785 -0.9236 -0.4120 -0.2536
 7876TIP3    H245120   4.498   3.024  14.736  0.3087 -0.1061 -0.0845
 7877TIP3   OH245121   5.196   4.417   4.615  0.3356 -0.3481 -0.1196
 7877TIP3    H145122   5.221   4.345   4.557  0.6501  0.9892 -1.7139
 7877TIP3    H245123   5.114   4.451   4.577  1.1164  1.2444 -0.4722
 7878TIP3   OH245124   3.881   0.417  14.130 -0.3340  0.0240  0.1441
 7878TIP3    H145125   3.913   0.502  14.160  0.5610 -0.4284  0.4974
 7878TIP3    H245126   3.785   0.426  14.132 -0.2779  0.5961  1.4507
 7879TIP3   OH245127   0.559   5.241  16.380  0.6371  0.3403  0.0863
 7879TIP3    H145128   0.524   5.162  16.423 -0.1911  0.3021 -0.6454
 7879TIP3    H245129   0.519   5.314  16.428  0.6899  0.3075  0.1791
 7880TIP3   OH245130   0.315   1.730  14.521 -0.2718  0.0512  0.4625
 7880TIP3    H145131   0.266   1.698  14.445 -1.2793 -1.1938  1.5820
 7880TIP3    H245132   0.392   1.674  14.524 -0.2096  0.1298  0.3320
 7881TIP3   OH245133   6.691   5.741  15.953  0.2000 -0.3641  0.5697
 7881TIP3    H145134   6.729   5.666  15.905  2.6759  2.1924 -1.8516
 7881TIP3    H245135   6.613   5.765  15.902  0.4544 -0.2031  0.2503
 7882TIP3   OH245136   4.570   2.135  12.178 -0.0979 -0.2073  0.4948
 7882TIP3    H145137   4.486   2.151  12.221 -0.7992 -0.1097 -0.8786
 7882TIP3    H245138   4.607   2.223  12.166 -2.0534  0.3116 -3.2486
 7883TIP3   OH245139   0.997   6.662  12.505  0.2521  0.0947 -0.0652
 7883TIP3    H145140   0.951   6.700  12.579 -1.2911  0.1364 -1.0127
 7883TIP3    H245141   0.930   6.614  12.456  1.5934 -1.4833 -0.4528
 7884TIP3   OH245142   0.420   0.956   4.555 -0.2452 -0.6108  0.3122
 7884TIP3    H145143   0.371   0.914   4.626 -0.0925 -1.3002  0.0139
 7884TIP3    H245144   0.471   1.024   4.599  0.0661 -1.2163  0.9116
 7885TIP3   OH245145   2.301   6.073  16.782  0.1777  0.0540 -0.0039
 7885TIP3    H145146   2.315   6.090  16.689  1.4081  0.4755  0.2337
 7885TIP3    H245147   2.279   6.158  16.820 -1.1879 -0.2578 -0.0221
 7886TIP3   OH245148   5.134   2.981   0.640  0.1771  0.3891  0.3772
 7886TIP3    H145149   5.084   3.049   0.595 -0.0620 -0.5184 -0.8021
 7886TIP3    H245150   5.213   3.025   0.670 -0.6883  1.5210  1.0273
 7887TIP3   OH245151   0.669   0.457   3.252 -0.3583  0.2781  0.2638
 7887TIP3    H145152   0.614   0.446   3.330 -0.3861 -2.4673 -0.0552
 7887TIP3    H245153   0.613   0.503   3.190 -1.0834  0.5939  1.1259
 7888TIP3   OH245154   6.368   4.242   0.364  0.1353  0.2622 -0.4795
 7888TIP3    H145155   6.441   4.195   0.404  0.4204  1.2475  0.2071
 7888TIP3    H245156   6.339   4.303   0.432 -0.9979  0.2476 -0.9213
 7889TIP3   OH245157   5.870   4.165  11.710 -0.0427  0.3892  0.6198
 7889TIP3    H145158   5.903   4.240  11.660  0.1646  0.0782  0.2846
 7889TIP3    H245159   5.814   4.118  11.649 -0.0019  0.1510  0.7624
 7890TIP3   OH245160   5.797   1.577   1.006 -0.3153  0.1108 -0.0528
 7890TIP3    H145161   5.758   1.664   1.000  2.5520  1.4510 -1.1536
 7890TIP3    H245162   5.821   1.567   1.098  0.1228  0.8818 -0.0790
 7891TIP3   OH245163   2.251   5.097   6.170 -0.3544  0.4986 -0.2439
 7891TIP3    H145164   2.267   5.066   6.259 -0.9802 -0.4107 -0.4325
 7891TIP3    H245165   2.338   5.104   6.131 -0.1322  0.0692  0.1697
 7892TIP3   OH245166   2.351   0.041  16.321 -0.4692  0.3261 -0.6922
 7892TIP3    H145167   2.383   0.116  16.270 -0.6810 -0.0001 -1.3137
 7892TIP3    H245168   2.427  -0.016  16.330 -0.7976 -0.3762 -2.0376
 7893TIP3   OH245169   4.448   4.755  13.778 -0.4366 -0.4594 -0.3740
 7893TIP3    H145170   4.416   4.826  13.834 -1.1828 -0.8770 -0.2699
 7893TIP3    H245171   4.508   4.705  13.835 -0.8946 -0.6563 -0.0634
 7894TIP3   OH245172   1.420   3.523   0.626  0.4500  0.1136  0.2142
 7894TIP3    H145173   1.509   3.514   0.593 -0.6722 -1.8932 -2.7720
 7894TIP3    H245174   1.411   3.452   0.690  0.9725  0.3220  0.5259
 7895TIP3   OH245175   2.564   1.915  11.895 -0.2680  0.8186  0.5016
 7895TIP3    H145176   2.617   1.866  11.959  0.8191  0.8518 -0.3343
 7895TIP3    H245177   2.571   2.006  11.924 -1.5912  0.6107  1.5708
 7896TIP3   OH245178   2.878   5.671  15.000 -0.7972  0.6922  0.2460
 7896TIP3    H145179   2.967   5.669  14.966 -0.3081  0.7366  1.4768
 7896TIP3    H245180   2.831   5.604  14.950  0.2868 -0.2922  0.5184
 7897TIP3   OH245181   1.656   2.702  13.381 -0.3529 -0.3713  0.2870
 7897TIP3    H145182   1.654   2.615  13.420  0.2379 -0.1628  0.7968
 7897TIP3    H245183   1.709   2.692  13.301 -0.4353 -0.5137  0.2494
 7898TIP3   OH245184   0.484   2.143  15.320  0.0752  0.4198  0.6658
 7898TIP3    H145185   0.425   2.072  15.344  3.0142 -2.4555  0.0199
 7898TIP3    H245186   0.495   2.135  15.225  2.6298 -0.2068  0.9434
 7899TIP3   OH245187   5.712   5.265  11.424  0.1400 -0.0295  0.3656
 7899TIP3    H145188   5.638   5.260  11.486  0.0620  0.2260  0.2950
 7899TIP3    H245189   5.712   5.180  11.381 -1.3770  0.6461 -1.0680
 7900TIP3   OH245190   4.980   2.345  11.854 -0.0060  0.4758 -0.1655
 7900TIP3    H145191   4.998   2.318  11.764 -1.0819 -2.6733  0.4409
 7900TIP3    H245192   4.889   2.374  11.852 -0.9789 -2.2743  0.3176
 7901TIP3   OH245193   3.662   3.272   3.742 -0.1456  0.2397  0.5088
 7901TIP3    H145194   3.567   3.267   3.746 -0.2503 -2.8368 -1.9230
 7901TIP3    H245195   3.684   3.251   3.651  2.8642 -1.3013  1.4349
 7902TIP3   OH245196   2.697   1.946  12.903  0.3289  0.5955  0.5222
 7902TIP3    H145197   2.641   1.923  12.977  0.1601  0.3792  0.3300
 7902TIP3    H245198   2.743   1.865  12.882  0.4702  0.6889  0.4691
 7903TIP3   OH245199   1.767   3.913   0.183  0.0699 -0.6181 -0.4080
 7903TIP3    H145200   1.756   3.842   0.246 -0.4607 -0.8359 -0.7324
 7903TIP3    H245201   1.684   3.914   0.134 -0.6834  1.4058  0.7761
 7904TIP3   OH245202   6.100   1.320  11.179  0.4160 -0.0176 -0.3333
 7904TIP3    H145203   6.011   1.315  11.211  0.7502 -1.4095  0.4409
 7904TIP3    H245204   6.123   1.413  11.186 -0.1100  0.0070  1.9194
 7905TIP3   OH245205   1.900   3.779   2.167 -0.0975  0.2773  0.5125
 7905TIP3    H145206   1.940   3.856   2.127 -0.8599  0.8688  0.8524
 7905TIP3    H245207   1.810   3.807   2.187  0.1658 -0.1059  2.3234
 7906TIP3   OH245208   1.135   1.579   4.386  0.1183  0.2151 -0.5998
 7906TIP3    H145209   1.172   1.592   4.298  0.0493 -0.6191 -0.7622
 7906TIP3    H245210   1.211   1.581   4.444  0.1551  0.8588 -0.6616
 7907TIP3   OH245211   3.932   5.568   3.556 -0.1050  0.0857 -0.4094
 7907TIP3    H145212   3.878   5.560   3.478  0.1274 -0.5643 -0.5090
 7907TIP3    H245213   4.022   5.570   3.523  0.0525 -1.1374 -0.1258
 7908TIP3   OH245214   1.150   2.271   4.014  0.0039  0.3658  0.0933
 7908TIP3    H145215   1.214   2.273   3.943  0.6550 -0.4314  0.6275
 7908TIP3    H245216   1.110   2.184   4.008 -0.6733  0.6700  0.0839
 7909TIP3   OH245217   5.655   3.376   3.122 -0.6639 -0.2322  0.0971
 7909TIP3    H145218   5.707   3.327   3.058 -1.1177  1.4963 -1.6960
 7909TIP3    H245219   5.710   3.450   3.147 -0.0433 -1.4344  2.6669
 7910TIP3   OH245220   4.339   4.471  11.454 -0.1306  0.5979 -0.6001
 7910TIP3    H145221   4.316   4.533  11.385  0.0013  1.4934  0.1366
 7910TIP3    H245222   4.276   4.400  11.445 -0.1720  0.7494 -1.5782
 7911TIP3   OH245223   0.812   3.731  17.080  0.4580  0.2289  0.3040
 7911TIP3    H145224   0.717   3.741  17.093  0.7497  2.5339  1.0477
 7911TIP3    H245225   0.851   3.803  17.130  2.5868 -0.2814 -0.5201
 7912TIP3   OH245226   3.678   1.058  11.945 -0.1198  0.0089  0.2930
 7912TIP3    H145227   3.765   1.071  11.982  0.7462  0.7560 -1.8794
 7912TIP3    H245228   3.684   1.092  11.856 -2.5554 -0.2144 -0.0261
 7913TIP3   OH245229   6.574   4.383  14.058  0.5710 -0.4114 -0.5562
 7913TIP3    H145230   6.493   4.386  14.006  1.0931  1.6655 -1.3243
 7913TIP3    H245231   6.597   4.474  14.073  1.7005 -0.9696  1.4185
 7914TIP3   OH245232   1.671   3.238   5.574 -1.0376 -0.7199 -0.1662
 7914TIP3    H145233   1.753   3.258   5.619 -1.5122 -2.5868  1.6388
 7914TIP3    H245234   1.609   3.304   5.607 -1.2804 -1.8280  1.7117
 7915TIP3   OH245235   5.705   0.231  16.095 -0.2723 -0.4034 -0.4584
 7915TIP3    H145236   5.693   0.136  16.089 -1.6917 -0.2538 -0.3527
 7915TIP3    H245237   5.725   0.247  16.187  2.4957 -0.8147 -0.9131
 7916TIP3   OH245238   3.088   3.077   3.783 -0.1751  0.3659  0.2136
 7916TIP3    H145239   3.091   3.055   3.876 -1.8304  0.9460  0.4370
 7916TIP3    H245240   3.048   3.001   3.741  2.4337 -0.7652 -0.3672
 7917TIP3   OH245241   0.061   2.760   2.966  0.2331 -0.5154 -0.1362
 7917TIP3    H145242   0.105   2.728   2.888  2.0317  0.7323  0.3153
 7917TIP3    H245243   0.003   2.688   2.992  1.3888 -1.9032 -1.2277
 7918TIP3   OH245244   4.879   5.023   4.133 -0.2060 -0.5593  0.2879
 7918TIP3    H145245   4.827   5.025   4.214 -0.1589 -1.4164  0.3429
 7918TIP3    H245246   4.928   5.106   4.135 -0.0689 -0.6450  1.2323
 7919TIP3   OH245247   0.101   6.672  15.706  0.4481 -0.1733 -0.1964
 7919TIP3    H145248   0.058   6.698  15.624  1.3133  0.2636 -0.5309
 7919TIP3    H245249   0.077   6.581  15.718 -1.6439  0.3923  0.3390
 7920TIP3   OH245250   2.190   4.987   5.930 -0.2940  0.3613 -0.1678
 7920TIP3    H145251   2.195   5.020   6.020  0.1449  1.2816 -0.5171
 7920TIP3    H245252   2.196   5.065   5.875 -2.4083  0.0238 -0.9940
 7921TIP3   OH245253   4.696   1.191   0.548  0.2098 -0.5166 -0.0097
 7921TIP3    H145254   4.766   1.181   0.613  0.1460 -1.7469 -0.0982
 7921TIP3    H245255   4.631   1.126   0.574 -0.8615  0.5274 -0.0031
 7922TIP3   OH245256   4.826   3.255  11.957 -0.4632 -0.9228 -0.2404
 7922TIP3    H145257   4.835   3.288  11.867 -0.2550 -0.5069 -0.0708
 7922TIP3    H245258   4.914   3.261  11.993 -0.8758  0.6630  0.5814
 7923TIP3   OH245259   5.987   0.796  15.984  0.1892 -0.6340  0.3119
 7923TIP3    H145260   6.062   0.843  16.021  0.6013 -1.7680  0.9409
 7923TIP3    H245261   5.915   0.817  16.043 -0.4185  1.7078 -1.1357
 7924TIP3   OH245262   1.764   2.213   5.937  0.2037  0.3653 -1.1853
 7924TIP3    H145263   1.728   2.236   6.022 -1.9707 -1.1064 -1.6357
 7924TIP3    H245264   1.734   2.283   5.878 -2.3227 -0.9659 -1.6062
 7925TIP3   OH245265   0.060   4.689  15.053 -0.0311 -0.6110  0.6340
 7925TIP3    H145266  -0.035   4.691  15.043 -0.0731 -2.2862  0.5577
 7925TIP3    H245267   0.093   4.732  14.974 -0.7086  0.3129  0.8318
 7926TIP3   OH245268   2.000   6.206  15.925  0.3833  0.2608 -0.1030
 7926TIP3    H145269   1.959   6.124  15.955 -1.0155  1.0714  0.2786
 7926TIP3    H245270   1.930   6.253  15.880  0.3848  2.4121  1.9529
 7927TIP3   OH245271   5.813   2.431   2.532  0.1450  0.4082 -0.1544
 7927TIP3    H145272   5.825   2.503   2.471  0.6873  0.3998 -0.0606
 7927TIP3    H245273   5.833   2.353   2.481 -0.4851  0.3141 -0.2684
 7928TIP3   OH245274   1.640   1.474   5.292  0.3663 -0.0686  0.2072
 7928TIP3    H145275   1.607   1.392   5.256  0.2783 -0.6750  1.5910
 7928TIP3    H245276   1.725   1.486   5.252  0.8946 -1.4676  0.8497
 7929TIP3   OH245277   4.784   5.811   5.803 -0.0892  0.3911 -0.1797
 7929TIP3    H145278   4.805   5.777   5.890 -0.8329  0.6274  0.0911
 7929TIP3    H245279   4.698   5.852   5.812 -0.2290  0.3170 -1.0498
 7930TIP3   OH245280   3.265   0.397   1.017  0.1026 -0.0376  0.1045
 7930TIP3    H145281   3.209   0.390   1.094  0.8262 -1.4218  0.5473
 7930TIP3    H245282   3.220   0.458   0.959 -1.5729 -0.6712  0.6834
 7931TIP3   OH245283   3.158   3.078  16.211  0.2210  0.7288  0.5499
 7931TIP3    H145284   3.153   2.994  16.256  1.3207  0.1705 -0.3410
 7931TIP3    H245285   3.158   3.056  16.118 -1.1464  1.8233  0.2623
 7932TIP3   OH245286   6.018   5.592  16.682 -0.4254  0.2810  0.2069
 7932TIP3    H145287   5.990   5.636  16.602  0.2177 -0.9530 -0.7272
 7932TIP3    H245288   6.103   5.631  16.701 -1.0433  1.3304  0.9109
 7933TIP3   OH245289   3.924   5.422  14.111  0.5993  0.1038 -0.4168
 7933TIP3    H145290   3.873   5.502  14.123  1.8431  1.1430 -1.6421
 7933TIP3    H245291   3.980   5.441  14.035 -1.5002 -3.1717 -3.0536
 7934TIP3   OH245292   6.062   5.670  11.461 -0.1267 -0.1757  0.3259
 7934TIP3    H145293   6.126   5.740  11.474  0.9289 -0.9328 -0.5827
 7934TIP3    H245294   6.103   5.612  11.397 -1.2567 -1.2844  0.5727
 7935TIP3   OH245295   1.729   0.351   3.699 -0.2171 -0.3508  0.9670
 7935TIP3    H145296   1.790   0.415   3.663 -0.2475 -1.0682 -0.4375
 7935TIP3    H245297   1.774   0.267   3.689 -0.1302 -0.5840  2.8747
 7936TIP3   OH245298   5.711   2.607   1.831  0.1820  0.2886  0.0807
 7936TIP3    H145299   5.632   2.645   1.794  0.3386  0.4198 -0.1169
 7936TIP3    H245300   5.692   2.599   1.925 -0.2537 -0.1423 -0.0381
 7937TIP3   OH245301   3.752   2.036   3.146  0.4433  0.1233 -0.0270
 7937TIP3    H145302   3.811   2.010   3.216 -0.1784  0.6761  0.7322
 7937TIP3    H245303   3.748   2.132   3.152 -0.8545  0.0750  0.2309
 7938TIP3   OH245304   2.283   6.234   0.587 -0.3205  0.0276  0.2216
 7938TIP3    H145305   2.270   6.267   0.676  0.3660  0.5996  0.1226
 7938TIP3    H245306   2.367   6.188   0.591  0.6652  1.6841 -0.5586
 7939TIP3   OH245307   0.587   2.545  12.129  0.4247  0.5661 -0.8514
 7939TIP3    H145308   0.492   2.530  12.130  0.2798  1.1188 -2.6770
 7939TIP3    H245309   0.597   2.639  12.116  1.2437  0.6144  0.0282
 7940TIP3   OH245310   1.647   5.358  14.997 -0.4057 -0.2767  0.6656
 7940TIP3    H145311   1.625   5.450  15.008  1.1229  0.4068 -1.3186
 7940TIP3    H245312   1.712   5.340  15.065  0.2865  0.5130  0.2303
 7941TIP3   OH245313   3.114   6.156   5.592  0.1107 -0.0514  0.0181
 7941TIP3    H145314   3.019   6.167   5.598 -0.0333 -1.2252  0.1999
 7941TIP3    H245315   3.150   6.242   5.613 -0.8863  0.1184  1.1206
 7942TIP3   OH245316   2.217   0.634   3.577  0.0372 -0.5175  0.7354
 7942TIP3    H145317   2.278   0.708   3.575 -0.1653 -0.3478 -1.1959
 7942TIP3    H245318   2.178   0.637   3.665  0.5749  1.2106  0.9492
 7943TIP3   OH245319   0.709   1.259   2.289 -0.3703  0.5520 -0.7063
 7943TIP3    H145320   0.750   1.202   2.355 -0.1599  0.1112 -1.2134
 7943TIP3    H245321   0.623   1.279   2.326 -0.0975  0.6502 -0.1050
 7944TIP3   OH245322   5.029   4.148   2.087 -0.2367 -0.8870 -0.0652
 7944TIP3    H145323   4.970   4.088   2.042 -1.9182 -0.0455  0.9542
 7944TIP3    H245324   5.042   4.108   2.174  1.0408 -1.2530 -0.3922
 7945TIP3   OH245325   5.522   1.955  13.283  0.0048  0.3491 -0.5691
 7945TIP3    H145326   5.451   1.893  13.302 -0.3386  0.2498 -2.0873
 7945TIP3    H245327   5.482   2.041  13.292  0.2004  0.3584  0.4267
 7946TIP3   OH245328   3.470   2.957  15.702  0.8828 -0.3870  0.3549
 7946TIP3    H145329   3.434   3.034  15.658  1.4064 -0.9811 -1.1752
 7946TIP3    H245330   3.442   2.966  15.793 -2.3833 -0.3924 -0.5445
 7947TIP3   OH245331   2.814   5.402  13.967  0.1558 -0.2323  1.1375
 7947TIP3    H145332   2.837   5.492  13.991  0.7528  0.1466 -0.6884
 7947TIP3    H245333   2.874   5.347  14.018  0.0275  0.4111  1.9980
 7948TIP3   OH245334   4.313   0.057  12.787  0.6525  0.8270 -0.3955
 7948TIP3    H145335   4.351   0.144  12.795 -0.2491  1.2025 -0.1437
 7948TIP3    H245336   4.331   0.015  12.871  2.3264  0.2467 -1.0046
 7949TIP3   OH245337   4.115   4.750  14.862  0.1930 -0.2498 -0.3922
 7949TIP3    H145338   4.128   4.719  14.772 -2.7343  0.7871 -1.2958
 7949TIP3    H245339   4.034   4.709  14.890 -0.9865  2.3467  0.3026
 7950TIP3   OH245340   0.576   3.675  13.366  0.2639 -0.5348  0.1137
 7950TIP3    H145341   0.579   3.652  13.273  1.8774  1.1403 -0.3209
 7950TIP3    H245342   0.620   3.602  13.409 -1.0414 -1.6260 -0.3265
 7951TIP3   OH245343   4.561   1.182  14.544  0.8502  0.0760  0.3692
 7951TIP3    H145344   4.570   1.093  14.577 -0.3827 -0.5430 -0.8511
 7951TIP3    H245345   4.541   1.172  14.451  1.0781  1.6440  0.1111
 7952TIP3   OH245346   2.199   2.451  14.045 -0.7352  0.0436  0.2570
 7952TIP3    H145347   2.242   2.368  14.023 -1.1177 -0.3785  1.0822
 7952TIP3    H245348   2.181   2.491  13.960 -2.2880 -1.6079 -0.2547
 7953TIP3   OH245349   2.454   3.041   0.129  0.2978  0.1631 -0.2716
 7953TIP3    H145350   2.487   3.104   0.065  0.9231 -1.3720 -1.5378
 7953TIP3    H245351   2.370   3.012   0.092 -0.6095  1.1627  0.9482
 7954TIP3   OH245352   3.687   5.063  14.271  0.0215 -0.3039 -0.1529
 7954TIP3    H145353   3.634   5.016  14.206 -1.1583 -2.6841  2.3388
 7954TIP3    H245354   3.630   5.132  14.303 -0.5000 -0.9661  0.3802
 7955TIP3   OH245355   1.376   2.734   0.732  1.0409 -0.0368  0.3614
 7955TIP3    H145356   1.353   2.652   0.774  0.0677  1.1736  2.3311
 7955TIP3    H245357   1.292   2.773   0.706  1.3815  0.8699  0.5663
 7956TIP3   OH245358   1.686   0.879   3.433  0.0675 -0.2647  0.9143
 7956TIP3    H145359   1.644   0.865   3.517  1.8848 -3.0973  1.4838
 7956TIP3    H245360   1.627   0.838   3.369 -0.1085 -0.3371  1.1236
 7957TIP3   OH245361   6.167   5.306   6.173  0.0265 -0.0153 -0.0298
 7957TIP3    H145362   6.136   5.332   6.260  2.5762  3.5432  0.0333
 7957TIP3    H245363   6.256   5.272   6.189  1.6732  3.3020 -1.3264
 7958TIP3   OH245364   2.529   5.258   4.020  0.3999  0.9117  0.2363
 7958TIP3    H145365   2.534   5.353   4.025  1.1560  0.9370 -0.8076
 7958TIP3    H245366   2.496   5.240   3.932  0.3553  0.2011  0.3913
 7959TIP3   OH245367   1.775   0.806  16.137 -0.2443 -0.5310 -0.0499
 7959TIP3    H145368   1.729   0.750  16.075  2.1274 -0.8793 -1.6394
 7959TIP3    H245369   1.780   0.891  16.094  0.5585 -0.5015  0.0773
 7960TIP3   OH245370   4.199   2.287  15.663 -0.1203  0.0223  0.7128
 7960TIP3    H145371   4.113   2.260  15.630  0.2920  0.6750 -0.9792
 7960TIP3    H245372   4.251   2.206  15.662  0.0566  0.1231 -0.8753
 7961TIP3   OH245373   1.797   2.767  12.876  0.3678  0.3357 -0.1469
 7961TIP3    H145374   1.840   2.837  12.827  0.1867  1.8142  1.6940
 7961TIP3    H245375   1.704   2.789  12.872  0.0384 -1.1046 -1.4429
 7962TIP3   OH245376   3.426   6.009   1.695 -0.0897  0.1836  0.1029
 7962TIP3    H145377   3.355   5.978   1.638 -1.6773  1.0244  1.5081
 7962TIP3    H245378   3.506   5.988   1.648 -1.2788 -0.5802 -1.6903
 7963TIP3   OH245379   3.223   3.847  15.843  0.2573 -0.1037  0.4149
 7963TIP3    H145380   3.255   3.828  15.755  1.1789 -0.4920  0.8146
 7963TIP3    H245381   3.279   3.917  15.875  1.3434 -1.3668  1.4454
 7964TIP3   OH245382   2.420   3.851  16.513  0.1138 -0.0888  0.1552
 7964TIP3    H145383   2.422   3.919  16.446 -1.0512  1.2802  1.4209
 7964TIP3    H245384   2.327   3.833  16.526  0.3996 -2.0204 -0.1951
 7965TIP3   OH245385   4.172   3.062  12.879 -0.4203  0.1394  0.1449
 7965TIP3    H145386   4.173   3.136  12.818 -0.6400  1.4612  1.6740
 7965TIP3    H245387   4.100   3.007  12.849 -0.8309  1.0124 -0.5277
 7966TIP3   OH245388   6.351   2.883   6.354 -0.5447  0.1780 -0.5667
 7966TIP3    H145389   6.301   2.944   6.408  0.7000  0.6715  0.0749
 7966TIP3    H245390   6.304   2.800   6.361  0.9542 -0.5594  3.5298
 7967TIP3   OH245391   6.230   6.061  16.702 -0.4419 -0.1825  0.3506
 7967TIP3    H145392   6.225   6.127  16.632  1.0737 -0.2979  0.0896
 7967TIP3    H245393   6.149   6.072  16.752 -1.1151  0.5483 -0.8551
 7968TIP3   OH245394   6.523   1.506  12.438  0.0807  0.5390  0.0327
 7968TIP3    H145395   6.587   1.543  12.377  1.5700  0.3576  1.3935
 7968TIP3    H245396   6.452   1.570  12.441  0.8055  1.3984 -0.5736
 7969TIP3   OH245397   3.580   1.584  11.796  0.0059 -0.7377  0.2949
 7969TIP3    H145398   3.530   1.514  11.838  1.4235 -1.7479  0.3863
 7969TIP3    H245399   3.614   1.545  11.715  1.2284 -0.3329  0.5839
 7970TIP3   OH245400   6.701   0.402  16.731 -0.1726 -0.4509 -0.0102
 7970TIP3    H145401   6.643   0.332  16.701 -0.0739 -0.4075 -0.3161
 7970TIP3    H245402   6.654   0.445  16.802 -0.7299 -0.1034 -0.5754
 7971TIP3   OH245403   4.711   5.514   0.778 -0.7068  0.1870  0.7231
 7971TIP3    H145404   4.666   5.511   0.694 -0.1637  0.4790  0.4197
 7971TIP3    H245405   4.759   5.597   0.777  1.3238 -0.9464  0.2664
 7972TIP3   OH245406   3.830   5.375   2.493  0.1819 -0.7753 -0.4164
 7972TIP3    H145407   3.814   5.372   2.587 -2.3076 -1.7196 -0.7960
 7972TIP3    H245408   3.744   5.394   2.454  0.2810 -3.9775 -2.6413
 7973TIP3   OH245409   2.341   6.430  11.126 -0.0346 -0.0878  0.6579
 7973TIP3    H145410   2.400   6.482  11.181  0.0516  0.2123  0.2872
 7973TIP3    H245411   2.396   6.402  11.053  0.0369 -1.0814  1.0781
 7974TIP3   OH245412   1.597   2.187   3.515 -0.0902  0.1690 -0.6042
 7974TIP3    H145413   1.670   2.132   3.487 -0.0210 -0.0249 -0.0465
 7974TIP3    H245414   1.638   2.270   3.541 -0.1837  0.4621 -1.3357
 7975TIP3   OH245415   1.051   3.188   1.218 -0.1310 -0.1787 -0.0040
 7975TIP3    H145416   1.057   3.267   1.164 -0.6765  0.7033  1.2055
 7975TIP3    H245417   0.958   3.182   1.240 -0.7156 -2.8626 -2.5338
 7976TIP3   OH245418   1.660   3.042   2.902  0.8594  0.8725 -0.2630
 7976TIP3    H145419   1.707   3.040   2.819  0.5693 -1.1783 -0.4213
 7976TIP3    H245420   1.579   2.993   2.886  0.5327  0.9201  1.0691
 7977TIP3   OH245421   6.542   0.139  13.290 -0.1282  0.0749 -0.7265
 7977TIP3    H145422   6.587   0.089  13.222 -0.4398  0.5966 -1.3253
 7977TIP3    H245423   6.509   0.216  13.245  0.6634  1.0208  0.2609
 7978TIP3   OH245424   2.199   1.342  16.543 -0.4561 -0.4862 -0.0648
 7978TIP3    H145425   2.191   1.263  16.489 -0.5955  0.4489 -1.4732
 7978TIP3    H245426   2.235   1.408  16.483 -0.4144  0.5383  1.0581
 7979TIP3   OH245427   2.406   2.212   0.528 -0.7530  0.0804  0.0251
 7979TIP3    H145428   2.367   2.228   0.442 -0.4385  1.3946  0.1016
 7979TIP3    H245429   2.498   2.234   0.517 -0.3432 -1.3816  0.2829
 7980TIP3   OH245430   3.412   5.218  12.432  0.1235 -0.1987 -0.0971
 7980TIP3    H145431   3.489   5.162  12.443  0.7209  0.8482  1.3047
 7980TIP3    H245432   3.447   5.302  12.402 -0.8130 -0.6529 -2.7632
 7981TIP3   OH245433   5.222   0.613   2.503  0.0814 -0.0057  0.4956
 7981TIP3    H145434   5.255   0.657   2.581  0.9545 -1.7308  1.1492
 7981TIP3    H245435   5.165   0.543   2.536  1.2263 -1.3855 -0.3326
 7982TIP3   OH245436   1.643   4.764   0.687 -0.0409 -0.6764 -0.1278
 7982TIP3    H145437   1.678   4.721   0.765 -1.2462  1.5095  1.7370
 7982TIP3    H245438   1.551   4.778   0.707 -0.3201  0.1335 -1.8619
 7983TIP3   OH245439   0.809   1.961   3.376  0.8344  0.0832  0.4968
 7983TIP3    H145440   0.775   2.000   3.295 -0.3705  0.2892  1.0763
 7983TIP3    H245441   0.840   1.875   3.350 -1.8826 -0.8967  0.2302
 7984TIP3   OH245442   2.337   1.118   2.454  0.2211  0.2330 -0.5542
 7984TIP3    H145443   2.372   1.126   2.365 -1.8836  0.3218 -1.4290
 7984TIP3    H245444   2.403   1.161   2.509  2.6256 -1.6832 -1.7364
 7985TIP3   OH245445   2.662   2.831  13.499  0.6838 -0.4559  0.1260
 7985TIP3    H145446   2.699   2.818  13.412  0.3428 -0.9958  0.0534
 7985TIP3    H245447   2.569   2.851  13.482  0.9977  1.2346  0.2822
 7986TIP3   OH245448   3.082   4.025   5.947  0.2208 -0.0917  0.2256
 7986TIP3    H145449   3.069   4.070   5.864 -0.3289  0.5110  0.6319
 7986TIP3    H245450   3.163   4.061   5.983  0.4132 -0.2922 -0.0051
 7987TIP3   OH245451   5.872   4.966   2.607 -0.4016 -0.5032 -0.4412
 7987TIP3    H145452   5.891   5.043   2.660  1.0684 -0.1816 -1.4023
 7987TIP3    H245453   5.781   4.979   2.577 -0.2654  0.7062 -0.3595
 7988TIP3   OH245454   5.997   6.565  14.642  0.7458  0.6432 -0.4119
 7988TIP3    H145455   5.987   6.656  14.671 -1.8215  0.7813 -1.4511
 7988TIP3    H245456   6.060   6.569  14.571  1.5018  1.4096  0.2748
 7989TIP3   OH245457   5.684   4.867  15.239  0.5673 -0.0130  0.3748
 7989TIP3    H145458   5.764   4.879  15.189 -0.4272 -1.1493 -1.6545
 7989TIP3    H245459   5.637   4.950  15.230  0.0783 -0.4217 -1.3203
 7990TIP3   OH245460   5.973   2.980  13.766  0.4628 -0.4622 -0.6198
 7990TIP3    H145461   5.893   3.017  13.729  1.3833  0.8773 -1.3422
 7990TIP3    H245462   5.943   2.905  13.818 -1.2591  0.0933 -0.7638
 7991TIP3   OH245463   3.995   0.620  16.045 -0.1569  0.0112  0.6083
 7991TIP3    H145464   4.022   0.702  16.086 -0.3440  1.6175 -2.2594
 7991TIP3    H245465   4.076   0.570  16.035  0.5014  1.2756 -0.5638
 7992TIP3   OH245466   0.032   3.779   0.818 -0.1144 -0.1745  0.0125
 7992TIP3    H145467   0.055   3.726   0.742  2.0426  0.7881 -0.0808
 7992TIP3    H245468  -0.029   3.844   0.784 -1.0544 -1.1945 -0.3336
 7993TIP3   OH245469   1.307   2.261  12.594 -0.1769  0.3881 -0.1515
 7993TIP3    H145470   1.336   2.258  12.686 -0.1216  0.0800 -0.1767
 7993TIP3    H245471   1.353   2.187  12.553 -0.8972 -0.0300 -0.2221
 7994TIP3   OH245472   5.003   3.097  16.075 -0.2501  0.1509  0.0425
 7994TIP3    H145473   4.995   3.004  16.054 -1.7659  0.4396 -0.7986
 7994TIP3    H245474   4.972   3.105  16.165  1.0457 -0.3095  0.5534
 7995TIP3   OH245475   5.141   0.947  12.030 -0.0041 -0.4079 -0.5780
 7995TIP3    H145476   5.122   0.964  11.937  0.4701  2.5786 -0.2417
 7995TIP3    H245477   5.070   0.991  12.077 -0.1659 -1.7763  0.5080
 7996TIP3   OH245478   3.550   0.509   5.298  0.3264  0.7710 -0.5070
 7996TIP3    H145479   3.613   0.486   5.366  0.0801  0.8297 -0.2606
 7996TIP3    H245480   3.512   0.592   5.327  0.9990  1.3528 -1.2433
 7997TIP3   OH245481   6.767   3.118   5.458  0.1132  0.0473 -0.3257
 7997TIP3    H145482   6.745   3.209   5.437  1.0931  0.6074  0.9896
 7997TIP3    H245483   6.857   3.107   5.426  0.2982 -0.1991  0.2746
 7998TIP3   OH245484   0.887   2.611  15.498  0.2517  1.1601  0.1259
 7998TIP3    H145485   0.848   2.673  15.435  0.2543 -0.5875 -1.6991
 7998TIP3    H245486   0.851   2.637  15.583 -2.3314  1.6476 -1.0281
 7999TIP3   OH245487   4.189   4.400  13.567 -0.0855 -0.0086  0.1355
 7999TIP3    H145488   4.251   4.471  13.550  0.0404 -0.6472 -2.5325
 7999TIP3    H245489   4.107   4.444  13.590  0.6062  0.9105  0.9164
 8000TIP3   OH245490   4.312   2.633   1.708  0.1114 -0.3039 -0.1821
 8000TIP3    H145491   4.246   2.690   1.746  0.8021 -0.3575  1.1776
 8000TIP3    H245492   4.264   2.556   1.678 -0.6537  0.4196 -0.8375
 8001TIP3   OH245493   0.776   1.170   2.047 -0.1835  0.3203 -0.2943
 8001TIP3    H145494   0.764   1.196   2.139 -1.8717 -0.7520 -0.1646
 8001TIP3    H245495   0.816   1.083   2.051 -1.8118 -0.4850 -0.4752
 8002TIP3   OH245496   3.134   3.916   2.030 -0.3406  0.0048  0.4700
 8002TIP3    H145497   3.062   3.901   2.091  0.5343 -2.0070  1.1034
 8002TIP3    H245498   3.211   3.925   2.085  0.1335  0.5076 -0.2634
 8003TIP3   OH245499   2.849   6.373  11.520  0.2668 -0.7514  0.8945
 8003TIP3    H145500   2.827   6.295  11.468 -1.6152  0.0935  0.3105
 8003TIP3    H245501   2.904   6.426  11.462 -0.6675 -0.4600  0.2341
 8004TIP3   OH245502   5.984   6.828  14.845  0.6296  0.3425  0.5531
 8004TIP3    H145503   5.937   6.897  14.892  2.3093  0.4609  2.1572
 8004TIP3    H245504   6.063   6.871  14.812  0.2018 -0.1072 -1.1475
 8005TIP3   OH245505   5.876   4.436  15.099 -0.2197 -0.5560 -0.4456
 8005TIP3    H145506   5.918   4.501  15.043 -0.3882 -1.2105 -1.3366
 8005TIP3    H245507   5.782   4.453  15.089 -0.2329  0.1026  0.5890
 8006TIP3   OH245508   0.529   6.368   3.352 -0.1805 -0.0860 -0.4669
 8006TIP3    H145509   0.584   6.442   3.376  0.8404 -1.0220  0.1269
 8006TIP3    H245510   0.521   6.317   3.432  0.1586 -1.2675 -1.1721
 8007TIP3   OH245511   2.347   3.757   1.419  0.1538  0.1653  0.3724
 8007TIP3    H145512   2.266   3.736   1.466  0.4609  0.8581  1.2343
 8007TIP3    H245513   2.354   3.852   1.422  0.9734  0.1217  0.2610
 8008TIP3   OH245514   3.743   1.497  15.919  0.0862 -0.1225  0.1692
 8008TIP3    H145515   3.733   1.531  16.008  1.0137 -2.0558  1.0852
 8008TIP3    H245516   3.836   1.508  15.900  0.1055 -0.7141 -0.1087
 8009TIP3   OH245517   1.044   2.181   4.344  0.2121 -0.0170  0.3050
 8009TIP3    H145518   0.972   2.234   4.310 -1.4211 -3.0975 -1.4684
 8009TIP3    H245519   1.039   2.191   4.439 -2.2266  0.3146  0.1947
 8010TIP3   OH245520   1.040   6.575   3.803  0.2829 -0.3588  0.1791
 8010TIP3    H145521   0.968   6.543   3.749 -0.5535  0.5341  0.7575
 8010TIP3    H245522   1.025   6.536   3.889  0.6163 -0.3361  0.2496
 8011TIP3   OH245523   5.539   4.249   2.284 -0.1094  0.0685  0.2277
 8011TIP3    H145524   5.551   4.225   2.193 -0.9367 -1.3774  0.4655
 8011TIP3    H245525   5.448   4.278   2.289 -0.3368 -0.7004  0.7471
 8012TIP3   OH245526   0.339   4.973   2.849 -0.0450 -0.3434 -0.0068
 8012TIP3    H145527   0.341   4.924   2.931 -1.4059 -0.2996  0.0820
 8012TIP3    H245528   0.430   4.977   2.821  0.2501 -1.7505  0.6735
 8013TIP3   OH245529   6.334   0.215   6.188  0.3129 -0.3429  0.2394
 8013TIP3    H145530   6.379   0.292   6.155  1.9730  0.2395  3.4177
 8013TIP3    H245531   6.402   0.147   6.193 -0.4944 -1.2016 -0.0234
 8014TIP3   OH245532   2.300   1.691  12.590  0.2025 -0.0835 -0.5766
 8014TIP3    H145533   2.304   1.616  12.650  2.4967 -0.5426 -1.1886
 8014TIP3    H245534   2.318   1.767  12.646  2.2038 -0.4956 -0.5804
 8015TIP3   OH245535   6.389   5.296  14.771  0.1359 -0.1726  0.3237
 8015TIP3    H145536   6.334   5.255  14.838 -1.4179  0.5051 -0.4816
 8015TIP3    H245537   6.363   5.254  14.689 -0.9634  1.7909 -0.4181
 8016TIP3   OH245538   6.429   3.729  14.167  0.6693 -0.3208 -0.0377
 8016TIP3    H145539   6.477   3.718  14.085 -0.9892  1.0534 -1.2624
 8016TIP3    H245540   6.337   3.715  14.143 -0.4344  4.3398  0.5071
 8017TIP3   OH245541   4.381   0.172  15.808 -0.1846 -0.1326 -0.0157
 8017TIP3    H145542   4.430   0.093  15.832  0.7322  0.2418 -0.5955
 8017TIP3    H245543   4.375   0.222  15.889 -0.0187 -0.4047  0.1662
 8018TIP3   OH245544   6.272   6.331   3.477  0.3470 -0.2699 -0.7028
 8018TIP3    H145545   6.196   6.298   3.525  1.1214 -1.2435 -0.1136
 8018TIP3    H245546   6.342   6.268   3.496  1.2335  0.4595 -1.4487
 8019TIP3   OH245547   3.110   2.405  15.085  0.3698  0.0886  0.4659
 8019TIP3    H145548   3.205   2.415  15.080  0.2563  1.2783  0.6167
 8019TIP3    H245549   3.075   2.493  15.076 -0.7715 -0.4343 -0.5247
 8020TIP3   OH245550   4.035   2.952  16.271  0.4774  0.4736  0.3898
 8020TIP3    H145551   4.105   2.957  16.336 -0.5865  0.6537  1.5597
 8020TIP3    H245552   4.069   2.895  16.203  1.1772 -0.7112  1.6949
 8021TIP3   OH245553   6.820   4.859   1.495 -0.3108  0.1813 -0.6755
 8021TIP3    H145554   6.729   4.879   1.473  0.0248  1.3808 -0.9930
 8021TIP3    H245555   6.850   4.803   1.423 -0.5817  0.3532 -0.9254
 8022TIP3   OH245556   3.432   0.745   5.775  0.3258 -0.0342  0.4607
 8022TIP3    H145557   3.505   0.699   5.735  0.0259  0.6526 -0.9386
 8022TIP3    H245558   3.383   0.678   5.821  0.4151 -0.9541 -0.7480
 8023TIP3   OH245559   4.577   1.845  15.065 -0.1632 -0.6099  0.1467
 8023TIP3    H145560   4.568   1.940  15.072 -0.8003 -0.6947  0.5492
 8023TIP3    H245561   4.644   1.822  15.130 -0.5875 -0.5244  0.6199
 8024TIP3   OH245562   4.898   2.425  12.690 -0.0895 -0.3040  0.3645
 8024TIP3    H145563   4.957   2.364  12.645  0.4084  0.6607 -0.3301
 8024TIP3    H245564   4.905   2.403  12.782  0.1639 -1.2193  0.1324
 8025TIP3   OH245565   2.260   3.501  16.455 -0.6496  0.9859 -1.0144
 8025TIP3    H145566   2.298   3.521  16.370 -0.1177  1.5128 -0.6612
 8025TIP3    H245567   2.320   3.438  16.495  0.9328  3.2083  0.3109
 8026TIP3   OH245568   2.661   3.894   0.141  0.3763  0.2014 -0.6350
 8026TIP3    H145569   2.632   3.896   0.232 -0.4206  1.1996 -0.8906
 8026TIP3    H245570   2.756   3.903   0.146  0.3878 -0.2979  0.1154
 8027TIP3   OH245571   2.817   1.591   4.693 -0.2185 -0.1561 -0.0275
 8027TIP3    H145572   2.749   1.630   4.747  1.4928 -0.1268  2.2556
 8027TIP3    H245573   2.784   1.503   4.672 -0.4989 -0.5935  2.0576
 8028TIP3   OH245574   4.300   4.515   0.086 -0.1288  0.1282 -0.4228
 8028TIP3    H145575   4.321   4.546  -0.002  0.2778  2.0288  0.3050
 8028TIP3    H245576   4.382   4.478   0.118 -0.4158 -1.0709 -1.0067
 8029TIP3   OH245577   0.493   3.961   0.830  0.0622 -0.2395 -0.0788
 8029TIP3    H145578   0.532   4.044   0.858  0.0886 -0.0524 -0.6717
 8029TIP3    H245579   0.566   3.899   0.828 -0.2348 -0.7626  2.1367
 8030TIP3   OH245580   5.355   5.412   1.803  0.1372  0.1079  0.3977
 8030TIP3    H145581   5.351   5.338   1.863  2.9643 -2.1696 -1.8587
 8030TIP3    H245582   5.439   5.454   1.822 -0.0766  0.9021 -0.3056
 8031TIP3   OH245583   1.292   1.601  12.993  0.8480 -0.1212 -0.4375
 8031TIP3    H145584   1.355   1.610  13.065 -0.1311  0.2319  0.3989
 8031TIP3    H245585   1.249   1.517  13.010 -0.1268  0.4624 -0.0007
 8032TIP3   OH245586   6.303   3.988   6.378  0.4239  0.2172 -0.1080
 8032TIP3    H145587   6.237   4.031   6.431 -0.0897 -0.6321 -0.0387
 8032TIP3    H245588   6.298   4.031   6.293  0.7009  1.0416  0.2756
 8033TIP3   OH245589   2.068   6.290   5.726 -0.3847  0.0602 -0.1299
 8033TIP3    H145590   2.008   6.228   5.768 -0.8706  0.3251 -0.4192
 8033TIP3    H245591   2.077   6.257   5.636  2.1565 -1.6060  0.6339
 8034TIP3   OH245592   3.432   6.317   4.083  0.0799  0.2757  0.5013
 8034TIP3    H145593   3.396   6.350   4.166  1.5111  1.6639  0.6135
 8034TIP3    H245594   3.506   6.262   4.110 -1.4672 -2.0804  0.2453
 8035TIP3   OH245595   3.438   4.482   0.835 -0.3340 -0.0744  0.7089
 8035TIP3    H145596   3.493   4.446   0.905  1.0754 -1.4287 -1.0035
 8035TIP3    H245597   3.445   4.577   0.846  0.9835 -0.2350  1.5750
 8036TIP3   OH245598   0.063   1.240   0.967  0.0873  0.1984  0.0344
 8036TIP3    H145599   0.054   1.163   0.911 -2.7920  1.9633 -2.2577
 8036TIP3    H245600   0.148   1.278   0.943  0.0757 -0.5252 -1.2310
 8037TIP3   OH245601   2.722   1.590   5.970 -0.4776 -0.5505 -0.2350
 8037TIP3    H145602   2.733   1.631   6.056  0.5513 -0.8399 -0.2184
 8037TIP3    H245603   2.747   1.498   5.983 -0.2985 -0.5962 -0.8394
 8038TIP3   OH245604   1.481   4.690  11.048  0.1323  0.0068  0.0169
 8038TIP3    H145605   1.398   4.722  11.011 -1.3464 -0.0442  2.9275
 8038TIP3    H245606   1.522   4.768  11.084 -0.4068 -0.4054  1.6108
 8039TIP3   OH245607   4.564   4.966   4.594  0.2846 -0.1264  0.7973
 8039TIP3    H145608   4.613   4.967   4.677  0.0426 -1.1355  0.9635
 8039TIP3    H245609   4.490   5.025   4.609 -0.0994 -0.7722  1.5233
 8040TIP3   OH245610   2.073   4.550  16.430  0.2059 -0.7278  0.2102
 8040TIP3    H145611   2.091   4.644  16.440 -0.0401 -0.5712 -0.7507
 8040TIP3    H245612   2.130   4.508  16.494  1.4910 -0.0165 -0.4248
 8041TIP3   OH245613   5.261   3.687  14.566 -0.0258 -0.1265 -0.6104
 8041TIP3    H145614   5.222   3.664  14.481  0.9026 -2.3514 -0.4946
 8041TIP3    H245615   5.215   3.631  14.629  0.6968  0.0159  0.0541
 8042TIP3   OH245616   4.713   5.671   0.532 -0.2431 -0.0677 -0.1055
 8042TIP3    H145617   4.758   5.755   0.520 -1.4687  0.5499 -0.5106
 8042TIP3    H245618   4.766   5.609   0.483  0.6661  0.4723  0.1688
 8043TIP3   OH245619   3.554   4.433   1.646 -0.2916 -0.0391 -0.1172
 8043TIP3    H145620   3.642   4.435   1.683 -0.2292  1.0706 -0.2764
 8043TIP3    H245621   3.496   4.447   1.721 -0.2993 -0.1252 -0.1066
 8044TIP3   OH245622   1.204   0.824  14.503 -0.3095 -0.0854 -0.3885
 8044TIP3    H145623   1.140   0.883  14.463 -0.0321  1.1653  0.9496
 8044TIP3    H245624   1.268   0.882  14.545  0.2387 -1.3325  0.5570
 8045TIP3   OH245625   5.942   4.416  16.697 -0.1548  0.1349 -0.4970
 8045TIP3    H145626   5.904   4.328  16.706  0.1377  0.1233  0.8112
 8045TIP3    H245627   5.970   4.421  16.606 -0.8544 -0.8543 -0.7803
 8046TIP3   OH245628   5.570   2.504   0.129 -0.0002 -0.3205 -0.0954
 8046TIP3    H145629   5.552   2.591   0.165  0.8836 -0.7322  1.4190
 8046TIP3    H245630   5.650   2.475   0.173 -0.6385 -2.1727 -0.0597
 8047TIP3   OH245631   3.302   4.398  13.245  0.2372 -0.3631 -0.1230
 8047TIP3    H145632   3.352   4.332  13.294  0.3234 -0.1071  0.1363
 8047TIP3    H245633   3.291   4.360  13.158  0.9718 -0.3785 -0.2145
 8048TIP3   OH245634   0.169   0.511  12.792 -0.2600  0.6495 -0.2605
 8048TIP3    H145635   0.184   0.425  12.753 -0.0108 -0.3408  1.8831
 8048TIP3    H245636   0.241   0.565  12.760  0.6790 -0.4875 -0.1268
 8049TIP3   OH245637   3.258   3.191  11.692  0.3524 -0.1203 -0.0363
 8049TIP3    H145638   3.165   3.207  11.677  0.1834  2.7925  2.9996
 8049TIP3    H245639   3.260   3.117  11.752  0.3662 -2.7495 -3.0166
 8050TIP3   OH245640   4.107   3.911   4.591  0.0389 -0.7852  0.4946
 8050TIP3    H145641   4.077   3.843   4.652  1.6297 -0.4648  1.7134
 8050TIP3    H245642   4.158   3.863   4.525 -2.0501 -1.1865 -0.9126
 8051TIP3   OH245643   5.553   0.661   5.860 -0.0707 -0.2504 -0.0999
 8051TIP3    H145644   5.524   0.584   5.812 -2.4206 -0.0447  0.8136
 8051TIP3    H245645   5.574   0.628   5.948  0.5683 -0.0972 -0.1944
 8052TIP3   OH245646   4.739   3.571   4.703 -0.1176  0.0554  0.0980
 8052TIP3    H145647   4.741   3.652   4.652 -0.2645  1.0788  1.6548
 8052TIP3    H245648   4.809   3.583   4.768 -0.4087 -0.8988  0.5954
 8053TIP3   OH245649   2.026   5.022  12.448 -0.3595  0.1822 -0.2928
 8053TIP3    H145650   2.059   4.933  12.453  1.0065  0.5599 -1.5633
 8053TIP3    H245651   1.992   5.041  12.535 -1.1177 -1.7175 -0.1332
 8054TIP3   OH245652   5.581   1.549  11.107 -0.2683 -0.6835  0.2214
 8054TIP3    H145653   5.509   1.510  11.058  0.3723 -0.5578 -0.8639
 8054TIP3    H245654   5.651   1.483  11.104  0.6056  0.2514 -1.1006
 8055TIP3   OH245655   0.149   5.989   3.458 -0.0028  0.0314  0.1476
 8055TIP3    H145656   0.066   5.957   3.494 -0.6382 -0.7710 -1.8970
 8055TIP3    H245657   0.136   6.083   3.448 -0.7266 -0.1052 -0.2620
 8056TIP3   OH245658   0.872   1.100  13.056  1.5916 -0.4192  0.2430
 8056TIP3    H145659   0.958   1.076  13.020  1.2830 -1.9328  0.4890
 8056TIP3    H245660   0.869   1.058  13.142  0.7103 -0.1209  0.3653
 8057TIP3   OH245661   2.403   6.190  10.412  0.2513  0.7475 -0.2331
 8057TIP3    H145662   2.408   6.273  10.365  2.1509  0.2234 -1.0653
 8057TIP3    H245663   2.494   6.170  10.436 -0.3997 -0.0423  1.8872
 8058TIP3   OH245664   4.097   4.559  14.657  1.1283 -0.6286  0.0224
 8058TIP3    H145665   4.010   4.521  14.656  1.7537 -2.1230 -0.6911
 8058TIP3    H245666   4.119   4.573  14.565  1.8770 -0.8706  0.1522
 8059TIP3   OH245667   5.299   3.868  14.786  0.4124 -0.2528  0.2585
 8059TIP3    H145668   5.391   3.894  14.780  0.1496  0.7369  0.3235
 8059TIP3    H245669   5.285   3.811  14.710  0.3990  1.7943 -1.3558
 8060TIP3   OH245670   1.526   6.184  17.012  0.0445 -1.2122 -0.4519
 8060TIP3    H145671   1.550   6.095  16.986 -2.4524 -1.7595 -1.1431
 8060TIP3    H245672   1.475   6.217  16.939  0.0368  0.4101  0.2530
 8061TIP3   OH245673   3.659   2.966   5.188  0.7402 -0.3646  0.0940
 8061TIP3    H145674   3.679   2.872   5.183 -1.7767 -1.0615  1.3167
 8061TIP3    H245675   3.593   2.980   5.119  1.0460  0.5078 -0.0363
 8062TIP3   OH245676   3.566   1.617  13.733  0.1865  0.0993  0.4023
 8062TIP3    H145677   3.557   1.587  13.643  0.9181  0.6953  0.1129
 8062TIP3    H245678   3.641   1.568  13.767 -0.3504 -0.4341  0.8271
 8063TIP3   OH245679   2.656   4.996   6.195  0.0666 -0.2917  0.5693
 8063TIP3    H145680   2.703   4.980   6.277 -0.1313 -0.3613  0.6711
 8063TIP3    H245681   2.688   4.928   6.135 -0.2030 -0.5960  0.7637
 8064TIP3   OH245682   0.380   1.203   1.197  0.5859 -0.2738 -0.3283
 8064TIP3    H145683   0.420   1.264   1.260  1.9966 -0.6633 -0.8299
 8064TIP3    H245684   0.332   1.260   1.137 -0.8811  0.1051  1.1199
 8065TIP3   OH245685   5.919   2.250   4.840 -0.7257  0.5380  0.3058
 8065TIP3    H145686   5.859   2.185   4.804  0.3391  0.2258 -0.9686
 8065TIP3    H245687   6.006   2.213   4.826 -0.2149  0.7451  2.5911
 8066TIP3   OH245688   6.197   2.320  15.356  0.5816 -0.2462 -0.5432
 8066TIP3    H145689   6.209   2.414  15.370  0.6591 -0.3655  0.1841
 8066TIP3    H245690   6.107   2.303  15.382  1.4970 -0.9543  2.5382
 8067TIP3   OH245691   4.236   2.558   1.126 -0.3641  0.2938 -0.3285
 8067TIP3    H145692   4.149   2.526   1.101 -0.2486  0.9644 -1.7063
 8067TIP3    H245693   4.294   2.524   1.058  0.2517  0.8698 -0.1010
 8068TIP3   OH245694   3.133   4.879  13.611 -0.6359  0.0580  0.2989
 8068TIP3    H145695   3.096   4.793  13.630  0.3830 -0.3766  0.3819
 8068TIP3    H245696   3.224   4.862  13.587 -0.6810  1.0282 -0.6450
 8069TIP3   OH245697   3.254   0.498  13.970  0.0526 -0.0502  0.1058
 8069TIP3    H145698   3.198   0.427  14.002 -1.5105  0.8716 -0.4671
 8069TIP3    H245699   3.281   0.544  14.049  0.9104 -1.1198  0.4676
 8070TIP3   OH245700   0.024   6.013  15.692  0.4310 -0.1737  0.2478
 8070TIP3    H145701   0.054   5.931  15.653  0.0966  0.1893 -0.8197
 8070TIP3    H245702   0.050   6.080  15.628  2.3566  0.7845  1.9394
 8071TIP3   OH245703   4.909   2.137   0.497  0.0417 -0.1524 -0.3679
 8071TIP3    H145704   4.888   2.051   0.462  0.0315 -0.3264  0.0669
 8071TIP3    H245705   4.899   2.196   0.423 -1.5496 -0.2855 -0.2792
 8072TIP3   OH245706   4.859   0.735   3.390  0.2480 -0.0552  0.0083
 8072TIP3    H145707   4.892   0.742   3.480  0.3547  0.6524 -0.0827
 8072TIP3    H245708   4.817   0.819   3.374  1.2675  0.2784 -1.0188
 8073TIP3   OH245709   4.802   1.831  15.272  0.5856  0.2148 -0.2781
 8073TIP3    H145710   4.862   1.847  15.345  0.8726  0.5289 -0.5809
 8073TIP3    H245711   4.833   1.748  15.234  2.7421  1.7931 -2.2771
 8074TIP3   OH245712   5.715   1.449   0.772 -0.2457 -0.1126  0.2987
 8074TIP3    H145713   5.738   1.525   0.718  2.0199 -0.9577 -0.0709
 8074TIP3    H245714   5.725   1.479   0.862 -1.6335  0.6309  0.2214
 8075TIP3   OH245715   0.401   1.807  13.642 -0.0953  0.7861  0.4209
 8075TIP3    H145716   0.331   1.841  13.586 -0.7909 -1.7180 -0.3706
 8075TIP3    H245717   0.360   1.798  13.728 -0.3168  0.7010  0.3090
 8076TIP3   OH245718   6.202   4.192   4.296  0.4471  0.1031  0.7173
 8076TIP3    H145719   6.162   4.251   4.231  1.8393  2.5288  1.9174
 8076TIP3    H245720   6.158   4.213   4.378  0.9703 -0.5598  1.1796
 8077TIP3   OH245721   4.536   0.697  11.036 -0.5171  0.1770  0.3806
 8077TIP3    H145722   4.528   0.613  10.990 -1.7150 -0.2411  1.2968
 8077TIP3    H245723   4.549   0.762  10.967 -2.0423 -0.4578 -0.5343
 8078TIP3   OH245724   0.806   1.025   0.970  0.3226  0.0122 -0.5321
 8078TIP3    H145725   0.761   1.058   1.047  1.3220 -1.3474  0.6957
 8078TIP3    H245726   0.763   0.942   0.951  1.7201 -0.9096  0.1707
 8079TIP3   OH245727   4.451   6.206   5.840 -0.0544 -0.7994  0.2517
 8079TIP3    H145728   4.464   6.187   5.747 -0.9306  0.3282 -0.1165
 8079TIP3    H245729   4.356   6.214   5.850  0.1040  0.2799  0.9980
 8080TIP3   OH245730   2.306   1.485  11.726  0.0518 -0.1343  0.8664
 8080TIP3    H145731   2.332   1.481  11.634  1.1029  0.3313  1.1185
 8080TIP3    H245732   2.378   1.533  11.768 -0.1805 -0.7650  2.0099
 8081TIP3   OH245733   5.067   2.255  15.185  0.3038  0.6019 -0.0511
 8081TIP3    H145734   4.979   2.246  15.146 -0.6982  2.0626  1.7134
 8081TIP3    H245735   5.089   2.167  15.213 -0.7318  0.2474 -0.2765
 8082TIP3   OH245736   5.113   2.391  13.803 -0.1319  0.3804 -0.8043
 8082TIP3    H145737   5.151   2.310  13.769 -1.6047 -0.6479 -0.1010
 8082TIP3    H245738   5.066   2.364  13.882 -1.5019  1.7329 -1.1145
 8083TIP3   OH245739   1.733   0.783  15.078 -0.4334  0.6348 -0.2549
 8083TIP3    H145740   1.657   0.754  15.028  0.5071  0.9502 -1.9366
 8083TIP3    H245741   1.792   0.708  15.077 -0.7201  0.3581  1.1313
 8084TIP3   OH245742   5.247   0.975   1.210 -0.1023 -0.1795  0.1756
 8084TIP3    H145743   5.210   0.953   1.125 -2.4752 -2.1129  1.5810
 8084TIP3    H245744   5.328   1.022   1.190 -1.2029  0.5557 -3.1142
 8085TIP3   OH245745   5.279   5.183  15.825 -0.0963  0.3749  0.4404
 8085TIP3    H145746   5.328   5.221  15.752 -1.0929 -0.6430 -0.8106
 8085TIP3    H245747   5.220   5.254  15.853  0.3709  0.8078  0.3433
 8086TIP3   OH245748   1.516   3.405   4.559 -0.0602  0.0725 -0.1196
 8086TIP3    H145749   1.451   3.415   4.490 -1.1477 -0.0538  0.8711
 8086TIP3    H245750   1.468   3.417   4.641  1.1202 -0.2025  0.6493
 8087TIP3   OH245751   0.106   1.701   0.564  0.5221  0.2020  0.2415
 8087TIP3    H145752   0.067   1.765   0.504 -0.2721  0.1102  0.6484
 8087TIP3    H245753   0.034   1.673   0.619  0.0546 -3.3388 -1.8611
 8088TIP3   OH245754   2.701   4.848  12.222 -0.4369  0.4614 -0.1290
 8088TIP3    H145755   2.755   4.834  12.144 -3.1387 -4.0646 -1.5868
 8088TIP3    H245756   2.742   4.796  12.290 -1.0573 -0.2372 -0.2703
 8089TIP3   OH245757   4.455   0.521  17.047 -0.1995  0.1123  0.6794
 8089TIP3    H145758   4.404   0.505  16.968 -0.2644  1.0963  0.5049
 8089TIP3    H245759   4.453   0.438  17.095 -1.3365 -0.0721  0.3283
 8090TIP3   OH245760   3.066   5.394   5.697  0.0140 -0.1482  0.0418
 8090TIP3    H145761   3.143   5.411   5.752  0.4522 -1.9801  0.0500
 8090TIP3    H245762   3.084   5.309   5.656 -1.2941  0.1509 -1.2305
 8091TIP3   OH245763   4.407   1.261  12.530  0.3814 -0.6607  0.5384
 8091TIP3    H145764   4.337   1.262  12.466  0.1142  2.2604  0.7747
 8091TIP3    H245765   4.487   1.258  12.478  0.1625  1.4807  0.0110
 8092TIP3   OH245766   1.368   3.336   1.471  0.2425  0.2338  0.8177
 8092TIP3    H145767   1.404   3.330   1.560  0.3095  3.1095  1.0672
 8092TIP3    H245768   1.439   3.373   1.420 -0.4003  0.2720 -0.0566
 8093TIP3   OH245769   5.802   1.048   3.006  0.2682  0.0390 -0.1913
 8093TIP3    H145770   5.849   1.130   2.987  1.6760 -1.1859 -2.4244
 8093TIP3    H245771   5.715   1.062   2.968 -0.4177  1.3855  1.7244
 8094TIP3   OH245772   2.833   1.197   1.081 -0.2300 -0.3115 -0.0178
 8094TIP3    H145773   2.899   1.237   1.137  0.0384  0.2520 -0.7177
 8094TIP3    H245774   2.780   1.270   1.050  1.3124 -0.1824 -2.6916
 8095TIP3   OH245775   6.626   4.852   4.155 -0.3005 -0.0337  0.0946
 8095TIP3    H145776   6.722   4.848   4.151 -0.1851  0.7792  1.4487
 8095TIP3    H245777   6.597   4.772   4.111  0.9710  0.0754 -1.0265
 8096TIP3   OH245778   3.736   5.566  12.963 -0.1881 -0.3547 -0.1467
 8096TIP3    H145779   3.689   5.497  12.916 -1.4781  0.2354  0.2444
 8096TIP3    H245780   3.676   5.640  12.963  2.4076  2.0494 -3.5602
 8097TIP3   OH245781   3.708   6.254  14.405 -0.4844 -0.0203  0.0349
 8097TIP3    H145782   3.693   6.330  14.350 -1.2363 -0.7402 -0.7965
 8097TIP3    H245783   3.709   6.180  14.344 -1.0442 -0.8144  0.9493
 8098TIP3   OH245784   4.331   2.178   4.456 -0.5652 -0.5123 -0.0204
 8098TIP3    H145785   4.358   2.104   4.510 -0.4180 -0.2620  0.2541
 8098TIP3    H245786   4.287   2.138   4.381  0.5450 -0.9177 -0.4708
 8099TIP3   OH245787   5.481   0.826   6.589  0.0375 -0.1337 -0.3720
 8099TIP3    H145788   5.465   0.911   6.548 -0.6724  0.0597  0.2991
 8099TIP3    H245789   5.566   0.798   6.553 -0.1703  0.4126 -1.3191
 8100TIP3   OH245790   1.790   5.488   5.021  0.2636 -0.3031 -0.6189
 8100TIP3    H145791   1.741   5.427   4.966 -0.5708 -0.9647  0.8015
 8100TIP3    H245792   1.879   5.451   5.023  0.2323 -0.4313 -1.2537
 8101TIP3   OH245793   3.906   1.303  16.850 -0.8437 -0.1705  0.2256
 8101TIP3    H145794   3.861   1.246  16.787  1.1167 -0.6109 -0.8458
 8101TIP3    H245795   3.951   1.243  16.909  0.5480  0.2263 -0.3926
 8102TIP3   OH245796   1.696   6.269   4.637  0.3937  0.2509 -0.7703
 8102TIP3    H145797   1.686   6.360   4.609  1.5681  0.1439 -1.5855
 8102TIP3    H245798   1.611   6.246   4.674  0.3007  1.9091  0.1447
 8103TIP3   OH245799   4.854   2.024  16.483 -0.2423  0.9269  0.6085
 8103TIP3    H145800   4.762   2.021  16.509 -0.3784 -0.9644  0.0248
 8103TIP3    H245801   4.853   2.059  16.394 -0.6119 -0.7765 -0.0978
 8104TIP3   OH245802   2.986   3.327  12.372 -0.4324  0.4979  0.5556
 8104TIP3    H145803   3.001   3.413  12.410  0.3246  0.9972 -0.7935
 8104TIP3    H245804   2.933   3.344  12.294 -0.6679 -0.3135  0.5273
 8105TIP3   OH245805   2.227   0.133   6.623  0.3099 -0.0330  0.7057
 8105TIP3    H145806   2.230   0.210   6.568  1.0871 -0.8900 -0.4903
 8105TIP3    H245807   2.271   0.159   6.704 -0.6998  1.1875  0.8849
 8106TIP3   OH245808   1.571   4.478  16.507  0.1577  0.3642 -0.3829
 8106TIP3    H145809   1.664   4.470  16.529 -0.1111  0.4662  0.8596
 8106TIP3    H245810   1.570   4.496  16.412  1.4553  1.4786 -0.2181
 8107TIP3   OH245811   3.872   2.578   1.481  0.0205  0.2494  0.4576
 8107TIP3    H145812   3.938   2.587   1.412 -0.6312 -0.0987 -0.2196
 8107TIP3    H245813   3.825   2.661   1.481 -0.6885 -0.1366 -0.2720
 8108TIP3   OH245814   2.297   2.765   3.565  0.5853  0.4408  0.0560
 8108TIP3    H145815   2.301   2.716   3.647 -0.4877 -0.2709 -0.2954
 8108TIP3    H245816   2.380   2.812   3.561  0.8435  0.1230  1.3210
 8109TIP3   OH245817   3.243   0.513  15.070 -0.0017 -0.8722 -0.2069
 8109TIP3    H145818   3.196   0.460  15.005 -0.2315  0.1277 -0.8696
 8109TIP3    H245819   3.275   0.588  15.021 -0.3405 -0.0004  0.8731
 8110TIP3   OH245820   0.196   2.280  12.300 -0.4220 -0.5633 -0.1642
 8110TIP3    H145821   0.176   2.233  12.219 -1.0686 -0.4412 -0.0741
 8110TIP3    H245822   0.182   2.216  12.369 -0.1859 -0.5711 -0.1213
 8111TIP3   OH245823   2.458   2.926  17.008 -0.0475  0.5746  0.1188
 8111TIP3    H145824   2.546   2.962  17.020  0.6121 -0.0525 -2.2642
 8111TIP3    H245825   2.456   2.847  17.063  1.2945  0.0175 -0.5815
 8112TIP3   OH245826   0.791   5.057   1.022 -0.3300  0.1339  0.5140
 8112TIP3    H145827   0.800   5.101   0.938  2.0758  0.0099  0.6367
 8112TIP3    H245828   0.715   5.000   1.012  0.6717 -0.8771 -2.0339
 8113TIP3   OH245829   5.286   3.602  16.281  0.0333 -0.0814  0.2672
 8113TIP3    H145830   5.359   3.623  16.222  0.2538 -0.4355  0.4138
 8113TIP3    H245831   5.227   3.549  16.228  0.5101 -0.8877  0.5299
 8114TIP3   OH245832   6.444   5.965  14.109 -0.1518 -0.5148  0.2509
 8114TIP3    H145833   6.438   5.885  14.057  0.4986 -0.1904 -0.3455
 8114TIP3    H245834   6.500   5.941  14.183 -0.3962 -0.7513  0.3618
 8115TIP3   OH245835   1.903   6.588   5.811  0.1163  0.3936  0.7001
 8115TIP3    H145836   1.957   6.520   5.851  0.3054  0.6021  0.8010
 8115TIP3    H245837   1.941   6.600   5.724 -1.2829 -1.2061 -0.1770
 8116TIP3   OH245838   3.697   2.866   3.829  1.0742 -0.1904  0.3791
 8116TIP3    H145839   3.632   2.934   3.848 -2.5269 -2.9840 -0.8265
 8116TIP3    H245840   3.753   2.864   3.907  1.1232  3.7159  0.6286
 8117TIP3   OH245841   2.038   3.294   3.806 -0.3766  0.7741 -0.3770
 8117TIP3    H145842   2.035   3.377   3.852 -1.4910  0.4745  0.1228
 8117TIP3    H245843   2.057   3.229   3.873  2.5583  0.7764 -1.0495
 8118TIP3   OH245844   5.861   2.674  16.367  0.5811  0.1484  0.3888
 8118TIP3    H145845   5.793   2.711  16.423  0.8192 -0.9551  1.4535
 8118TIP3    H245846   5.943   2.703  16.406  0.7803 -1.7682  1.4816
 8119TIP3   OH245847   5.351   3.672  11.136  0.0320  0.1055  0.0056
 8119TIP3    H145848   5.430   3.623  11.112  0.1621  0.9488 -1.3687
 8119TIP3    H245849   5.281   3.632  11.084 -0.2220  0.1606  0.3031
 8120TIP3   OH245850   0.908   4.422  15.610  0.2314 -0.4260 -0.1542
 8120TIP3    H145851   1.003   4.405  15.608  0.3142  0.0183 -0.0282
 8120TIP3    H245852   0.880   4.390  15.696  0.2671 -0.5506 -0.1887
 8121TIP3   OH245853   4.145   0.872  14.889 -0.0567 -0.1291  0.5480
 8121TIP3    H145854   4.131   0.886  14.795  0.7045  2.1553  0.7230
 8121TIP3    H245855   4.170   0.780  14.896 -1.2860 -0.6568 -1.3342
 8122TIP3   OH245856   1.192   3.645  14.216  0.0279 -0.3907 -0.0783
 8122TIP3    H145857   1.121   3.705  14.239  1.2970  1.3265 -0.4652
 8122TIP3    H245858   1.173   3.620  14.126  1.1407  2.0446 -1.0859
 8123TIP3   OH245859   2.900   5.732  13.657  0.5819 -0.5817  0.3378
 8123TIP3    H145860   2.826   5.764  13.605  1.0474 -0.5103 -0.2869
 8123TIP3    H245861   2.942   5.666  13.602  0.0034 -1.8495  1.3665
 8124TIP3   OH245862   4.986   6.812   0.753 -0.5839  0.6306  0.8655
 8124TIP3    H145863   4.901   6.845   0.724 -0.5863  1.3874  1.6787
 8124TIP3    H245864   5.025   6.886   0.800 -0.0872 -0.1557  1.7164
 8125TIP3   OH245865   2.721   0.008  12.020  0.3116 -0.2566  0.2765
 8125TIP3    H145866   2.733  -0.082  11.990  0.9480  0.0230 -0.3285
 8125TIP3    H245867   2.753   0.062  11.948 -0.2073  0.4611  0.5709
 8126TIP3   OH245868   1.121   5.994   3.888  0.4305  0.5695  0.4349
 8126TIP3    H145869   1.090   5.909   3.919 -0.7572  0.6960 -0.3082
 8126TIP3    H245870   1.208   6.004   3.926  0.2280 -0.5804  1.2521
 8127TIP3   OH245871   0.065   5.351   5.222  0.1710 -0.7129  0.1525
 8127TIP3    H145872   0.019   5.275   5.258  0.3889 -0.6871  0.4889
 8127TIP3    H245873   0.150   5.317   5.195  0.5106 -0.4649  0.8860
 8128TIP3   OH245874   0.202   3.844   4.969  0.4220 -0.1317  0.5670
 8128TIP3    H145875   0.126   3.792   4.992 -0.1560  0.3681 -0.1590
 8128TIP3    H245876   0.226   3.889   5.050  1.3936 -2.0364  1.4124
 8129TIP3   OH245877   5.258   0.672  11.211  0.1303  0.1859 -0.3148
 8129TIP3    H145878   5.191   0.688  11.146  0.4040  1.1166 -0.3905
 8129TIP3    H245879   5.308   0.754  11.215 -0.0723  0.2721  1.2828
 8130TIP3   OH245880   0.381   5.062  14.366  0.0360  0.2604 -0.1656
 8130TIP3    H145881   0.431   5.143  14.360 -2.3743  1.7862 -0.9182
 8130TIP3    H245882   0.398   5.017  14.284 -0.2415  1.0348 -0.6580
 8131TIP3   OH245883   4.914   3.183   2.596 -0.3746 -0.3583  0.5378
 8131TIP3    H145884   5.007   3.160   2.603 -0.6466 -1.0618  2.7984
 8131TIP3    H245885   4.913   3.268   2.551  1.2974 -0.6353 -0.0915
 8132TIP3   OH245886   2.082   2.224   5.612 -0.0404  0.4713 -0.2054
 8132TIP3    H145887   2.112   2.314   5.601 -1.1942  0.7058 -1.7635
 8132TIP3    H245888   1.987   2.230   5.610 -0.1458 -0.7474  0.0895
 8133TIP3   OH245889   5.842   5.272  12.707 -0.4684 -0.2272  0.0061
 8133TIP3    H145890   5.924   5.227  12.686 -0.6763 -1.1673  1.1474
 8133TIP3    H245891   5.773   5.211  12.681 -0.7517 -1.6646  3.5674
 8134TIP3   OH245892   2.729   4.011   0.440  0.4899 -0.2527  0.1662
 8134TIP3    H145893   2.760   3.936   0.490  0.0747 -1.0052 -0.6926
 8134TIP3    H245894   2.633   4.004   0.442  0.4614 -0.8275 -1.4869
 8135TIP3   OH245895   0.047   4.896   2.959  0.4337 -0.6291 -0.0480
 8135TIP3    H145896   0.082   4.816   2.920  0.5493 -1.1137  1.0129
 8135TIP3    H245897  -0.031   4.916   2.907  0.0453 -1.7840  0.0724
 8136TIP3   OH245898   4.786   6.774  14.015 -0.5883 -0.0973 -0.1768
 8136TIP3    H145899   4.846   6.729  14.074  0.2638  1.6720  0.3744
 8136TIP3    H245900   4.836   6.848  13.982 -1.7142  0.0782 -1.5785
 8137TIP3   OH245901   6.105   3.088  16.977  0.0044  0.7679  0.6902
 8137TIP3    H145902   6.034   3.060  17.035 -1.3741  0.8076 -0.9273
 8137TIP3    H245903   6.065   3.150  16.916  0.9677 -0.5564 -1.4104
 8138TIP3   OH245904   0.576   6.692  16.567 -0.4004  0.2669  0.2241
 8138TIP3    H145905   0.623   6.767  16.603  0.3993  0.0925 -0.4246
 8138TIP3    H245906   0.601   6.690  16.474  0.1484 -1.1962  0.3758
 8139TIP3   OH245907   0.734   3.798  13.052 -0.2040 -0.4334 -0.1857
 8139TIP3    H145908   0.666   3.732  13.061  0.2133 -0.6133  2.3017
 8139TIP3    H245909   0.798   3.776  13.119  0.5237  1.8365 -0.0501
 8140TIP3   OH245910   6.197   0.876   5.679  0.0277  0.3996 -0.7767
 8140TIP3    H145911   6.271   0.862   5.620  0.6128 -1.0919  0.2500
 8140TIP3    H245912   6.200   0.802   5.740 -2.1042  0.4939 -0.4734
 8141TIP3   OH245913   0.127   4.131   6.031 -0.0023 -0.1568  0.1981
 8141TIP3    H145914   0.101   4.040   6.016  1.3674 -0.7288  1.1233
 8141TIP3    H245915   0.048   4.173   6.065 -1.2271 -0.4784 -2.0208
 8142TIP3   OH245916   6.655   0.440  16.067 -0.6739  0.2142 -0.4570
 8142TIP3    H145917   6.663   0.499  16.141 -1.3741  1.2134 -1.1457
 8142TIP3    H245918   6.576   0.469  16.021  0.1625  0.1315 -2.0232
 8143TIP3   OH245919   0.964   1.109  15.679  0.1426 -0.1261  0.7057
 8143TIP3    H145920   0.926   1.175  15.736 -2.5103  0.9677 -2.0840
 8143TIP3    H245921   1.007   1.158  15.609 -1.1726 -1.2897 -0.9891
 8144TIP3   OH245922   5.043   0.080   1.547  0.8069 -0.1323  0.3330
 8144TIP3    H145923   5.124   0.103   1.503 -0.0418 -1.0825 -1.8633
 8144TIP3    H245924   5.054  -0.013   1.571  0.6305 -0.0647  0.6884
 8145TIP3   OH245925   5.027   5.504  12.018  0.6189 -0.0132 -0.0076
 8145TIP3    H145926   5.039   5.418  12.057 -0.2172 -0.1096  0.0710
 8145TIP3    H245927   5.004   5.486  11.927 -0.3809  0.0731  0.2107
 8146TIP3   OH245928   4.384   3.015  17.204 -0.3938  0.1951  0.2129
 8146TIP3    H145929   4.343   2.944  17.155 -0.8600  1.7894 -1.8709
 8146TIP3    H245930   4.315   3.081  17.213  0.4689  1.0665  0.6523
 8147TIP3   OH245931   6.226   5.814  16.836 -0.4578 -0.0193  0.1405
 8147TIP3    H145932   6.244   5.879  16.905 -0.2509  1.6985 -1.4569
 8147TIP3    H245933   6.242   5.861  16.754 -0.3330 -2.1072 -1.1026
 8148TIP3   OH245934   4.137   4.970  12.512 -0.1427 -0.0911 -0.0291
 8148TIP3    H145935   4.221   4.947  12.472 -0.9313 -2.1812 -0.6185
 8148TIP3    H245936   4.147   5.061  12.538  2.4353 -0.3947  0.2823
 8149TIP3   OH245937   5.168   1.923   1.330 -0.6213  0.3609  0.0537
 8149TIP3    H145938   5.248   1.914   1.381  0.1370 -0.2253 -1.2012
 8149TIP3    H245939   5.141   2.013   1.343 -0.2165  0.3365  1.1410
 8150TIP3   OH245940   1.876   4.993   3.062 -0.1510  0.4562  0.2788
 8150TIP3    H145941   1.893   4.949   3.146  0.7504  0.9571  0.3760
 8150TIP3    H245942   1.781   4.992   3.053 -0.1660 -1.4795  0.2795
 8151TIP3   OH245943   5.993   3.367   2.551  0.2309 -0.1545 -0.0983
 8151TIP3    H145944   6.009   3.443   2.494 -2.7250  0.5999 -0.1072
 8151TIP3    H245945   6.012   3.291   2.496  1.3068  0.5668 -0.7564
 8152TIP3   OH245946   2.038   1.674  14.549 -0.2825 -0.1428 -0.0104
 8152TIP3    H145947   1.952   1.703  14.517 -1.1899 -2.3629  0.2367
 8152TIP3    H245948   2.052   1.724  14.629 -0.4083  1.6537 -1.0388
 8153TIP3   OH245949   3.200   3.355  16.571 -0.0521  0.3359 -0.0817
 8153TIP3    H145950   3.143   3.370  16.646 -1.9396 -0.1152 -1.3597
 8153TIP3    H245951   3.220   3.443  16.538  0.9243  0.5468  0.9834
 8154TIP3   OH245952   3.482   6.625   3.789  0.2646 -0.2798  0.3048
 8154TIP3    H145953   3.488   6.664   3.702  0.0069  0.1622  0.4831
 8154TIP3    H245954   3.485   6.530   3.773 -1.4961 -0.2517 -0.3206
 8155TIP3   OH245955   5.032   2.819  16.078 -0.0756 -0.2353 -0.2865
 8155TIP3    H145956   5.118   2.842  16.114  0.0713 -1.0489 -0.1035
 8155TIP3    H245957   5.051   2.775  15.996 -0.4400  2.5028 -1.9658
 8156TIP3   OH245958   3.033   0.149   4.939  0.3617  0.6039 -0.0867
 8156TIP3    H145959   3.065   0.192   4.860  2.6067 -0.4193  0.1953
 8156TIP3    H245960   3.080   0.065   4.941 -0.0928  0.3510  2.0196
 8157TIP3   OH245961   3.090   6.799   4.505 -0.4218  0.1126  0.3291
 8157TIP3    H145962   3.090   6.893   4.487 -0.9545  0.2783  1.1737
 8157TIP3    H245963   3.165   6.784   4.561 -0.5806  0.1050  0.5415
 8158TIP3   OH245964   4.619   6.313  10.673 -0.0750  0.3916  0.0262
 8158TIP3    H145965   4.714   6.302  10.675  0.0465  1.4299  0.2401
 8158TIP3    H245966   4.586   6.228  10.642  0.9603  0.3202 -0.9375
 8159TIP3   OH245967   0.066   2.211  16.716 -0.3008  0.7171  0.1131
 8159TIP3    H145968   0.075   2.131  16.767  0.4084 -0.9601 -2.4718
 8159TIP3    H245969   0.107   2.279  16.770 -1.0584 -0.5702  2.4366
 8160TIP3   OH245970   6.207   2.300  12.239 -0.3599  0.0605  0.1989
 8160TIP3    H145971   6.137   2.276  12.300  0.8257 -1.2938  1.0858
 8160TIP3    H245972   6.287   2.270  12.281  0.5318 -0.8759 -1.9786
 8161TIP3   OH245973   0.006   5.937   5.973 -0.1675  0.3204  0.1123
 8161TIP3    H145974   0.001   5.965   6.065  1.3932  1.1873 -0.0264
 8161TIP3    H245975   0.036   5.846   5.978 -1.9284 -0.2796  0.4804
 8162TIP3   OH245976   4.496   2.342   0.385 -0.7159 -0.2365 -0.2815
 8162TIP3    H145977   4.500   2.247   0.383 -1.6918 -0.3163  0.6979
 8162TIP3    H245978   4.441   2.365   0.309 -0.6214 -0.4514 -0.4149
 8163TIP3   OH245979   3.118   3.517   1.416  0.1475 -0.0973  0.0838
 8163TIP3    H145980   3.212   3.506   1.404  0.3722  1.7415 -0.0553
 8163TIP3    H245981   3.110   3.592   1.475 -1.2055 -1.4424  1.7289
 8164TIP3   OH245982   1.372   5.573  15.418  0.2986 -0.1413 -0.1707
 8164TIP3    H145983   1.448   5.516  15.421 -0.1693 -0.7621  1.8831
 8164TIP3    H245984   1.333   5.565  15.505 -1.6123  0.8437 -0.8776
 8165TIP3   OH245985   2.120   0.160   5.765  0.1430 -0.3700 -0.4897
 8165TIP3    H145986   2.186   0.112   5.816  1.6241  1.2249 -0.8160
 8165TIP3    H245987   2.054   0.184   5.829  0.7458 -0.5243  0.2100
 8166TIP3   OH245988   3.432   4.347   4.441  0.2791 -0.0361  0.2389
 8166TIP3    H145989   3.372   4.328   4.513  1.4014 -0.7334  1.0231
 8166TIP3    H245990   3.375   4.354   4.364 -0.9595  0.8508  1.1944
 8167TIP3   OH245991   1.967   4.324   0.102 -0.2269  0.7804  0.4771
 8167TIP3    H145992   2.017   4.278   0.035  0.4520 -0.1857  1.6222
 8167TIP3    H245993   1.890   4.269   0.117  0.8512 -0.3430  2.2320
 8168TIP3   OH245994   6.818   3.113  17.072 -0.0356  0.0105  0.2144
 8168TIP3    H145995   6.865   3.196  17.082  1.4763 -0.7090 -0.4713
 8168TIP3    H245996   6.885   3.052  17.040 -1.1598 -1.4195  0.4901
 8169TIP3   OH245997   2.550   4.046  16.690  0.0366 -0.8590 -0.3897
 8169TIP3    H145998   2.517   4.123  16.643 -1.8528 -0.8194  0.9051
 8169TIP3    H245999   2.530   3.973  16.631 -1.5380 -0.7197 -0.0746
 8170TIP3   OH246000   5.112   0.974  15.757  0.3162  0.1063 -0.7906
 8170TIP3    H146001   5.159   0.891  15.758  0.6729  0.3089 -0.6256
 8170TIP3    H246002   5.177   1.038  15.729  0.8063  0.7656  1.6301
 8171TIP3   OH246003   6.677   1.262  13.373  0.0116  0.3298 -0.3843
 8171TIP3    H146004   6.590   1.262  13.411 -1.0065 -1.8316 -2.4200
 8171TIP3    H246005   6.705   1.170  13.379  1.3864  0.6630 -1.3414
 8172TIP3   OH246006   3.308   0.249  11.959 -0.7961  0.3112 -0.4066
 8172TIP3    H146007   3.279   0.214  12.043  0.4221  0.0751 -0.0735
 8172TIP3    H246008   3.325   0.342  11.976  1.1345 -0.0906  0.0863
 8173TIP3   OH246009   3.363   0.298  11.695 -0.2597  0.1835  0.1169
 8173TIP3    H146010   3.370   0.275  11.788  0.6823  0.0007  0.0107
 8173TIP3    H246011   3.278   0.341  11.688 -0.6477 -0.4092  0.9320
 8174TIP3   OH246012   2.940   0.512  11.280 -0.0178 -0.8281  0.2480
 8174TIP3    H146013   2.851   0.498  11.248 -0.5382  0.1140  1.2274
 8174TIP3    H246014   2.930   0.572  11.354  1.1643 -2.6340  1.9764
 8175TIP3   OH246015   6.339   3.933   5.416  0.2739  0.0062  0.6891
 8175TIP3    H146016   6.416   3.907   5.365  1.0442 -1.1296  2.3530
 8175TIP3    H246017   6.284   3.855   5.419 -0.3636  0.4396  0.5730
 8176TIP3   OH246018   0.533   3.540  12.528 -0.4846 -0.2784  0.7105
 8176TIP3    H146019   0.604   3.550  12.592 -2.3961  1.3642  2.7161
 8176TIP3    H246020   0.531   3.446  12.509  1.4412 -0.5163  1.4871
 8177TIP3   OH246021   0.268   6.715   5.156 -0.0711  0.8273  0.6600
 8177TIP3    H146022   0.218   6.728   5.075  0.5273  1.0713  0.3240
 8177TIP3    H246023   0.283   6.803   5.189  0.0127  0.7476  0.8332
 8178TIP3   OH246024   6.769   6.204  14.931  0.0419 -0.2797 -0.5616
 8178TIP3    H146025   6.785   6.189  15.025  0.7498  1.1565 -0.4354
 8178TIP3    H246026   6.674   6.198  14.922 -0.1970  1.1964  0.5767
 8179TIP3   OH246027   2.407   4.410   5.561  0.4008  0.8347 -0.1460
 8179TIP3    H146028   2.436   4.382   5.648  1.9878 -1.0336 -1.2141
 8179TIP3    H246029   2.316   4.381   5.556  1.0579 -1.4499 -0.0218
 8180TIP3   OH246030   5.098   1.812   2.619 -0.0252 -0.4600 -0.2051
 8180TIP3    H146031   5.061   1.835   2.534 -1.2079 -0.0244  0.4036
 8180TIP3    H246032   5.032   1.841   2.683  0.1404 -2.1446  0.7929
 8181TIP3   OH246033   6.779   0.322  13.746  0.1724  0.3077  0.1254
 8181TIP3    H146034   6.779   0.410  13.709 -0.7160  0.6661  0.9453
 8181TIP3    H246035   6.772   0.265  13.669 -0.7605  1.0092 -0.3392
 8182TIP3   OH246036   6.341   0.693   1.259  0.1678 -0.1522  0.0381
 8182TIP3    H146037   6.268   0.651   1.212  0.0762 -1.1182  1.0133
 8182TIP3    H246038   6.400   0.722   1.189 -1.1244  0.6451 -0.7849
 8183TIP3   OH246039   6.772   3.896   3.372  0.0357 -0.2494  0.3246
 8183TIP3    H146040   6.700   3.847   3.412 -1.8663  1.4532 -0.8250
 8183TIP3    H246041   6.776   3.863   3.282 -1.8737  2.1281 -0.7509
 8184TIP3   OH246042   2.634   4.167  11.280 -0.2254  0.7171 -0.8390
 8184TIP3    H146043   2.724   4.152  11.252 -0.3525 -0.7583 -0.5048
 8184TIP3    H246044   2.591   4.206  11.204 -0.2458 -2.0160 -2.3472
 8185TIP3   OH246045   5.919   5.657   3.216  0.9064  0.1484  0.1183
 8185TIP3    H146046   5.857   5.639   3.286  0.6761  2.2343  0.5098
 8185TIP3    H246047   5.955   5.571   3.193 -2.1726 -1.1554 -0.2195
 8186TIP3   OH246048   5.374   2.570   2.379  0.1937 -0.3825  0.1851
 8186TIP3    H146049   5.297   2.621   2.405  0.4564 -0.2842  0.7862
 8186TIP3    H246050   5.437   2.584   2.449  0.8501 -0.2849 -0.4165
 8187TIP3   OH246051   4.809   5.264   2.826 -0.3984 -0.6366 -0.2676
 8187TIP3    H146052   4.855   5.271   2.742 -0.9633  0.7233 -0.4834
 8187TIP3    H246053   4.877   5.280   2.892 -0.0845 -1.0628 -0.4826
 8188TIP3   OH246054   2.236   4.332  14.617  0.1013 -0.4461  0.0187
 8188TIP3    H146055   2.229   4.312  14.710  0.1719 -0.1184  0.0953
 8188TIP3    H246056   2.240   4.246  14.574  0.4283 -0.5954  0.3432
 8189TIP3   OH246057   3.786   0.528   0.259  0.2810 -0.3499  0.4473
 8189TIP3    H146058   3.766   0.619   0.282  3.2434  0.3846  0.4802
 8189TIP3    H246059   3.814   0.488   0.341 -0.4920 -1.1828  0.3235
 8190TIP3   OH246060   5.825   6.556   2.537  0.1726  0.1175 -0.4380
 8190TIP3    H146061   5.905   6.506   2.554  1.0991  0.8025 -2.5114
 8190TIP3    H246062   5.790   6.520   2.456 -0.2525  1.4840 -0.8863
 8191TIP3   OH246063   5.945   4.345   2.899 -0.0162  0.2987 -0.0151
 8191TIP3    H146064   5.955   4.353   2.804  2.7073  0.1327  0.1771
 8191TIP3    H246065   5.982   4.426   2.934 -1.0841  0.4013  0.9141
 8192TIP3   OH246066   6.560   6.751   3.582 -0.1436 -0.6311 -0.1356
 8192TIP3    H146067   6.568   6.799   3.664 -1.7006  1.4319 -1.1156
 8192TIP3    H246068   6.472   6.714   3.584  0.2858 -1.7007 -0.3275
 8193TIP3   OH246069   2.460   1.438  16.831 -0.4150 -0.9272 -0.0167
 8193TIP3    H146070   2.543   1.453  16.877 -0.9853  1.5306  0.3628
 8193TIP3    H246071   2.410   1.382  16.890  0.5005 -1.4204  0.3123
 8194TIP3   OH246072   4.269   1.027   5.212  0.6154  0.3723 -0.2106
 8194TIP3    H146073   4.254   1.033   5.306  1.0971 -1.2916 -0.0052
 8194TIP3    H246074   4.330   0.954   5.201  1.0272  0.9066 -1.7731
 8195TIP3   OH246075   6.113   6.276  17.001 -0.8941 -0.2746  0.1083
 8195TIP3    H146076   6.122   6.234  17.087 -1.7557 -1.2669 -0.2706
 8195TIP3    H246077   6.083   6.206  16.943  1.3206 -0.0369 -1.4129
 8196TIP3   OH246078   2.700   3.767  13.053 -0.0290 -0.2729 -0.0835
 8196TIP3    H146079   2.779   3.718  13.077  1.9873  2.7481 -0.0528
 8196TIP3    H246080   2.639   3.751  13.125  1.0440 -1.6191  0.5634
 8197TIP3   OH246081   2.704   4.205   2.845  0.3598 -0.0377  0.0730
 8197TIP3    H146082   2.725   4.197   2.939  0.3373 -1.3639 -0.0164
 8197TIP3    H246083   2.789   4.209   2.802  0.3934 -1.0946  0.0317
 8198TIP3   OH246084   5.322   5.549  15.726  0.1376  0.3210  0.4272
 8198TIP3    H146085   5.265   5.474  15.742  0.7779 -0.7335 -1.8749
 8198TIP3    H246086   5.335   5.550  15.631  0.2899  3.2682  0.3765
 8199TIP3   OH246087   5.642   4.051   3.266 -0.7342 -0.3034  0.3090
 8199TIP3    H146088   5.651   3.961   3.298 -0.1781 -0.1235  0.6717
 8199TIP3    H246089   5.731   4.077   3.241 -0.8097  0.3114  0.6658
 8200TIP3   OH246090   1.916   4.094   2.514  0.3176  0.5360  0.1527
 8200TIP3    H146091   1.895   4.002   2.529 -0.4517  0.9557  1.9238
 8200TIP3    H246092   1.854   4.122   2.447  0.6775 -0.2534 -0.5332
 8201TIP3   OH246093   0.689   4.071  16.370  0.6820 -0.0921  0.1116
 8201TIP3    H146094   0.649   4.150  16.405 -0.9011 -0.5421 -0.5989
 8201TIP3    H246095   0.753   4.103  16.306  1.7888  0.6467  1.5428
 8202TIP3   OH246096   1.680   0.951   6.214  0.8234 -0.8046  0.4984
 8202TIP3    H146097   1.727   0.880   6.169 -0.3684 -1.6255  0.5068
 8202TIP3    H246098   1.659   0.915   6.300  1.4522  0.0919  1.0463
 8203TIP3   OH246099   0.573   1.638  14.518  0.5582  0.5312 -0.0062
 8203TIP3    H146100   0.598   1.665  14.430  1.3321 -1.0710 -0.3068
 8203TIP3    H246101   0.610   1.705  14.575 -1.8435  2.8558 -0.9456
 8204TIP3   OH246102   2.167   0.629  14.000 -0.0173  0.4019  0.4253
 8204TIP3    H146103   2.114   0.623  14.079  0.8703  1.5955  1.1365
 8204TIP3    H246104   2.146   0.715  13.963 -0.3270 -0.0855 -0.5884
 8205TIP3   OH246105   2.811   4.828   0.787 -0.0426 -0.5153 -0.6107
 8205TIP3    H146106   2.826   4.787   0.872 -0.1892 -3.3564 -1.8201
 8205TIP3    H246107   2.735   4.885   0.800 -0.5578 -1.4983  1.0010
 8206TIP3   OH246108   1.019   0.371   1.939  0.1796  0.7026 -0.4392
 8206TIP3    H146109   1.053   0.349   1.852  2.2317 -0.2022  0.5083
 8206TIP3    H246110   1.097   0.376   1.993 -1.1220  0.2433  1.5688
 8207TIP3   OH246111   4.788   5.792  16.498 -0.1692  0.2623  0.0636
 8207TIP3    H146112   4.829   5.722  16.447  2.0266  0.2877  1.6132
 8207TIP3    H246113   4.757   5.749  16.577  1.2414  0.9670  1.0549
 8208TIP3   OH246114   4.881   1.416  11.185 -0.4119  0.6102 -0.2524
 8208TIP3    H146115   4.815   1.421  11.254 -1.1264 -0.8026 -0.7767
 8208TIP3    H246116   4.891   1.322  11.168 -0.5471  0.9223 -2.3391
 8209TIP3   OH246117   6.694   0.881  14.620  0.5605  0.3950  0.0344
 8209TIP3    H146118   6.667   0.931  14.542  0.0462 -1.8805 -1.3481
 8209TIP3    H246119   6.626   0.899  14.684 -1.4215 -0.9625 -1.5528
 8210TIP3   OH246120   6.033   6.196  15.991 -0.2243  0.0369 -0.2170
 8210TIP3    H146121   5.952   6.148  16.005 -0.0592 -1.1178 -2.7018
 8210TIP3    H246122   6.033   6.217  15.897  1.1483  2.2715  0.2175
 8211TIP3   OH246123   6.154   4.970  15.626 -0.0116 -0.1092 -0.1628
 8211TIP3    H146124   6.145   4.908  15.553  0.1716  1.2938 -1.4247
 8211TIP3    H246125   6.075   4.957  15.678 -1.4459  0.6240 -2.0452
 8212TIP3   OH246126   1.261   5.525  12.818  0.4999  0.2295  0.0891
 8212TIP3    H146127   1.332   5.585  12.841 -0.3200  0.9430  0.8519
 8212TIP3    H246128   1.247   5.472  12.896  0.5729 -0.2979 -0.2538
 8213TIP3   OH246129   6.754   4.626   1.850 -0.0817  0.1229 -0.2640
 8213TIP3    H146130   6.828   4.570   1.826 -0.3189 -0.7118  0.8530
 8213TIP3    H246131   6.790   4.686   1.916 -0.5371 -0.7642  0.8288
 8214TIP3   OH246132   2.762   4.515  16.290 -0.1518 -0.4471  0.6504
 8214TIP3    H146133   2.815   4.517  16.210 -1.5182  0.5547 -0.2771
 8214TIP3    H246134   2.683   4.468  16.265 -0.8269  0.3451  1.2438
 8215TIP3   OH246135   4.969   4.441  16.776  0.0839  0.5015 -0.1140
 8215TIP3    H146136   4.935   4.531  16.774 -0.8330  0.1533 -0.8833
 8215TIP3    H246137   4.893   4.386  16.758  0.6057 -0.4526  0.4758
 8216TIP3   OH246138   6.024   1.737  10.961  0.0958 -0.0093  0.0261
 8216TIP3    H146139   5.952   1.726  10.899  1.7573  0.9690 -2.2192
 8216TIP3    H246140   6.098   1.692  10.920  0.8657 -0.8640  2.1958
 8217TIP3   OH246141   4.604   0.609   5.222  0.6138  0.0715  0.3728
 8217TIP3    H146142   4.565   0.533   5.265 -0.2405  0.4861  0.3540
 8217TIP3    H246143   4.666   0.572   5.159  1.1319 -0.5684  1.2427
 8218TIP3   OH246144   2.413   4.568   0.140 -0.1435 -0.5115  0.6680
 8218TIP3    H146145   2.430   4.571   0.234 -0.8985 -0.6837  0.8167
 8218TIP3    H246146   2.445   4.652   0.107  0.3965 -0.5710  1.0235
 8219TIP3   OH246147   0.431   3.713  15.386  0.1373 -0.1411 -0.1656
 8219TIP3    H146148   0.453   3.780  15.322 -0.8493  1.1409  0.7890
 8219TIP3    H246149   0.406   3.761  15.465 -3.6527 -1.4545 -0.3523
 8220TIP3   OH246150   0.174   1.731  15.478 -0.0217  0.3876 -0.6391
 8220TIP3    H146151   0.078   1.730  15.475 -0.1326  0.3542  1.4495
 8220TIP3    H246152   0.195   1.718  15.570  2.0078  0.5773 -1.0325
 8221TIP3   OH246153   3.555   3.130  14.650  0.1045  0.1945 -0.7103
 8221TIP3    H146154   3.479   3.075  14.636 -0.2486  0.1641  1.0685
 8221TIP3    H246155   3.630   3.071  14.642 -0.2696 -0.6260  1.2422
 8222TIP3   OH246156   5.832   3.250   2.278  0.0804 -0.1715  0.6634
 8222TIP3    H146157   5.790   3.220   2.198  3.0210 -0.4391 -0.9124
 8222TIP3    H246158   5.862   3.170   2.321  1.6829  0.1019  0.1140
 8223TIP3   OH246159   1.324   6.342  13.082  0.7352 -0.0229  0.2376
 8223TIP3    H146160   1.380   6.413  13.113 -0.5000  1.0051  0.2033
 8223TIP3    H246161   1.294   6.298  13.161 -2.1712  2.4083  0.6336
 8224TIP3   OH246162   0.770   6.397  14.035  0.1750  0.3569 -0.3469
 8224TIP3    H146163   0.707   6.352  14.091  1.2871 -0.7099  0.1017
 8224TIP3    H246164   0.752   6.364  13.947  2.0923 -2.4887  0.1815
 8225TIP3   OH246165   5.658   1.658  14.073  0.5579 -0.2753  0.1479
 8225TIP3    H146166   5.628   1.662  13.982 -0.2655 -0.6617  0.3842
 8225TIP3    H246167   5.748   1.628  14.067  0.3646 -0.7679 -0.5258
 8226TIP3   OH246168   0.129   3.298   1.458  0.1496  0.5733  1.1051
 8226TIP3    H146169   0.071   3.250   1.399 -0.8002 -2.0877  3.9584
 8226TIP3    H246170   0.214   3.298   1.414 -0.5713 -0.9765 -0.4016
 8227TIP3   OH246171   1.657   4.857  15.129  0.0854 -0.0721  0.2737
 8227TIP3    H146172   1.630   4.765  15.124  0.7070 -0.2075 -0.8948
 8227TIP3    H246173   1.627   4.895  15.047 -0.5615  0.9039  0.9373
 8228TIP3   OH246174   5.633   4.254   4.236  0.7438 -0.0907  0.6204
 8228TIP3    H146175   5.599   4.320   4.296 -0.3225 -0.8512  0.8804
 8228TIP3    H246176   5.688   4.198   4.291  0.2896 -0.3998  0.7738
 8229TIP3   OH246177   0.524   3.338  13.130  0.2740  0.2686  0.3113
 8229TIP3    H146178   0.578   3.312  13.204  0.8533 -0.2800 -0.2850
 8229TIP3    H246179   0.434   3.332  13.162  0.2657 -3.3522  0.0201
 8230TIP3   OH246180   1.747   0.417   2.694 -0.1134 -0.0231 -0.0074
 8230TIP3    H146181   1.794   0.402   2.777  0.4462  0.4220 -0.2387
 8230TIP3    H246182   1.764   0.509   2.674  0.2978 -0.2951 -0.9526
 8231TIP3   OH246183   4.108   3.896   3.692 -0.0581  0.4735 -0.1253
 8231TIP3    H146184   4.088   3.842   3.615 -0.2482 -1.0140  0.9127
 8231TIP3    H246185   4.043   3.869   3.757 -0.2912  2.1438  0.3821
 8232TIP3   OH246186   6.476   2.480  13.341 -0.2109  0.5122 -1.0216
 8232TIP3    H146187   6.556   2.525  13.368 -0.2811  1.0593 -1.7070
 8232TIP3    H246188   6.451   2.522  13.259 -0.7720 -0.1840 -1.2166
 8233TIP3   OH246189   0.003   5.067   4.934 -0.4662  0.2469 -0.0242
 8233TIP3    H146190   0.088   5.110   4.927  1.0157 -2.4336 -0.1124
 8233TIP3    H246191  -0.040   5.085   4.850  1.1714 -0.4653 -1.0725
 8234TIP3   OH246192   2.949   5.929   4.987 -0.7971  0.2777 -0.2166
 8234TIP3    H146193   2.892   5.864   5.027  0.0545  0.4554  1.3562
 8234TIP3    H246194   3.033   5.884   4.975 -0.4241  0.8564  0.1751
 8235TIP3   OH246195   2.263   2.819   2.733 -0.6874 -0.0883  0.3476
 8235TIP3    H146196   2.203   2.748   2.708 -0.6508  0.0487 -0.1343
 8235TIP3    H246197   2.246   2.889   2.671  1.0369 -0.6097 -0.7991
 8236TIP3   OH246198   6.444   6.557  15.867  0.1708  0.7132 -0.2781
 8236TIP3    H146199   6.536   6.576  15.888  0.2437  0.7140 -0.5848
 8236TIP3    H246200   6.434   6.464  15.884 -0.1349  0.9686  1.0468
 8237TIP3   OH246201   4.982   4.183   6.196 -0.0779  1.2519 -0.2506
 8237TIP3    H146202   4.994   4.089   6.206  3.4973  1.6745  0.4362
 8237TIP3    H246203   4.946   4.193   6.108  1.1535 -0.6842 -1.0287
 8238TIP3   OH246204   5.895   4.729   2.195 -0.4028  0.0263  0.3426
 8238TIP3    H146205   5.950   4.652   2.205 -1.5952 -0.6124  2.6596
 8238TIP3    H246206   5.935   4.796   2.250 -0.9266  0.1439  0.5897
 8239TIP3   OH246207   2.565   1.577   0.884  0.6184  1.0888  0.5430
 8239TIP3    H146208   2.528   1.599   0.798  0.2972 -0.4301  0.2687
 8239TIP3    H246209   2.489   1.555   0.937  0.9106  0.7843  0.8363
 8240TIP3   OH246210   1.594   1.707  12.029 -0.0243  0.3274  0.4506
 8240TIP3    H146211   1.608   1.642  11.960 -0.6328 -0.1261  0.7381
 8240TIP3    H246212   1.558   1.656  12.102  1.0705  0.7144  1.2820
 8241TIP3   OH246213   5.602   5.254  10.475 -0.0961 -0.1278 -0.5990
 8241TIP3    H146214   5.519   5.207  10.470 -1.6961  2.2536  1.2358
 8241TIP3    H246215   5.578   5.347  10.467  2.3736  0.6592  0.1508
 8242TIP3   OH246216   4.179   6.176   5.841  0.3098 -0.4543  0.8232
 8242TIP3    H146217   4.133   6.104   5.885  0.1624 -1.4115 -0.8155
 8242TIP3    H246218   4.111   6.224   5.795  0.7440 -1.0382 -0.4677
 8243TIP3   OH246219   4.096   2.514  14.219 -0.2074 -0.4927 -0.0036
 8243TIP3    H146220   4.076   2.441  14.160 -0.0712 -0.8417  0.3772
 8243TIP3    H246221   4.016   2.567  14.219  0.3843  0.4820 -1.8620
 8244TIP3   OH246222   4.886   3.930   0.798 -0.1083  0.0962  0.3427
 8244TIP3    H146223   4.874   4.024   0.782 -1.1787 -0.3895 -2.0297
 8244TIP3    H246224   4.953   3.927   0.867 -1.1765  2.6072  1.6311
 8245TIP3   OH246225   0.465   2.863   3.807 -0.1789  0.1535  0.4996
 8245TIP3    H146226   0.380   2.905   3.821 -0.0800  0.7414 -0.5553
 8245TIP3    H246227   0.446   2.770   3.811 -1.2943  0.2201 -1.8016
 8246TIP3   OH246228   5.490   3.861   3.094  0.0976  0.2169 -0.2717
 8246TIP3    H146229   5.426   3.790   3.100  1.2013 -0.9501 -1.5626
 8246TIP3    H246230   5.550   3.846   3.167  0.1508  0.0009 -0.3599
 8247TIP3   OH246231   3.805   3.800  15.748  0.2034  0.1054  0.2611
 8247TIP3    H146232   3.802   3.864  15.677  1.3192  0.7157  0.7395
 8247TIP3    H246233   3.881   3.746  15.730  0.8410  0.6311  1.2781
 8248TIP3   OH246234   6.725   0.176  17.138 -0.3102  0.3914  0.8702
 8248TIP3    H146235   6.642   0.214  17.165  1.4230  3.9380  1.7198
 8248TIP3    H246236   6.770   0.155  17.219  0.3749  0.2831  0.4709
 8249TIP3   OH246237   0.501   2.047   5.075 -0.6752 -0.0165 -0.2810
 8249TIP3    H146238   0.429   2.053   5.138 -0.7162  0.8450 -0.3864
 8249TIP3    H246239   0.474   2.103   5.002  0.0713  0.2888 -0.3380
 8250TIP3   OH246240   1.462   3.099   4.270  0.0304 -0.1293 -0.1246
 8250TIP3    H146241   1.526   3.108   4.340 -0.3294  1.3112  0.0576
 8250TIP3    H246242   1.458   3.186   4.230 -0.1484 -0.7825 -1.6064
 8251TIP3   OH246243   1.750   1.936   4.327  0.3450  0.1459 -0.0350
 8251TIP3    H146244   1.719   1.989   4.254  0.2945 -0.3941 -0.4091
 8251TIP3    H246245   1.845   1.950   4.328  0.6794 -1.6895 -1.7167
 8252TIP3   OH246246   4.893   6.485  17.014 -0.2157 -0.1758 -0.3187
 8252TIP3    H146247   4.838   6.424  17.064 -1.3533 -0.3573 -1.7395
 8252TIP3    H246248   4.976   6.439  17.004 -0.8046 -1.1889 -0.7096
 8253TIP3   OH246249   2.402   3.324   4.887 -0.1786  0.8111 -0.0698
 8253TIP3    H146250   2.437   3.238   4.908 -2.7837 -0.2101  0.4238
 8253TIP3    H246251   2.451   3.351   4.809  0.7327 -1.0730 -0.2108
 8254TIP3   OH246252   4.458   5.436   1.831 -0.6635  0.4201  0.2952
 8254TIP3    H146253   4.524   5.411   1.768 -2.5011  0.7830 -1.9007
 8254TIP3    H246254   4.497   5.416   1.916  1.4267 -1.2793 -0.9681
 8255TIP3   OH246255   0.626   3.369  16.092  0.2209 -0.1088 -0.4249
 8255TIP3    H146256   0.705   3.316  16.099  0.9192  0.9741  0.2114
 8255TIP3    H246257   0.642   3.443  16.150 -1.5425 -0.2054  0.2292
 8256TIP3   OH246258   2.065   1.829   5.939  0.0257  0.2566 -0.3741
 8256TIP3    H146259   2.100   1.885   5.871 -0.0055 -1.4626 -1.8958
 8256TIP3    H246260   2.110   1.745   5.927  0.3923  0.0221  2.0666
 8257TIP3   OH246261   5.458   0.091  10.919  0.0800 -0.0139 -0.1454
 8257TIP3    H146262   5.474   0.184  10.933 -2.6140  0.2841  1.6544
 8257TIP3    H246263   5.406   0.087  10.838 -2.0094  0.3753  1.1184
 8258TIP3   OH246264   1.937   2.664  12.139  0.0396  0.4339  1.1456
 8258TIP3    H146265   1.889   2.648  12.220 -2.2560  1.0321 -0.0378
 8258TIP3    H246266   1.926   2.758  12.122  1.8639  0.6569  0.9345
 8259TIP3   OH246267   2.386   3.678   3.253  0.1243 -0.1367  0.2702
 8259TIP3    H146268   2.404   3.659   3.346  2.3795 -1.1041 -0.2909
 8259TIP3    H246269   2.472   3.674   3.211 -1.0460 -1.4606 -2.1781
 8260TIP3   OH246270   2.863   0.522  12.400  0.5253  0.0655 -0.2185
 8260TIP3    H146271   2.877   0.550  12.490 -1.9190  1.4811 -0.1776
 8260TIP3    H246272   2.915   0.584  12.348 -0.4855  1.2636  0.1356
 8261TIP3   OH246273   2.212   2.657   4.427  0.0221 -0.8733 -0.4544
 8261TIP3    H146274   2.305   2.673   4.407 -0.3555 -0.0157 -1.6762
 8261TIP3    H246275   2.166   2.730   4.385 -1.2772 -1.7317 -0.5807
 8262TIP3   OH246276   3.989   0.284   4.984 -0.2409 -0.1188  0.0907
 8262TIP3    H146277   4.004   0.242   4.900 -0.6997 -0.4940  0.1899
 8262TIP3    H246278   3.961   0.212   5.042 -0.9694  0.3064  0.2789
 8263TIP3   OH246279   2.422   5.433   1.958 -0.7381  0.0609 -0.2513
 8263TIP3    H146280   2.502   5.382   1.946 -0.3685  0.3845  0.7678
 8263TIP3    H246281   2.352   5.369   1.949 -0.4269 -0.0776 -2.0119
 8264TIP3   OH246282   5.790   6.689   5.964 -0.2559 -0.1476 -0.0099
 8264TIP3    H146283   5.850   6.760   5.940 -0.7443  0.9123  1.6892
 8264TIP3    H246284   5.706   6.732   5.978 -1.2802 -1.5131 -1.6321
 8265TIP3   OH246285   3.836   6.611   0.277 -0.3186 -0.1257  0.3973
 8265TIP3    H146286   3.865   6.566   0.197 -0.6893  0.0264  0.1703
 8265TIP3    H246287   3.912   6.662   0.305  0.0799 -0.8265  0.6112
 8266TIP3   OH246288   3.476   5.685   3.455 -0.2203 -0.3584  0.2734
 8266TIP3    H146289   3.424   5.611   3.486 -0.4853 -0.3863 -0.2289
 8266TIP3    H246290   3.530   5.710   3.531 -0.6384 -0.6139  0.6620
 8267TIP3   OH246291   0.994   2.045  13.149  0.2101 -0.6381  0.3405
 8267TIP3    H146292   1.017   2.124  13.101  2.2861 -1.3915 -0.0046
 8267TIP3    H246293   0.898   2.044  13.149  0.1420  0.6126 -1.7076
 8268TIP3   OH246294   3.056   2.252   5.762 -0.1943  0.0395  0.5962
 8268TIP3    H146295   3.041   2.196   5.686  1.2295 -0.8716  0.9406
 8268TIP3    H246296   2.976   2.304   5.771  0.0456  1.0403 -2.2265
 8269TIP3   OH246297   6.197   3.337  15.034 -0.2195 -0.4919  0.5225
 8269TIP3    H146298   6.254   3.388  15.092  0.9933 -0.3561 -0.7333
 8269TIP3    H246299   6.191   3.251  15.075 -0.3397 -0.0640  1.4356
 8270TIP3   OH246300   3.272   2.637   5.668 -0.5132 -0.5248  0.0910
 8270TIP3    H146301   3.353   2.600   5.705  0.9387  3.0102  0.9177
 8270TIP3    H246302   3.203   2.609   5.728  0.8881  0.0896  2.0944
 8271TIP3   OH246303   3.531   1.569   2.060 -0.2385  0.0024 -0.2909
 8271TIP3    H146304   3.601   1.507   2.043 -0.6339 -0.3188 -0.7600
 8271TIP3    H246305   3.454   1.515   2.076 -0.6985  0.3774 -1.2020
 8272TIP3   OH246306   3.510   1.466   3.063  0.6869 -0.0545  0.3471
 8272TIP3    H146307   3.548   1.494   3.147  0.4668  0.9006  0.1358
 8272TIP3    H246308   3.423   1.435   3.086  0.7920 -0.2132  0.5347
 8273TIP3   OH246309   0.063   4.248  16.977 -0.0438  0.1314 -0.1602
 8273TIP3    H146310  -0.018   4.240  16.929 -0.0730  0.5325 -0.1851
 8273TIP3    H246311   0.064   4.174  17.037  0.8895 -1.4771 -2.0622
 8274TIP3   OH246312   2.391   4.515   6.382 -0.0552 -0.8630  0.2344
 8274TIP3    H146313   2.430   4.597   6.413  0.3947 -0.5385 -1.1508
 8274TIP3    H246314   2.317   4.501   6.441  1.3975 -0.8565  2.1553
 8275TIP3   OH246315   6.277   5.889  10.715 -0.1614  0.3821 -0.1013
 8275TIP3    H146316   6.230   5.940  10.648 -0.6474 -1.3048 -1.1096
 8275TIP3    H246317   6.322   5.955  10.768  0.1656  1.8119 -2.0348
 8276TIP3   OH246318   1.448   2.958  14.090  0.0934  0.1218 -1.0245
 8276TIP3    H146319   1.535   2.932  14.061  1.4088  0.5806  2.1203
 8276TIP3    H246320   1.462   3.003  14.173 -2.9225  2.7198 -1.7116
 8277TIP3   OH246321   0.319   5.097  11.349 -0.1092 -0.9662  0.4462
 8277TIP3    H146322   0.235   5.132  11.320  0.0302 -1.1645 -0.2069
 8277TIP3    H246323   0.369   5.083  11.269 -0.0057 -2.2550  0.7078
 8278TIP3   OH246324   1.253   1.038  11.509  0.0283 -0.4098  0.3764
 8278TIP3    H146325   1.171   1.075  11.542  0.0845 -0.3511  0.4478
 8278TIP3    H246326   1.229   0.949  11.482 -0.3326 -0.0087 -0.6980
 8279TIP3   OH246327   2.838   2.489  15.826 -0.0300 -0.5300 -0.0392
 8279TIP3    H146328   2.909   2.431  15.852  1.8443  1.8759  0.4988
 8279TIP3    H246329   2.827   2.474  15.732  2.3540  0.2069 -0.4798
 8280TIP3   OH246330   5.281   1.369  11.242  0.4775  0.4691  0.5207
 8280TIP3    H146331   5.283   1.282  11.280  0.1942 -0.1252 -0.7478
 8280TIP3    H246332   5.354   1.370  11.180  0.0834  0.8967  0.0521
 8281TIP3   OH246333   2.357   1.615  12.121 -0.1275 -0.7893  0.1604
 8281TIP3    H146334   2.405   1.655  12.195  0.6952 -0.4628 -0.5301
 8281TIP3    H246335   2.350   1.523  12.145  0.4776 -0.7610  0.4791
 8282TIP3   OH246336   1.424   6.570  16.206  0.1870 -0.1142 -0.6448
 8282TIP3    H146337   1.375   6.494  16.238  0.5260 -0.5307 -1.0994
 8282TIP3    H246338   1.493   6.582  16.270  0.5633 -0.6360 -0.9465
 8283TIP3   OH246339   3.544   4.284  12.391 -0.2328  0.5241 -0.2129
 8283TIP3    H146340   3.506   4.198  12.407 -0.3777  0.4766 -0.7981
 8283TIP3    H246341   3.584   4.308  12.474 -0.8191  0.2093  0.1731
 8284TIP3   OH246342   1.941   5.023   1.539 -0.6206  0.1468 -0.1875
 8284TIP3    H146343   1.927   5.113   1.510 -1.1271 -0.0944 -0.7077
 8284TIP3    H246344   1.853   4.985   1.542 -0.3861 -0.4010 -0.2032
 8285TIP3   OH246345   0.199   0.323   1.155 -0.5639  0.4344  0.1447
 8285TIP3    H146346   0.124   0.264   1.152 -1.7398  1.8069  1.1401
 8285TIP3    H246347   0.173   0.391   1.217  1.6057  0.8376  0.6781
 8286TIP3   OH246348   0.211   0.699   1.377  0.3409  0.5873 -0.5337
 8286TIP3    H146349   0.295   0.744   1.366  1.0745  0.2653  2.9180
 8286TIP3    H246350   0.218   0.654   1.461 -2.1447 -2.1256 -1.6074
 8287TIP3   OH246351   3.224   1.085   2.264 -0.7409 -0.0956 -0.7004
 8287TIP3    H146352   3.265   1.164   2.301  3.1571 -1.6497 -1.2377
 8287TIP3    H246353   3.191   1.038   2.340  2.9947 -1.0227  0.5640
 8288TIP3   OH246354   2.415   4.356  13.429  0.3333 -0.1383 -0.3859
 8288TIP3    H146355   2.347   4.348  13.362 -0.3953  1.7653  0.0612
 8288TIP3    H246356   2.366   4.367  13.511  1.2011 -0.4577  0.1847
 8289TIP3   OH246357   0.530   2.105  15.728  0.1492 -0.0986 -0.1489
 8289TIP3    H146358   0.529   2.131  15.820  3.2639 -0.5513  0.1419
 8289TIP3    H246359   0.525   2.009  15.730  1.2501 -0.1757 -0.3353
 8290TIP3   OH246360   1.103   6.393   2.354 -0.3501 -0.3274  0.4600
 8290TIP3    H146361   1.015   6.404   2.317  0.1805 -2.4989 -1.7188
 8290TIP3    H246362   1.090   6.341   2.433 -1.0775 -0.1751  0.4491
 8291TIP3   OH246363   2.412   5.338   4.401 -0.0230  0.4128  0.4688
 8291TIP3    H146364   2.363   5.289   4.467  0.6668  1.4751  1.8183
 8291TIP3    H246365   2.356   5.413   4.381  1.0719  1.7908  2.2316
 8292TIP3   OH246366   0.121   0.588  13.937  0.0547 -0.0994 -0.5083
 8292TIP3    H146367   0.038   0.629  13.912 -0.8821 -0.7347  1.3097
 8292TIP3    H246368   0.094   0.508  13.983  1.5799  0.5948  1.7312
 8293TIP3   OH246369   3.148   0.616   6.233 -0.3319  0.3585 -0.8678
 8293TIP3    H146370   3.133   0.567   6.314  0.4032  0.8884 -0.4030
 8293TIP3    H246371   3.066   0.607   6.184 -0.6341 -0.3212 -0.2585
 8294TIP3   OH246372   6.305   4.664  11.765 -0.1898 -0.3023 -0.0535
 8294TIP3    H146373   6.386   4.649  11.814 -0.7347 -3.1128  0.1170
 8294TIP3    H246374   6.333   4.713  11.688  1.5893 -0.6991  0.2910
 8295TIP3   OH246375   5.783   4.486  14.470 -0.0771  0.0418 -0.7084
 8295TIP3    H146376   5.792   4.428  14.394  0.2543 -0.4351 -0.3079
 8295TIP3    H246377   5.689   4.487  14.488  0.0213 -1.2665 -0.0329
 8296TIP3   OH246378   4.286   3.148  14.129 -0.6691  0.0819 -0.1282
 8296TIP3    H146379   4.282   3.092  14.052  0.0145  0.3571 -0.3736
 8296TIP3    H246380   4.323   3.092  14.197 -0.7389  0.0053 -0.1527
 8297TIP3   OH246381   4.243   4.116   3.588  0.4546  0.8920  0.2037
 8297TIP3    H146382   4.197   4.057   3.647  3.1162  0.7749  2.3547
 8297TIP3    H246383   4.195   4.198   3.593 -2.7129 -0.6096 -2.0713
 8298TIP3   OH246384   5.524   2.260   4.022  0.7190 -0.2336  0.3302
 8298TIP3    H146385   5.491   2.185   4.072  1.2919 -0.5538  0.2252
 8298TIP3    H246386   5.462   2.330   4.043 -1.9758 -1.5905 -2.3076
 8299TIP3   OH246387   1.837   3.685  11.924 -0.0863 -0.3846 -0.1531
 8299TIP3    H146388   1.767   3.619  11.924 -1.1626  0.6641  1.6873
 8299TIP3    H246389   1.817   3.741  11.849 -0.9868 -0.3512  0.1037
 8300TIP3   OH246390   2.812   2.911  11.625  0.2572 -0.1812 -0.2675
 8300TIP3    H146391   2.863   2.892  11.547 -0.8926  0.2286 -1.1465
 8300TIP3    H246392   2.801   2.826  11.668  0.5238 -0.4764 -0.7806
 8301TIP3   OH246393   4.127   0.959  12.427  0.2953  0.1449  0.0232
 8301TIP3    H146394   4.081   0.896  12.371  2.3893 -0.3802 -1.1857
 8301TIP3    H246395   4.122   0.920  12.515 -1.1175 -0.1175 -0.1395
 8302TIP3   OH246396   6.563   2.963   4.805  0.2421  0.0569 -0.2588
 8302TIP3    H146397   6.483   3.002   4.769 -0.7083 -0.7165  0.9094
 8302TIP3    H246398   6.547   2.868   4.800  1.2284 -0.1112 -0.3190
 8303TIP3   OH246399   5.484   6.706   5.298 -0.4477 -0.3267  0.2421
 8303TIP3    H146400   5.489   6.788   5.250 -0.4641 -0.8838 -0.7395
 8303TIP3    H246401   5.404   6.714   5.351 -1.3855 -0.3414 -1.1042
 8304TIP3   OH246402   2.583   4.192  13.119  0.0418  0.6036 -0.2633
 8304TIP3    H146403   2.624   4.152  13.195 -0.2947  0.4385 -0.1671
 8304TIP3    H246404   2.608   4.136  13.045 -0.2175  0.3580 -0.1668
 8305TIP3   OH246405   1.539   3.146   1.859  0.2562 -0.1083 -0.4921
 8305TIP3    H146406   1.455   3.100   1.855 -0.9233  1.5605  2.0738
 8305TIP3    H246407   1.541   3.199   1.779 -0.4444 -1.2355 -1.2750
 8306TIP3   OH246408   2.942   2.175   0.843  0.6423 -0.3896  0.1380
 8306TIP3    H146409   2.945   2.267   0.819 -1.4783 -0.0345  1.0003
 8306TIP3    H246410   2.955   2.128   0.761  0.9277  0.6783 -0.4438
 8307TIP3   OH246411   5.296   1.056   0.405  0.0681  0.2056  0.0738
 8307TIP3    H146412   5.286   0.982   0.464  1.4367 -1.0394 -1.1805
 8307TIP3    H246413   5.225   1.116   0.429 -0.5415 -1.1059  1.6911
 8308TIP3   OH246414   3.177   4.141   0.714  0.4273 -0.5224  0.4438
 8308TIP3    H146415   3.127   4.158   0.635 -0.3744 -2.1550  0.5636
 8308TIP3    H246416   3.263   4.179   0.697 -0.2515  0.6352 -0.5215
 8309TIP3   OH246417   5.093   1.043  15.470  0.5889  0.1834 -0.2354
 8309TIP3    H146418   5.180   1.083  15.478  0.5827  0.1702 -0.1028
 8309TIP3    H246419   5.099   0.961  15.519 -0.3702  1.5644  2.4231
 8310TIP3   OH246420   5.798   3.409   3.759 -0.5704  0.2927 -0.6591
 8310TIP3    H146421   5.882   3.452   3.741 -0.5655  0.6680  0.1824
 8310TIP3    H246422   5.821   3.338   3.819 -1.2669  2.8295  2.9310
 8311TIP3   OH246423   3.524   6.801   2.236 -0.3898 -0.2999 -0.0977
 8311TIP3    H146424   3.544   6.729   2.296 -1.9807 -0.9813 -0.3466
 8311TIP3    H246425   3.574   6.782   2.157 -2.6258 -2.5042 -1.0888
 8312TIP3   OH246426   5.566   4.801  13.864 -0.2623 -0.0375  1.1308
 8312TIP3    H146427   5.635   4.759  13.915  0.3014 -0.7505 -0.1800
 8312TIP3    H246428   5.517   4.729  13.825 -1.1476  0.4849  1.2380
 8313TIP3   OH246429   3.445   2.171  14.168 -0.4185 -0.1529 -0.2176
 8313TIP3    H146430   3.497   2.154  14.089 -1.3341  0.2304 -0.9195
 8313TIP3    H246431   3.461   2.263  14.188  0.5119 -0.4788  0.5752
 8314TIP3   OH246432   6.031   3.756  14.746  0.1424 -0.2836  0.4109
 8314TIP3    H146433   6.019   3.792  14.834  0.0853 -1.8385  1.0669
 8314TIP3    H246434   6.076   3.825  14.698  0.4466  0.4812  1.7497
 8315TIP3   OH246435   2.942   2.912  15.528  0.3300 -0.0507  0.3996
 8315TIP3    H146436   2.856   2.905  15.570  0.9825 -0.9217  1.6202
 8315TIP3    H246437   2.939   2.847  15.458  0.1950 -0.5017  0.8164
 8316TIP3   OH246438   4.002   0.055   3.863  0.1299 -0.0150  0.3600
 8316TIP3    H146439   3.982   0.133   3.811  0.4201  0.9747  1.6791
 8316TIP3    H246440   3.920   0.007   3.867  0.0378  0.0175 -0.7707
 8317TIP3   OH246441   6.553   5.398   1.203  0.2641 -0.1482 -0.4751
 8317TIP3    H146442   6.583   5.387   1.113 -0.5038 -1.2805 -0.6186
 8317TIP3    H246443   6.523   5.489   1.207  0.0911 -0.1464 -1.4358
 8318TIP3   OH246444   1.154   2.834   6.520  0.2448  0.1366  0.4669
 8318TIP3    H146445   1.230   2.775   6.531  1.1016  1.1452  0.0878
 8318TIP3    H246446   1.193   2.921   6.512 -0.8970  0.5578 -0.8108
 8319TIP3   OH246447   6.255   3.050  13.734 -0.4999  0.8412  0.0328
 8319TIP3    H146448   6.310   3.004  13.670 -1.4604  1.0620 -0.9912
 8319TIP3    H246449   6.166   3.030  13.706 -1.1945 -2.7961  3.8641
 8320TIP3   OH246450   5.255   6.528   4.820 -0.2811 -0.2658  0.2109
 8320TIP3    H146451   5.253   6.540   4.915  0.6380 -1.0156  0.3367
 8320TIP3    H246452   5.233   6.614   4.785 -0.5275  0.0460  1.1009
 8321TIP3   OH246453   0.549   3.165   0.537  0.6241  0.2625  0.0159
 8321TIP3    H146454   0.568   3.236   0.597 -0.3515 -0.1687  0.8701
 8321TIP3    H246455   0.615   3.098   0.556 -0.4631 -0.4329  1.6085
 8322TIP3   OH246456   6.516   2.763   3.221 -0.4459 -0.8866  0.0151
 8322TIP3    H146457   6.462   2.698   3.178 -1.1583  0.7662 -1.7066
 8322TIP3    H246458   6.455   2.813   3.275  0.1393 -1.7259  1.5445
 8323TIP3   OH246459   4.545   6.763  13.513 -0.9635 -0.2503 -0.1408
 8323TIP3    H146460   4.583   6.688  13.559 -0.1872 -1.1435 -2.1046
 8323TIP3    H246461   4.454   6.767  13.544 -0.4552 -0.7413  1.4825
 8324TIP3   OH246462   6.098   2.460  17.021  0.0085 -0.0886 -0.2640
 8324TIP3    H146463   6.178   2.428  17.062 -0.3235  0.4780  0.8551
 8324TIP3    H246464   6.120   2.549  16.992  0.2678 -0.5169 -1.4160
 8325TIP3   OH246465   3.228   2.854  13.773 -0.5569 -0.5563  0.2059
 8325TIP3    H146466   3.310   2.845  13.821 -0.4554 -0.3516  0.0743
 8325TIP3    H246467   3.254   2.855  13.681 -0.5939  0.5391  0.1893
 8326TIP3   OH246468   5.877   1.323   2.949  0.2958  0.6538  0.4021
 8326TIP3    H146469   5.833   1.361   3.025 -0.4716  1.7610 -0.5863
 8326TIP3    H246470   5.966   1.358   2.953  0.1748  0.9364  0.6205
 8327TIP3   OH246471   5.430   5.647  17.069  0.5832  0.5228 -0.1371
 8327TIP3    H146472   5.419   5.611  17.157  0.3588 -0.1930 -0.4537
 8327TIP3    H246473   5.456   5.738  17.083  2.6953 -0.1445  0.7146
 8328TIP3   OH246474   3.348   4.401  11.477  0.0165  0.9958  0.3818
 8328TIP3    H146475   3.380   4.347  11.405 -0.5366 -0.6200  1.3006
 8328TIP3    H246476   3.383   4.488  11.459  2.6032 -0.0647 -0.1173
 8329TIP3   OH246477   3.647   0.294   4.387 -0.6247  0.0875 -0.1152
 8329TIP3    H146478   3.628   0.287   4.481 -0.9303 -1.2175 -0.2504
 8329TIP3    H246479   3.564   0.323   4.349 -0.9915 -0.9581 -0.1514
 8330TIP3   OH246480   2.293   2.300  13.074  0.4031  0.0445  0.6061
 8330TIP3    H146481   2.361   2.242  13.041 -1.0226 -1.0064 -0.6648
 8330TIP3    H246482   2.329   2.388  13.067  1.4940 -0.4661 -0.3342
 8331TIP3   OH246483   1.641   6.297  14.986  0.0288 -0.7422  0.1246
 8331TIP3    H146484   1.647   6.390  14.966 -0.4236  0.1017  3.3881
 8331TIP3    H246485   1.552   6.285  15.020  0.6514 -1.9602  1.4250
 8332TIP3   OH246486   0.564   5.337  12.881  0.1266 -0.6338  0.9720
 8332TIP3    H146487   0.587   5.283  12.806 -0.9710  0.1932  0.0002
 8332TIP3    H246488   0.643   5.339  12.935  1.5668  0.1887 -1.0412
 8333TIP3   OH246489   1.905   0.536  13.001 -0.1496  0.5060  0.1041
 8333TIP3    H146490   1.883   0.545  13.094 -0.3386 -0.5199  0.1628
 8333TIP3    H246491   1.828   0.568  12.955  0.3930  2.1684  0.2707
 8334TIP3   OH246492   4.549   5.365  15.847 -0.1298 -0.1113 -0.1235
 8334TIP3    H146493   4.512   5.449  15.820  1.9182  0.5566 -1.0635
 8334TIP3    H246494   4.603   5.387  15.924 -2.8196 -1.3350  2.2902
 8335TIP3   OH246495   5.877   5.186   1.301 -0.3205  0.1723 -0.0902
 8335TIP3    H146496   5.923   5.213   1.222  1.2986 -1.5844  0.1597
 8335TIP3    H246497   5.874   5.090   1.295 -0.4231  0.0147  1.8085
 8336TIP3   OH246498   1.143   5.388   5.250 -0.6936 -0.0530  0.1419
 8336TIP3    H146499   1.209   5.433   5.198 -0.0350 -0.1446  0.8871
 8336TIP3    H246500   1.114   5.316   5.194 -1.2304  0.8424 -0.7680
 8337TIP3   OH246501   2.268   2.631  11.452  0.3521  0.2069  0.2855
 8337TIP3    H146502   2.177   2.654  11.468  0.3194  1.9780 -1.9445
 8337TIP3    H246503   2.309   2.713  11.424  1.3551 -1.4109 -3.7308
 8338TIP3   OH246504   0.787   3.840  10.445 -0.3564 -0.3590 -0.0692
 8338TIP3    H146505   0.755   3.893  10.372  2.6271  0.5318 -0.8435
 8338TIP3    H246506   0.838   3.901  10.498 -0.8952 -1.4296  1.7822
 8339TIP3   OH246507   0.761   6.610   3.273 -0.4855 -0.2598 -0.5891
 8339TIP3    H146508   0.820   6.540   3.301 -0.3600 -0.3476 -1.0754
 8339TIP3    H246509   0.811   6.690   3.288 -0.6597 -0.2598  0.0449
 8340TIP3   OH246510   5.755   3.033  16.385 -0.0006  0.3504  0.7050
 8340TIP3    H146511   5.694   3.093  16.343 -0.5991 -0.9034 -0.3115
 8340TIP3    H246512   5.814   3.006  16.314 -0.4605 -1.1225  0.8447
 8341TIP3   OH246513   3.802   4.785   1.091  0.0373  0.2916  0.0262
 8341TIP3    H146514   3.817   4.808   0.999 -0.5670 -0.2619 -0.2251
 8341TIP3    H246515   3.722   4.832   1.114 -0.3973 -0.3811 -0.0600
 8342TIP3   OH246516   0.061   0.478  17.058  0.4369  0.4547  0.5621
 8342TIP3    H146517  -0.031   0.452  17.049 -0.1969  2.5772  0.3349
 8342TIP3    H246518   0.108   0.395  17.068 -0.9278 -1.0659 -3.5971
 8343TIP3   OH246519   0.311   1.356   0.896  0.0417  0.3129  0.1090
 8343TIP3    H146520   0.310   1.449   0.920  0.2640  0.4833 -0.5201
 8343TIP3    H246521   0.360   1.353   0.814 -0.4749 -0.2888 -0.1849
 8344TIP3   OH246522   5.857   0.601  13.130 -0.1517 -0.0647  0.8175
 8344TIP3    H146523   5.841   0.514  13.094  4.3672 -1.2539  1.0451
 8344TIP3    H246524   5.914   0.644  13.066  2.3969  0.4095  3.2135
 8345TIP3   OH246525   0.991   4.513   5.436  0.0946  0.6740  0.1026
 8345TIP3    H146526   0.966   4.603   5.416 -3.3836 -0.3143 -0.7078
 8345TIP3    H246527   0.989   4.508   5.531 -2.5428  0.8952  0.1385
 8346TIP3   OH246528   4.766   2.556  16.753  0.6545 -0.4245  0.2206
 8346TIP3    H146529   4.814   2.629  16.713 -3.3499  1.9050 -0.8722
 8346TIP3    H246530   4.750   2.495  16.681  0.1317 -0.1376  0.0954
 8347TIP3   OH246531   3.804   5.672  14.053 -0.2921  0.1709 -0.0196
 8347TIP3    H146532   3.731   5.733  14.042 -1.1540 -0.7035  0.6797
 8347TIP3    H246533   3.796   5.610  13.980  0.3967  0.6897 -0.5498
 8348TIP3   OH246534   2.881   5.476   1.891  0.2151  0.1077 -0.1000
 8348TIP3    H146535   2.843   5.520   1.815 -0.4805 -2.0705 -1.1032
 8348TIP3    H246536   2.935   5.407   1.854 -1.2122 -1.8986  1.3321
 8349TIP3   OH246537   3.961   5.186   5.392  0.5609  0.0080 -0.2393
 8349TIP3    H146538   4.035   5.221   5.442 -0.6400 -0.7842  2.2624
 8349TIP3    H246539   3.964   5.092   5.407  0.3850 -0.3195 -2.0766
 8350TIP3   OH246540   4.664   0.753   2.074 -0.0328  0.3167  0.4644
 8350TIP3    H146541   4.586   0.722   2.121 -1.0282  0.0340 -1.2604
 8350TIP3    H246542   4.632   0.826   2.022  0.7905  0.0430 -0.4599
 8351TIP3   OH246543   0.157   3.870   2.910  0.6399 -0.6459 -0.1984
 8351TIP3    H146544   0.086   3.921   2.948  1.7406  1.0616 -0.3495
 8351TIP3    H246545   0.173   3.800   2.975 -1.8252 -1.7275 -0.6663
 8352TIP3   OH246546   3.515   5.728  12.992 -0.1203 -0.2497  0.4466
 8352TIP3    H146547   3.447   5.673  13.030 -1.5879  1.9556  1.1850
 8352TIP3    H246548   3.533   5.793  13.059  0.5059  1.0374 -0.9256
 8353TIP3   OH246549   4.700   6.707   5.080 -0.2025  0.5299 -0.5573
 8353TIP3    H146550   4.609   6.690   5.057  0.2137 -2.7326 -0.2407
 8353TIP3    H246551   4.699   6.719   5.175  0.0328 -3.8499  0.1815
 8354TIP3   OH246552   3.286   4.188   3.566  0.4286  0.2313  0.2873
 8354TIP3    H146553   3.370   4.144   3.583  1.0297  1.9415  2.2121
 8354TIP3    H246554   3.238   4.179   3.648 -1.6972 -1.4335 -1.0477
 8355TIP3   OH246555   1.797   5.562   3.527  0.2900  0.2640 -0.3909
 8355TIP3    H146556   1.726   5.596   3.472 -0.5647 -1.2432 -0.2757
 8355TIP3    H246557   1.754   5.500   3.585  1.4410  0.6561  0.9337
 8356TIP3   OH246558   5.092   6.628  11.590 -0.2123  0.0053  0.1208
 8356TIP3    H146559   5.103   6.692  11.519 -1.0652 -0.7371 -0.7026
 8356TIP3    H246560   5.084   6.544  11.546 -2.6163 -0.2722  0.9390
 8357TIP3   OH246561   0.695   2.234  15.560 -0.6918 -0.6851 -0.2434
 8357TIP3    H146562   0.779   2.188  15.569 -1.6785 -2.6224 -0.2810
 8357TIP3    H246563   0.633   2.178  15.607 -2.4344 -0.6865 -2.4215
 8358TIP3   OH246564   0.455   1.300  12.957 -0.3961 -0.4087 -0.9981
 8358TIP3    H146565   0.469   1.394  12.965 -1.7327 -0.2858  0.2813
 8358TIP3    H246566   0.538   1.266  12.923  1.4048  0.7929  1.8664
 8359TIP3   OH246567   4.386   5.855   3.586 -1.0634 -0.0651  0.5330
 8359TIP3    H146568   4.435   5.854   3.504 -2.0386  0.2946 -0.0807
 8359TIP3    H246569   4.366   5.763   3.603 -0.4167 -0.1857  0.6415
 8360TIP3   OH246570   4.858   1.337  12.577 -0.5879  0.6396 -0.1199
 8360TIP3    H146571   4.858   1.364  12.669 -0.8648  0.9021 -0.1958
 8360TIP3    H246572   4.903   1.409  12.531  1.1960 -0.3095  0.0364
 8361TIP3   OH246573   2.954   4.028   3.327  0.9110 -0.2086  0.2777
 8361TIP3    H146574   2.861   4.012   3.339  0.8911  1.0497  2.3334
 8361TIP3    H246575   2.985   3.955   3.273 -0.9545 -1.5303  0.9151
 8362TIP3   OH246576   4.273   1.893   5.802  0.2243  0.5665 -0.1188
 8362TIP3    H146577   4.276   1.987   5.821 -1.6929  0.2601  2.1177
 8362TIP3    H246578   4.253   1.852   5.886 -2.4197 -1.5143 -1.6072
 8363TIP3   OH246579   0.127   1.180  16.811 -0.2890 -0.0191  0.0397
 8363TIP3    H146580   0.069   1.223  16.748 -0.4911 -1.7843 -1.0544
 8363TIP3    H246581   0.075   1.108  16.847  0.6884 -0.6506  0.2424
 8364TIP3   OH246582   0.075   3.464  14.581  0.2956 -0.0328  0.7313
 8364TIP3    H146583   0.029   3.435  14.659  1.7006  0.0739  1.6323
 8364TIP3    H246584   0.058   3.558  14.576 -0.6211 -0.2110  0.3159
 8365TIP3   OH246585   6.214   4.099   3.193  0.3668  0.2644  0.0419
 8365TIP3    H146586   6.240   4.011   3.220 -0.5183  0.0721  0.3282
 8365TIP3    H246587   6.119   4.092   3.179  0.2682  1.1982  0.1873
 8366TIP3   OH246588   4.425   3.937  11.796 -0.2466 -0.5406  0.4486
 8366TIP3    H146589   4.447   4.004  11.731  1.2741 -0.8133  0.6570
 8366TIP3    H246590   4.407   3.987  11.876  0.6824 -0.3630  0.5509
 8367TIP3   OH246591   1.805   0.481  13.254 -0.3211 -0.0527  0.2901
 8367TIP3    H146592   1.867   0.408  13.262  0.9800  0.7664 -1.5858
 8367TIP3    H246593   1.719   0.441  13.264  0.4224 -1.5341  1.1269
 8368TIP3   OH246594   5.818   0.302  12.891  0.2070 -0.0531 -0.0945
 8368TIP3    H146595   5.727   0.284  12.912 -0.4161  1.5701 -1.2385
 8368TIP3    H246596   5.817   0.334  12.801  1.3003  4.0411  1.1331
 8369TIP3   OH246597   4.835   1.669  13.828  0.0633  0.0582 -0.4984
 8369TIP3    H146598   4.854   1.582  13.864  1.4300  0.0322 -1.2172
 8369TIP3    H246599   4.842   1.728  13.904 -2.0991 -0.5739  0.2388
 8370TIP3   OH246600   5.434   5.786   2.542 -0.2525  0.0329  0.2105
 8370TIP3    H146601   5.447   5.875   2.510 -0.9006 -0.4854 -1.6380
 8370TIP3    H246602   5.340   5.772   2.534 -0.3294 -0.4229  1.6589
 8371TIP3   OH246603   1.155   2.088   0.384  0.1575  0.2494  0.4452
 8371TIP3    H146604   1.224   2.030   0.353  0.8571  0.2250  1.9818
 8371TIP3    H246605   1.161   2.085   0.479 -1.1352  1.2440  0.5916
 8372TIP3   OH246606   6.324   6.601  14.122  0.5521 -0.3349 -0.1576
 8372TIP3    H146607   6.264   6.556  14.063  0.1929  1.1132 -0.9262
 8372TIP3    H246608   6.408   6.558  14.107  0.0159 -1.4453 -0.0949
 8373TIP3   OH246609   1.574   3.838   0.663  0.2361  0.1087 -0.4170
 8373TIP3    H146610   1.650   3.891   0.685  0.3956 -0.4644  0.4467
 8373TIP3    H246611   1.548   3.797   0.745  1.9206 -3.5161 -1.5139
 8374TIP3   OH246612   0.165   4.172  16.154 -0.4192  0.1534  0.5417
 8374TIP3    H146613   0.240   4.186  16.097  1.2198 -1.0937  2.2216
 8374TIP3    H246614   0.157   4.253  16.204 -2.2212  1.4666 -1.7183
 8375TIP3   OH246615   4.831   6.062   3.932 -0.0658  0.4758  0.2067
 8375TIP3    H146616   4.745   6.031   3.902 -0.1863  0.0228  0.9853
 8375TIP3    H246617   4.818   6.156   3.947  0.1718  0.8480 -1.7118
 8376TIP3   OH246618   0.850   2.382  13.144 -0.4627  0.4230 -0.1708
 8376TIP3    H146619   0.784   2.376  13.075 -0.5597 -0.8505  0.0036
 8376TIP3    H246620   0.802   2.364  13.225 -0.2431  1.3568  0.1894
 8377TIP3   OH246621   3.630   6.393  12.632 -0.6167 -0.3143 -0.4236
 8377TIP3    H146622   3.696   6.425  12.572 -0.9214 -0.3520 -0.7810
 8377TIP3    H246623   3.634   6.298  12.626 -0.2889 -0.3335  0.0115
 8378TIP3   OH246624   1.433   5.464   1.792  0.1724  0.1852 -0.1051
 8378TIP3    H146625   1.405   5.530   1.728 -2.0741  1.4033  1.9293
 8378TIP3    H246626   1.429   5.510   1.876  1.2683 -1.8223  1.1281
 8379TIP3   OH246627   1.564   6.344   3.456  0.2758  0.1983  0.3789
 8379TIP3    H146628   1.485   6.299   3.427  0.3234  0.9310 -0.9561
 8379TIP3    H246629   1.607   6.282   3.515  1.5006 -2.5549 -3.0434
 8380TIP3   OH246630   1.286   3.712  16.379 -0.0333 -0.1535  1.1574
 8380TIP3    H146631   1.310   3.776  16.446 -0.2291  0.1972  0.8964
 8380TIP3    H246632   1.214   3.663  16.419 -1.5850  1.4158  0.4590
 8381TIP3   OH246633   3.263   3.596   3.890 -0.2095 -0.5958 -0.1814
 8381TIP3    H146634   3.299   3.612   3.803 -1.3061  0.9063 -0.3928
 8381TIP3    H246635   3.303   3.663   3.945 -2.4643  1.0058 -0.3878
 8382TIP3   OH246636   4.345   6.289  17.166  0.3013  0.3752 -0.0593
 8382TIP3    H146637   4.266   6.340  17.145  0.2030 -0.3139 -1.4535
 8382TIP3    H246638   4.313   6.200  17.179  0.9411 -0.0855 -1.5237
 8383TIP3   OH246639   4.246   3.084  13.574  0.3336 -0.2560  0.1087
 8383TIP3    H146640   4.239   3.152  13.508 -1.1906 -1.3135 -0.9053
 8383TIP3    H246641   4.190   3.114  13.646 -1.7872 -1.1660 -1.0753
 8384TIP3   OH246642   6.172   1.271  16.213 -0.4966 -0.1897  0.2655
 8384TIP3    H146643   6.115   1.199  16.184  0.6013 -0.6299 -0.8963
 8384TIP3    H246644   6.256   1.252  16.173  0.2595  0.8961  1.2888
 8385TIP3   OH246645   1.821   5.706  10.240  0.2897 -0.4225 -0.0372
 8385TIP3    H146646   1.770   5.724  10.161 -0.1609 -1.3801  0.0220
 8385TIP3    H246647   1.815   5.611  10.251  0.6861 -0.3454  0.9241
 8386TIP3   OH246648   3.327   3.157  13.781  0.2910 -0.0125  0.0517
 8386TIP3    H146649   3.372   3.211  13.846 -1.0662  2.5610 -0.9641
 8386TIP3    H246650   3.277   3.094  13.832  0.8749  0.5755  1.4018
 8387TIP3   OH246651   6.190   2.923  15.953  0.2992  0.1933 -0.0351
 8387TIP3    H146652   6.106   2.962  15.931  0.9659  2.6264  1.2978
 8387TIP3    H246653   6.177   2.886  16.041  0.0315 -1.5808 -0.7754
 8388TIP3   OH246654   3.930   2.071   1.832  0.0163 -0.2906 -0.0928
 8388TIP3    H146655   3.865   2.066   1.902  1.1311  0.4268  1.0458
 8388TIP3    H246656   3.904   2.004   1.770 -1.1718 -0.7660  0.8759
 8389TIP3   OH246657   2.492   0.758   1.553  0.4531 -0.2440 -0.9550
 8389TIP3    H146658   2.577   0.770   1.510  0.1681 -0.8120 -1.7001
 8389TIP3    H246659   2.460   0.674   1.520  1.0126 -1.6195  1.7527
 8390TIP3   OH246660   3.888   5.826   5.331  0.1331 -0.3576 -0.2636
 8390TIP3    H146661   3.864   5.814   5.423  0.7134  0.6547  0.0321
 8390TIP3    H246662   3.806   5.818   5.283 -0.0254 -1.9625  0.2205
 8391TIP3   OH246663   4.414   0.055   2.201  0.5502 -0.1318 -0.3750
 8391TIP3    H146664   4.342  -0.005   2.177  1.4876 -1.7127  0.6009
 8391TIP3    H246665   4.461   0.069   2.119  0.8164 -1.4482 -0.4671
 8392TIP3   OH246666   1.995   0.720  14.187 -0.0725 -0.2731  0.0434
 8392TIP3    H146667   1.979   0.673  14.269 -1.4041  1.4406  0.8171
 8392TIP3    H246668   1.910   0.724  14.144  0.3100  0.2129 -0.6888
 8393TIP3   OH246669   2.661   1.199   5.642 -0.5509 -0.0319 -0.1750
 8393TIP3    H146670   2.707   1.281   5.660  0.7913 -0.2535 -2.1819
 8393TIP3    H246671   2.602   1.187   5.717 -0.3581  2.4310  0.4746
 8394TIP3   OH246672   4.356   3.060  16.732  0.3223  0.1437  0.2257
 8394TIP3    H146673   4.444   3.040  16.765  0.7215  0.2342 -0.7283
 8394TIP3    H246674   4.296   3.019  16.794  1.0584 -0.8964  0.2731
 8395TIP3   OH246675   0.574   3.304  12.876  0.6933  0.0068  0.0511
 8395TIP3    H146676   0.555   3.223  12.829 -1.8539  0.7620 -0.4022
 8395TIP3    H246677   0.539   3.289  12.964 -0.4115  0.8092 -0.2329
 8396TIP3   OH246678   6.256   0.070  12.015  0.1824  0.0460 -0.4691
 8396TIP3    H146679   6.271   0.055  11.922  0.1643 -0.8786 -0.3276
 8396TIP3    H246680   6.170   0.030  12.032 -0.1895  0.9217 -0.2211
 8397TIP3   OH246681   1.565   5.986   3.017 -0.1884 -0.0753 -1.0403
 8397TIP3    H146682   1.507   5.996   3.091 -0.4590 -1.3927 -1.0405
 8397TIP3    H246683   1.593   5.894   3.021  1.4048  0.3653 -1.3901
 8398TIP3   OH246684   3.635   4.932  16.247 -0.3689 -0.9843  0.1947
 8398TIP3    H146685   3.604   5.017  16.215 -1.1691 -0.4392  2.2558
 8398TIP3    H246686   3.569   4.904  16.310  1.0326 -2.0132  1.2806
 8399TIP3   OH246687   5.293   5.779   0.255 -0.0608  0.8142 -0.4284
 8399TIP3    H146688   5.200   5.800   0.250 -0.0706  0.4903 -2.3107
 8399TIP3    H246689   5.297   5.704   0.315 -1.1528  0.1642 -1.1278
 8400TIP3   OH246690   5.406   3.998  12.145 -0.5409 -0.0619  0.0356
 8400TIP3    H146691   5.365   4.069  12.195  0.7471 -0.9369  2.4458
 8400TIP3    H246692   5.473   4.042  12.092 -0.5666  0.6477  0.5762
 8401TIP3   OH246693   6.270   2.771  13.229 -0.3115  0.5508  0.3561
 8401TIP3    H146694   6.193   2.732  13.270  0.9145  0.0624  2.3338
 8401TIP3    H246695   6.292   2.711  13.157 -0.8941 -0.1300  0.7330
 8402TIP3   OH246696   2.149   6.369  17.206  0.0507 -0.8854 -0.3706
 8402TIP3    H146697   2.134   6.285  17.249 -0.2652 -0.5917  0.1026
 8402TIP3    H246698   2.066   6.416  17.216  0.0712 -0.6965 -1.0432
 8403TIP3   OH246699   0.900   2.134  15.024 -0.3526 -0.3989  0.1347
 8403TIP3    H146700   0.875   2.043  15.040  0.5189 -0.5100  1.0017
 8403TIP3    H246701   0.819   2.177  14.997 -1.2939 -0.9232  1.9623
 8404TIP3   OH246702   2.995   0.281   0.845 -0.5257  0.0157  0.0771
 8404TIP3    H146703   3.035   0.227   0.912 -2.0665  0.9535  1.8686
 8404TIP3    H246704   3.045   0.363   0.847 -0.6925  0.1168  0.2643
 8405TIP3   OH246705   0.095   2.830   4.254 -0.6967 -0.7664 -0.3470
 8405TIP3    H146706   0.100   2.834   4.350 -0.7078  0.6863 -0.3764
 8405TIP3    H246707   0.136   2.747   4.231  1.1393 -0.2352  0.8161
 8406TIP3   OH246708   4.339   4.154  13.592  0.1354  0.4046 -0.0570
 8406TIP3    H146709   4.374   4.183  13.676 -1.7331  0.8465  0.6238
 8406TIP3    H246710   4.265   4.213  13.575  0.2268  0.0673 -1.8180
 8407TIP3   OH246711   5.384   1.727   0.047  0.3985  0.6038  0.2826
 8407TIP3    H146712   5.321   1.777  -0.005  1.1518  0.4714 -0.7862
 8407TIP3    H246713   5.333   1.695   0.121 -0.8822  0.2137 -0.7301
 8408TIP3   OH246714   1.781   4.696   4.142 -0.1599 -0.6545  0.1779
 8408TIP3    H146715   1.822   4.745   4.070  0.0899 -1.7110 -0.4165
 8408TIP3    H246716   1.843   4.703   4.214 -0.0776 -0.1923  0.0680
 8409TIP3   OH246717   5.088   0.997   4.516 -0.0406 -0.2855  0.3331
 8409TIP3    H146718   5.172   1.009   4.560  0.4454  1.4153 -0.9701
 8409TIP3    H246719   5.105   0.931   4.449  0.3374  0.2861 -0.1325
 8410TIP3   OH246720   5.584   1.087   2.832  0.3632 -0.1872 -0.6815
 8410TIP3    H146721   5.608   1.156   2.770  1.0362 -1.7059 -2.1999
 8410TIP3    H246722   5.605   1.005   2.786 -0.2614 -1.4118  1.1021
 8411TIP3   OH246723   2.417   5.593  14.955 -0.2207 -0.1753 -0.1253
 8411TIP3    H146724   2.506   5.568  14.930  0.2719 -1.1552  2.2717
 8411TIP3    H246725   2.408   5.684  14.926  1.7874  0.1382  0.0788
 8412TIP3   OH246726   2.892   1.057   2.190  0.5293  0.1300  0.1643
 8412TIP3    H146727   2.846   1.120   2.245 -0.1486  0.4362 -0.7270
 8412TIP3    H246728   2.874   0.972   2.229 -1.3547  0.1759 -0.5109
 8413TIP3   OH246729   6.442   5.387   1.790 -0.3876 -0.1770  0.2750
 8413TIP3    H146730   6.518   5.340   1.755 -0.4505 -1.8002  2.1344
 8413TIP3    H246731   6.382   5.394   1.716  1.0612  0.0775 -0.9228
 8414TIP3   OH246732   6.448   0.860   5.877 -0.8143  0.4928 -0.6793
 8414TIP3    H146733   6.447   0.932   5.815 -2.3903 -0.3368 -1.6699
 8414TIP3    H246734   6.425   0.782   5.825  1.3792 -0.8661  0.2257
 8415TIP3   OH246735   3.659   6.371  13.414 -0.0045  0.1956  0.0821
 8415TIP3    H146736   3.657   6.276  13.401  2.2220 -0.2349  2.0257
 8415TIP3    H246737   3.680   6.407  13.328 -0.9509 -1.0411 -0.6975
 8416TIP3   OH246738   0.729   3.704  14.186  0.5115 -0.7462  0.0968
 8416TIP3    H146739   0.737   3.778  14.246 -0.1387  1.2471 -2.1083
 8416TIP3    H246740   0.717   3.745  14.100  0.5266 -3.4465 -1.2776
 8417TIP3   OH246741   0.252   4.506  13.374  0.2328  0.2317  0.1547
 8417TIP3    H146742   0.269   4.427  13.426 -0.5245 -0.4345 -0.5745
 8417TIP3    H246743   0.170   4.487  13.329 -0.2086  1.6332  0.3213
 8418TIP3   OH246744   3.187   3.680  13.429  0.2348 -0.4942  0.2032
 8418TIP3    H146745   3.104   3.726  13.439  0.5949  0.9828 -2.5782
 8418TIP3    H246746   3.183   3.641  13.341  2.6329  0.0833 -0.2547
 8419TIP3   OH246747   5.964   5.000   4.095 -0.5924  0.8733  0.1880
 8419TIP3    H146748   5.971   4.950   4.176 -1.6803 -0.4583 -0.4925
 8419TIP3    H246749   6.034   5.065   4.101  0.7711 -0.6116  1.2171
 8420TIP3   OH246750   4.284   5.962  12.988  0.0345 -0.2425  0.6348
 8420TIP3    H146751   4.342   6.011  12.930 -0.0306 -0.0857  0.7028
 8420TIP3    H246752   4.341   5.897  13.029  0.1448 -0.1438  0.6389
 8421TIP3   OH246753   4.440   3.647   2.846  0.2907 -0.6997 -0.2332
 8421TIP3    H146754   4.393   3.606   2.774  1.3588 -1.9998 -0.2220
 8421TIP3    H246755   4.376   3.651   2.917 -0.9365  1.0379 -1.3185
 8422TIP3   OH246756   5.347   2.855   1.400 -0.5800 -0.0121 -0.1953
 8422TIP3    H146757   5.395   2.865   1.482  1.2924  0.4716 -1.2866
 8422TIP3    H246758   5.380   2.773   1.362 -0.5293  0.3816 -1.0261
 8423TIP3   OH246759   4.057   2.088  16.113 -0.1797  0.0271  0.4739
 8423TIP3    H146760   4.070   2.138  16.193  0.9909  0.4306  0.0654
 8423TIP3    H246761   3.987   2.134  16.067  1.8964  2.3318 -0.6185
 8424TIP3   OH246762   2.016   6.045  16.221 -0.4252 -0.0908  0.6902
 8424TIP3    H146763   2.031   6.003  16.306 -2.7410  0.0049  1.1943
 8424TIP3    H246764   1.936   6.004  16.187  1.6926 -1.9486 -2.6860
 8425TIP3   OH246765   1.891   1.602  16.254  0.5998  0.2903  0.7029
 8425TIP3    H146766   1.834   1.635  16.323 -1.8628 -2.7075  0.3469
 8425TIP3    H246767   1.868   1.654  16.177  0.1456  0.7441  1.1365
 8426TIP3   OH246768   2.905   1.637   0.113  0.7086 -0.7353  0.3231
 8426TIP3    H146769   2.988   1.683   0.122  1.1508 -1.5142  0.3605
 8426TIP3    H246770   2.839   1.706   0.110  1.3455 -0.1117  0.4138
 8427TIP3   OH246771   3.898   3.298  17.028  0.1463  0.2884 -0.4063
 8427TIP3    H146772   3.955   3.268  17.099 -0.5695 -0.2493 -0.0484
 8427TIP3    H246773   3.823   3.337  17.073  0.4400  1.4089 -0.8715
 8428TIP3   OH246774   6.743   0.047   2.248  0.0942 -0.3657 -0.1089
 8428TIP3    H146775   6.805  -0.004   2.301  0.3492 -0.2651 -0.3058
 8428TIP3    H246776   6.763   0.022   2.158 -0.8932 -1.1623 -0.1293
 8429TIP3   OH246777   1.429   2.151  13.093  0.1901  0.0331  0.2688
 8429TIP3    H146778   1.384   2.068  13.105 -0.2314  0.2327  0.0833
 8429TIP3    H246779   1.466   2.171  13.180  3.1525 -1.9459 -0.3594
 8430TIP3   OH246780   0.078   5.794  17.089  0.6053 -0.1892  0.3198
 8430TIP3    H146781   0.050   5.728  17.026 -0.9973 -0.6575  1.4518
 8430TIP3    H246782   0.156   5.757  17.130  0.2798 -0.9375  0.2676
 8431TIP3   OH246783   4.552   0.096   4.653  0.0153  0.2603 -0.4071
 8431TIP3    H146784   4.525   0.010   4.684 -0.2085  0.5414  0.1877
 8431TIP3    H246785   4.505   0.108   4.571 -1.2441  0.5082  0.3394
 8432TIP3   OH246786   1.137   4.919  14.231 -0.4328  0.0725 -0.3491
 8432TIP3    H146787   1.087   4.969  14.295 -2.1809 -1.0059 -0.8105
 8432TIP3    H246788   1.228   4.924  14.262 -0.3715  3.8701 -0.6248
 8433TIP3   OH246789   4.838   2.030  15.925 -1.0266 -0.6691 -0.4709
 8433TIP3    H146790   4.840   2.077  16.008 -2.9590 -0.9594 -0.2250
 8433TIP3    H246791   4.915   1.973  15.927 -0.5096  0.0370  0.6742
 8434TIP3   OH246792   6.667   2.259   4.535 -0.5174 -0.4949 -0.5179
 8434TIP3    H146793   6.592   2.272   4.477 -0.8086  0.7847  0.1173
 8434TIP3    H246794   6.634   2.200   4.603 -1.4867  1.3380  0.6674
 8435TIP3   OH246795   6.437   1.369  10.873 -0.7855  0.2496 -0.5416
 8435TIP3    H146796   6.357   1.318  10.889 -1.0683  0.3775 -1.5023
 8435TIP3    H246797   6.446   1.370  10.778  0.4703  0.0889 -0.4406
 8436TIP3   OH246798   4.746   5.722   4.728 -0.3529  0.4093  0.2580
 8436TIP3    H146799   4.832   5.726   4.770 -0.2041  1.5073 -0.1015
 8436TIP3    H246800   4.734   5.630   4.706  1.2579  0.3891 -0.7188
 8437TIP3   OH246801   0.799   6.089   1.282 -0.1273  0.2946  0.0259
 8437TIP3    H146802   0.821   6.036   1.206 -0.0038  0.4781 -0.0668
 8437TIP3    H246803   0.708   6.066   1.301 -0.2992  0.5579 -0.4409
 8438TIP3   OH246804   6.774   6.021   6.217  0.1442 -0.6693  0.4537
 8438TIP3    H146805   6.740   5.995   6.303 -0.7898  1.6998  0.8909
 8438TIP3    H246806   6.835   6.093   6.237 -1.0063  0.7450 -0.9027
 8439TIP3   OH246807   0.339   6.116  16.082  0.2064 -0.2443  0.3378
 8439TIP3    H146808   0.270   6.145  16.022  0.8004 -0.4402 -0.4530
 8439TIP3    H246809   0.334   6.021  16.081 -1.0421 -0.2546  2.1207
 8440TIP3   OH246810   5.247   1.771  16.405 -0.0159  0.4864  0.0368
 8440TIP3    H146811   5.197   1.769  16.324  2.3806 -0.3173 -1.5124
 8440TIP3    H246812   5.304   1.847  16.397  0.0188  0.5975  1.1293
 8441TIP3   OH246813   1.723   2.159  15.859 -0.1264  0.0335 -0.0877
 8441TIP3    H146814   1.721   2.081  15.804 -1.4061 -0.4540  0.6124
 8441TIP3    H246815   1.684   2.228  15.804  1.5172  0.3623 -0.9089
 8442TIP3   OH246816   4.275   5.277   3.545 -0.3840 -0.1482 -0.1019
 8442TIP3    H146817   4.347   5.329   3.510  0.5375 -1.0782  0.3544
 8442TIP3    H246818   4.278   5.293   3.640  0.0234 -1.1483  0.0644
 8443TIP3   OH246819   0.937   5.246  13.227  0.2262  0.3906  0.1662
 8443TIP3    H146820   0.844   5.225  13.223  0.0581  0.8017  1.4447
 8443TIP3    H246821   0.970   5.226  13.139 -1.6372  2.9026 -1.2527
 8444TIP3   OH246822   5.432   0.370   0.685  0.2827 -0.8256  0.2716
 8444TIP3    H146823   5.418   0.435   0.616 -0.3320 -0.2497  0.9176
 8444TIP3    H246824   5.385   0.293   0.656 -1.2398 -0.1010  0.7119
 8445TIP3   OH246825   4.079   5.206   4.325 -0.4411 -0.2551 -0.1234
 8445TIP3    H146826   4.000   5.254   4.300  0.6044  0.0837 -3.1673
 8445TIP3    H246827   4.144   5.274   4.344  0.0167 -0.4842 -0.8393
 8446TIP3   OH246828   3.642   4.139  13.986  0.2475  0.2133 -0.3307
 8446TIP3    H146829   3.723   4.180  14.018  0.7271 -1.2021  0.3733
 8446TIP3    H246830   3.670   4.053  13.955 -0.4768  0.8832 -3.1388
 8447TIP3   OH246831   6.615   0.130   0.636  0.3005  0.3703  0.0144
 8447TIP3    H146832   6.595   0.123   0.543 -1.5450 -0.7423  0.4374
 8447TIP3    H246833   6.552   0.194   0.670  1.6956  1.6227  0.3350
 8448TIP3   OH246834   3.094   4.803   4.147 -0.4455  0.0638  0.1417
 8448TIP3    H146835   3.002   4.780   4.156 -0.5007  0.2497  0.0566
 8448TIP3    H246836   3.106   4.877   4.207 -0.2408 -0.2584  0.5066
 8449TIP3   OH246837   3.804   5.444   4.817  0.1486  0.0044 -0.5888
 8449TIP3    H146838   3.739   5.462   4.885 -1.2478 -0.9881 -1.6033
 8449TIP3    H246839   3.853   5.369   4.850  0.4550  0.4402 -0.0401
 8450TIP3   OH246840   5.850   4.577   0.171 -1.0133  0.0615 -0.4300
 8450TIP3    H146841   5.821   4.644   0.110 -1.2515 -0.1183 -0.5190
 8450TIP3    H246842   5.813   4.603   0.255  0.1519  0.8488 -0.1493
 8451TIP3   OH246843   1.567   5.883  15.294  0.0597  0.0631  0.2850
 8451TIP3    H146844   1.592   5.968  15.329  1.2124  0.5384 -1.5648
 8451TIP3    H246845   1.615   5.819  15.346  0.1161  0.6168  0.9119
 8452TIP3   OH246846   5.826   1.665   1.255  0.1430  0.2624 -0.3451
 8452TIP3    H146847   5.762   1.718   1.303  0.4525  1.2675 -1.0085
 8452TIP3    H246848   5.910   1.685   1.297 -0.1301 -2.5306  1.8157
 8453TIP3   OH246849   3.279   0.643  12.191 -0.1915  0.5107  0.2493
 8453TIP3    H146850   3.373   0.653  12.210 -0.1711  0.4325  0.1899
 8453TIP3    H246851   3.272   0.654  12.096 -0.3791  1.5475  0.3680
 8454TIP3   OH246852   2.210   3.627   4.465  0.2294 -0.3085 -0.3573
 8454TIP3    H146853   2.252   3.660   4.544  1.3558  1.3553 -1.5941
 8454TIP3    H246854   2.266   3.657   4.393 -0.1412 -2.7019 -1.7566
 8455TIP3   OH246855   0.424   5.208   4.234  0.1541  0.7621  0.4853
 8455TIP3    H146856   0.445   5.132   4.180  3.0808  2.4637 -1.0835
 8455TIP3    H246857   0.467   5.190   4.318 -2.7261 -1.0173  1.7159
 8456TIP3   OH246858   0.452   5.396  11.010 -0.7014 -0.1360 -0.4110
 8456TIP3    H146859   0.520   5.463  11.004 -0.9287  0.0265 -1.2032
 8456TIP3    H246860   0.394   5.413  10.936 -1.5846 -0.3047  0.2282
 8457TIP3   OH246861   5.708   5.009   3.772  0.0205  0.0853  0.5999
 8457TIP3    H146862   5.619   5.027   3.743 -0.1516  0.6983  1.4812
 8457TIP3    H246863   5.760   5.082   3.737  0.4825 -1.0216 -1.1848
 8458TIP3   OH246864   3.434   0.727  16.513 -0.6058 -0.3935  0.1005
 8458TIP3    H146865   3.387   0.789  16.457 -1.4572 -0.2252  0.9816
 8458TIP3    H246866   3.399   0.641  16.487  1.3921 -0.6796 -1.9216
 8459TIP3   OH246867   3.934   6.374   2.537 -0.1226 -0.4063  0.1249
 8459TIP3    H146868   4.008   6.359   2.596 -0.5509 -0.1497  0.7368
 8459TIP3    H246869   3.861   6.395   2.595 -0.9696 -1.7539 -0.3902
 8460TIP3   OH246870   1.921   3.197  11.340 -0.1215  0.3197  0.0753
 8460TIP3    H146871   1.834   3.210  11.376 -0.0939  1.1139 -0.1076
 8460TIP3    H246872   1.906   3.161  11.252 -0.2045 -1.0512  0.6330
 8461TIP3   OH246873   4.319   5.591   2.946 -0.0349  0.0878  0.2462
 8461TIP3    H146874   4.266   5.522   2.987 -1.6798 -0.1577 -2.0910
 8461TIP3    H246875   4.360   5.636   3.020 -2.1215 -0.8360  2.1105
 8462TIP3   OH246876   3.102   5.870  13.965 -0.2357 -0.2340  0.5824
 8462TIP3    H146877   3.116   5.775  13.959  2.6676  0.1611 -0.6909
 8462TIP3    H246878   3.017   5.879  14.007 -0.0670 -3.3956  1.9089
 8463TIP3   OH246879   0.912   2.789  12.586  0.1313  0.0560  0.7917
 8463TIP3    H146880   0.878   2.877  12.601  0.5086 -0.0195  2.1834
 8463TIP3    H246881   1.005   2.796  12.604  0.1290 -0.6699  1.1150
 8464TIP3   OH246882   5.582   3.833  11.372 -0.2651 -0.3863 -0.0646
 8464TIP3    H146883   5.653   3.771  11.357 -0.0280 -0.0010 -0.5751
 8464TIP3    H246884   5.588   3.894  11.299 -0.6172  0.1280  0.3319
 8465TIP3   OH246885   4.135   1.989  11.889  0.1474  0.2331  0.1024
 8465TIP3    H146886   4.117   2.055  11.956 -0.8597  1.1964 -1.0508
 8465TIP3    H246887   4.226   2.003  11.864 -0.1069  1.3412 -0.2515
 8466TIP3   OH246888   4.706   4.508   3.836  0.0407 -0.2122  0.3839
 8466TIP3    H146889   4.768   4.557   3.783 -1.1153  0.4685 -0.3685
 8466TIP3    H246890   4.743   4.511   3.925  0.3983  1.3441  0.2017
 8467TIP3   OH246891   4.505   5.813  11.243  0.1871 -0.0495 -0.0309
 8467TIP3    H146892   4.444   5.740  11.233  0.9243 -0.9876  1.9474
 8467TIP3    H246893   4.448   5.889  11.259 -0.5217 -0.6138  0.1750
 8468TIP3   OH246894   3.484   2.406   3.681  0.0103  0.2329 -0.0653
 8468TIP3    H146895   3.473   2.489   3.635 -0.8360 -0.4807 -1.1906
 8468TIP3    H246896   3.556   2.362   3.636 -1.2166 -0.7336 -1.1737
 8469TIP3   OH246897   3.776   1.182   5.306  0.7216  0.0260 -0.0787
 8469TIP3    H146898   3.848   1.214   5.361  2.0399 -1.1633 -1.0471
 8469TIP3    H246899   3.761   1.093   5.337  2.5319 -1.2375 -2.5431
 8470TIP3   OH246900   0.472   5.283  11.713 -0.1694 -0.2766 -0.0066
 8470TIP3    H146901   0.518   5.201  11.691 -1.3778 -1.2377  0.8826
 8470TIP3    H246902   0.527   5.324  11.779  0.2473 -0.5762 -0.1589
 8471TIP3   OH246903   5.709   6.142   4.012 -0.2335 -0.2377  0.1973
 8471TIP3    H146904   5.720   6.082   3.938  0.1459 -0.4439  0.4163
 8471TIP3    H246905   5.768   6.215   3.992  0.2837 -0.5462  0.5485
 8472TIP3   OH246906   0.092   6.754  16.139  1.0826  0.4494  0.3482
 8472TIP3    H146907   0.011   6.751  16.190  0.4520  2.2820 -0.4751
 8472TIP3    H246908   0.161   6.771  16.204  0.3761  2.0744  0.7182
 8473TIP3   OH246909   3.203   3.842  12.368  0.5336 -0.5379  0.3267
 8473TIP3    H146910   3.125   3.878  12.326 -0.9891 -3.3638  0.5243
 8473TIP3    H246911   3.243   3.786  12.302  1.1223 -0.8885  0.9610
 8474TIP3   OH246912   1.594   5.913  14.999 -0.4030  0.5244  0.8322
 8474TIP3    H146913   1.675   5.962  14.983  0.1117 -0.6438 -0.2614
 8474TIP3    H246914   1.595   5.895  15.093  1.2124 -0.4729  0.6585
 8475TIP3   OH246915   6.159   6.102   1.866 -0.0281 -0.1076 -0.5453
 8475TIP3    H146916   6.150   6.062   1.780 -0.5445  0.1932 -0.6347
 8475TIP3    H246917   6.080   6.155   1.876  0.3305  0.3597 -0.1547
 8476TIP3   OH246918   6.717   4.336  16.432 -0.2201  0.3104 -0.0127
 8476TIP3    H146919   6.797   4.364  16.388  0.7233 -0.9067  0.8479
 8476TIP3    H246920   6.673   4.418  16.456  0.2630  0.9952 -1.3640
 8477TIP3   OH246921   4.083   4.249  15.979 -0.1535  0.4978 -0.2742
 8477TIP3    H146922   4.071   4.321  15.917  1.4576  1.9733  1.0096
 8477TIP3    H246923   4.134   4.288  16.051  1.3295 -2.0777  0.1961
 8478TIP3   OH246924   2.899   0.504   6.118 -0.9701 -0.8806  0.3750
 8478TIP3    H146925   2.851   0.507   6.036 -0.5163 -1.1332  0.0934
 8478TIP3    H246926   2.854   0.566   6.175 -1.1051 -0.4767 -0.1624
 8479TIP3   OH246927   3.556   2.893  16.532 -0.0412 -0.1501  0.2758
 8479TIP3    H146928   3.511   2.975  16.553 -0.1884 -0.3393  0.7152
 8479TIP3    H246929   3.621   2.884  16.602 -1.2861 -1.3675  1.3232
 8480TIP3   OH246930   4.702   3.105  13.291  0.0838 -0.2237  0.5790
 8480TIP3    H146931   4.682   3.198  13.297  2.9525  0.4541  0.7666
 8480TIP3    H246932   4.723   3.092  13.198  1.5623 -0.2182  0.8948
 8481TIP3   OH246933   5.856   5.527  12.780  0.5172 -0.4502  0.1150
 8481TIP3    H146934   5.845   5.444  12.733  0.7945  0.5124 -1.7534
 8481TIP3    H246935   5.791   5.586  12.741 -2.7902 -0.8471  4.3703
 8482TIP3   OH246936   0.568   4.622  11.937 -0.0647 -0.0283  0.3334
 8482TIP3    H146937   0.656   4.622  11.898 -0.0520  2.2494  0.2312
 8482TIP3    H246938   0.512   4.656  11.868 -0.4332  1.7936  1.4691
 8483TIP3   OH246939   6.017   3.775   4.387  0.4468  0.4316 -0.4465
 8483TIP3    H146940   6.091   3.833   4.371 -0.5857  1.8821 -0.1209
 8483TIP3    H246941   5.952   3.799   4.321 -0.6476  0.8473  0.7341
 8484TIP3   OH246942   5.512   2.374  12.485 -0.1491 -0.4740  0.4021
 8484TIP3    H146943   5.535   2.354  12.576 -0.0272 -0.6644  0.3307
 8484TIP3    H246944   5.593   2.409  12.448  0.0389 -1.1600  0.1459
 8485TIP3   OH246945   2.154   0.487   3.097 -0.2143 -0.2077 -0.0022
 8485TIP3    H146946   2.199   0.564   3.132 -0.7339  0.7277 -1.3184
 8485TIP3    H246947   2.202   0.412   3.134  0.8852  0.7347  0.5498
 8486TIP3   OH246948   4.118   4.077  12.056 -0.0355  0.8008  0.1852
 8486TIP3    H146949   4.103   4.013  12.125 -0.0396  1.2886  0.6455
 8486TIP3    H246950   4.214   4.083  12.049  0.0028 -0.6763 -1.2159
 8487TIP3   OH246951   2.599   0.074  15.895 -0.3826 -0.5051 -0.3778
 8487TIP3    H146952   2.506   0.097  15.891 -0.5321 -1.2812 -2.3380
 8487TIP3    H246953   2.634   0.131  15.964 -2.4635 -0.8671  1.0805
 8488TIP3   OH246954   2.613   1.247  13.624 -0.1476  0.2124  0.1702
 8488TIP3    H146955   2.691   1.202  13.591 -0.7187  0.1644 -1.1521
 8488TIP3    H246956   2.636   1.271  13.714  1.4039  0.2115 -0.2006
 8489TIP3   OH246957   1.348   2.097  14.964 -0.3984 -0.1659 -0.4691
 8489TIP3    H146958   1.328   2.089  14.871 -0.5668  0.5034 -0.4940
 8489TIP3    H246959   1.391   2.182  14.973 -1.1802  0.1786  0.1925
 8490TIP3   OH246960   5.383   5.246  13.058 -0.6794  0.1929  0.2003
 8490TIP3    H146961   5.419   5.316  13.003  0.4655 -0.5448 -0.0238
 8490TIP3    H246962   5.352   5.181  12.995  0.6620 -0.6703  0.3860
 8491TIP3   OH246963   0.104   5.867  11.140  0.0049  0.7742  0.2009
 8491TIP3    H146964   0.151   5.822  11.211 -0.4735  0.8039  0.5424
 8491TIP3    H246965   0.015   5.830  11.143 -0.2308  1.3280  0.1122
 8492TIP3   OH246966   1.084   1.305  11.476 -0.3287  0.4845  0.1797
 8492TIP3    H146967   1.170   1.343  11.457 -0.1481 -0.4907 -1.1347
 8492TIP3    H246968   1.027   1.341  11.408 -1.1650  1.6582  1.4373
 8493TIP3   OH246969   0.706   3.970  15.302 -0.4578 -0.0284  0.2845
 8493TIP3    H146970   0.748   4.009  15.378 -2.2892  2.2392  0.2528
 8493TIP3    H246971   0.613   3.966  15.326 -0.9344 -0.1179 -1.4663
 8494TIP3   OH246972   6.428   1.612  15.372 -0.3040  0.5345  0.3043
 8494TIP3    H146973   6.361   1.577  15.430 -0.2506 -0.5434 -0.2564
 8494TIP3    H246974   6.495   1.646  15.431 -0.5722  0.0962  0.8737
 8495TIP3   OH246975   5.321   3.142  16.351 -0.8229  0.0247  0.2968
 8495TIP3    H146976   5.289   3.214  16.404 -1.2508  0.7603 -0.9422
 8495TIP3    H246977   5.412   3.131  16.379 -1.1597  0.1160  1.4664
 8496TIP3   OH246978   1.392   1.562  16.610 -0.0143  0.3350 -0.8214
 8496TIP3    H146979   1.363   1.487  16.662  0.5089  1.3492  1.0329
 8496TIP3    H246980   1.471   1.593  16.654 -0.2143  1.9677 -1.5199
 8497TIP3   OH246981   1.074   1.024   4.592 -0.0436 -0.0734  0.6781
 8497TIP3    H146982   1.104   1.112   4.568  0.1072 -0.3970 -0.3934
 8497TIP3    H246983   1.151   0.982   4.630  0.1095 -0.0046  0.4469
 8498TIP3   OH246984   1.158   5.150   2.571  0.3860 -0.0316  0.1234
 8498TIP3    H146985   1.110   5.172   2.651  0.8386 -0.3834  0.4896
 8498TIP3    H246986   1.197   5.065   2.588  0.7182  0.0161 -0.3717
 8499TIP3   OH246987   5.890   3.016   2.868  0.0410  0.4428  0.3102
 8499TIP3    H146988   5.900   3.096   2.919 -1.2711  2.3656 -2.1738
 8499TIP3    H246989   5.795   3.005   2.860  0.1838 -1.7746  1.1137
 8500TIP3   OH246990   4.175   5.677  10.389 -0.4687  0.3187 -0.2612
 8500TIP3    H146991   4.258   5.700  10.348 -1.1534  1.2982 -1.1646
 8500TIP3    H246992   4.130   5.624  10.322 -1.5535  1.8341 -0.7793
 8501TIP3   OH246993   1.641   3.988  11.337  0.1398  0.2097  0.0237
 8501TIP3    H146994   1.723   4.003  11.385  1.5799 -1.0528 -1.8914
 8501TIP3    H246995   1.632   4.065  11.280 -0.1590  0.4646  0.4083
 8502TIP3   OH246996   6.204   3.067  13.252  0.3305  0.1914  0.1206
 8502TIP3    H146997   6.288   3.106  13.276  1.0878 -0.7630 -0.8875
 8502TIP3    H246998   6.226   2.977  13.228 -0.8753  0.1511 -0.8933
 8503TIP3   OH246999   3.227   3.745   5.086 -1.1247  0.1026 -0.3430
 8503TIP3    H147000   3.241   3.829   5.043  0.5996 -0.2227 -0.4729
 8503TIP3    H247001   3.314   3.708   5.097 -1.6716 -0.7127  1.6847
 8504TIP3   OH247002   5.293   2.504   2.793 -0.0584 -0.3317 -0.5300
 8504TIP3    H147003   5.369   2.506   2.735 -0.7716  0.8645 -1.4772
 8504TIP3    H247004   5.286   2.413   2.820  2.2508 -0.3123  0.3440
 8505TIP3   OH247005   0.408   0.199   5.133 -0.8334  0.1485  0.2798
 8505TIP3    H147006   0.413   0.136   5.061  1.3729 -0.1538  0.6298
 8505TIP3    H247007   0.398   0.284   5.090 -1.3769 -0.1948 -0.2909
 8506TIP3   OH247008   4.797   0.026   3.126  0.0792 -0.3933  0.1545
 8506TIP3    H147009   4.802  -0.034   3.200 -0.5027 -0.0429  0.4820
 8506TIP3    H247010   4.839   0.106   3.158 -1.2482  0.1783  0.5383
 8507TIP3   OH247011   1.631   1.041  14.700  0.2512  0.4076 -0.5009
 8507TIP3    H147012   1.645   1.132  14.674  1.0745 -0.2517 -2.6225
 8507TIP3    H247013   1.719   1.006  14.712 -0.0827  0.2989  2.0744
 8508TIP3   OH247014   5.180   1.814   4.410 -0.1523 -0.0200 -0.2322
 8508TIP3    H147015   5.160   1.752   4.340  0.1850 -1.0206  0.5409
 8508TIP3    H247016   5.250   1.772   4.461 -0.6025  0.5453  0.8936
 8509TIP3   OH247017   0.917   4.631   1.512 -0.0969 -0.3416  0.3013
 8509TIP3    H147018   1.005   4.667   1.514  0.5985 -1.9605  0.7919
 8509TIP3    H247019   0.876   4.670   1.435  0.8611  0.8110  0.3506
 8510TIP3   OH247020   2.485   4.419   1.090  0.0560 -0.3484  0.1793
 8510TIP3    H147021   2.518   4.426   1.180  2.0978  1.7782 -0.6415
 8510TIP3    H247022   2.561   4.433   1.035 -1.1225 -1.7181 -1.9522
 8511TIP3   OH247023   2.137   3.052   5.466  0.1636  0.0838  0.0860
 8511TIP3    H147024   2.152   2.985   5.533 -0.1303 -1.1217 -1.0019
 8511TIP3    H247025   2.077   3.114   5.508 -0.3548 -0.8654  0.8082
 8512TIP3   OH247026   6.180   3.770   2.306  0.0215 -0.2187  0.0808
 8512TIP3    H147027   6.269   3.793   2.333 -0.2565  0.8325  0.1458
 8512TIP3    H247028   6.172   3.806   2.218 -0.8364  1.0808  0.6555
 8513TIP3   OH247029   3.920   2.456  12.014  0.0665 -0.0160  0.1547
 8513TIP3    H147030   3.866   2.517  12.064  1.0292  1.0415 -0.0835
 8513TIP3    H247031   4.008   2.492  12.018  0.7001 -1.4764  0.1484
 8514TIP3   OH247032   4.725   4.744   1.785 -0.4160  0.0863 -0.2838
 8514TIP3    H147033   4.795   4.786   1.834 -0.0667 -1.1713  0.3465
 8514TIP3    H247034   4.736   4.774   1.695  0.7411  0.1502 -0.1277
 8515TIP3   OH247035   6.093   5.621  12.528 -0.3029 -0.7314  0.2612
 8515TIP3    H147036   6.145   5.638  12.606 -0.2786  0.4199  0.0107
 8515TIP3    H247037   6.015   5.677  12.538 -0.5032 -0.8981 -0.3308
 8516TIP3   OH247038   0.068   3.090   2.708 -0.6093 -0.8740  0.6960
 8516TIP3    H147039   0.139   3.140   2.669  0.7648 -3.8537 -0.9075
 8516TIP3    H247040   0.106   3.050   2.786 -1.0622 -1.0747  0.8194
 8517TIP3   OH247041   3.442   5.639  12.593 -0.1123  0.4081  0.6813
 8517TIP3    H147042   3.534   5.615  12.607  1.1467  1.9980 -3.4763
 8517TIP3    H247043   3.433   5.724  12.637  0.4027  0.2704  1.0682
 8518TIP3   OH247044   0.533   4.281   4.895  0.0689  0.4588  0.3106
 8518TIP3    H147045   0.564   4.194   4.919  0.4818  0.5105 -0.0226
 8518TIP3    H247046   0.589   4.307   4.822  1.4337  1.9151  1.7963
 8519TIP3   OH247047   6.353   3.498   6.817  0.2454 -0.1489 -0.3286
 8519TIP3    H147048   6.431   3.554   6.816  0.8362 -0.9693 -0.3386
 8519TIP3    H247049   6.284   3.555   6.783  1.3989 -0.1825 -2.9833
 8520TIP3   OH247050   5.184   4.460  16.947  0.1212  0.0812 -0.3291
 8520TIP3    H147051   5.168   4.555  16.942 -1.5371 -0.1681 -0.3862
 8520TIP3    H247052   5.119   4.422  16.887  1.1169 -1.0695 -0.7103
 8521TIP3   OH247053   1.411   0.299   2.650  0.0983  0.0989  0.2186
 8521TIP3    H147054   1.459   0.381   2.636 -0.4172  0.3981  0.1897
 8521TIP3    H247055   1.415   0.285   2.744  0.0789  0.2242  0.2389
 8522TIP3   OH247056   2.194   4.692  16.775 -0.6171 -0.0268  0.2387
 8522TIP3    H147057   2.145   4.773  16.762  0.0467  0.6513  1.6806
 8522TIP3    H247058   2.275   4.720  16.817  0.4486 -1.2578 -0.8941
 8523TIP3   OH247059   2.615   5.777   3.844 -0.0546 -0.1168 -0.2496
 8523TIP3    H147060   2.601   5.857   3.896  0.7795  0.5105 -0.9689
 8523TIP3    H247061   2.710   5.772   3.834  0.0898 -2.3295  1.5172
 8524TIP3   OH247062   2.387   2.587   0.655  0.4860  0.4898  0.2739
 8524TIP3    H147063   2.456   2.590   0.722 -1.2871  2.4226  2.1826
 8524TIP3    H247064   2.374   2.678   0.630 -0.6397  0.0582 -0.8270
 8525TIP3   OH247065   1.566   4.961   5.429 -0.0824  0.1585  0.4054
 8525TIP3    H147066   1.557   4.885   5.371 -1.4450 -0.3691  1.2790
 8525TIP3    H247067   1.477   4.995   5.439  0.3216  1.0504  1.1271
 8526TIP3   OH247068   5.956   0.243   0.296 -0.1918 -0.2530 -0.2141
 8526TIP3    H147069   5.971   0.336   0.313 -2.1261  0.0169  0.2045
 8526TIP3    H247070   5.898   0.241   0.220 -0.2618 -1.1062 -0.1513
 8527TIP3   OH247071   1.098   2.928   2.163 -0.0411 -0.4111 -0.2623
 8527TIP3    H147072   1.082   2.951   2.254 -0.3290 -1.2221 -0.1013
 8527TIP3    H247073   1.045   2.991   2.113  1.3981  1.1048  0.0509
 8528TIP3   OH247074   4.979   0.127   6.843  0.6355  0.3594  0.0755
 8528TIP3    H147075   4.964   0.182   6.920  0.2222 -0.0167  0.2726
 8528TIP3    H247076   4.902   0.141   6.788  0.6998  0.2623 -0.0391
 8529TIP3   OH247077   6.191   3.399   1.703  0.2852  0.0416 -0.0558
 8529TIP3    H147078   6.180   3.488   1.737  3.0828  1.0312 -1.4539
 8529TIP3    H247079   6.265   3.363   1.751  1.2382 -0.2939 -1.7050
 8530TIP3   OH247080   3.957   1.687   1.457 -0.1080  0.1941  0.2595
 8530TIP3    H147081   3.953   1.763   1.398  0.4627 -0.7572 -1.0484
 8530TIP3    H247082   4.045   1.652   1.445 -0.0905 -0.2118  1.4617
 8531TIP3   OH247083   6.517   1.590  13.020 -0.5740 -0.0770  0.2476
 8531TIP3    H147084   6.515   1.678  12.983  1.3872 -0.3356 -0.6343
 8531TIP3    H247085   6.524   1.603  13.114  1.3791  0.7920  0.0300
 8532TIP3   OH247086   3.268   4.777  15.709  0.0603 -0.0369  0.0025
 8532TIP3    H147087   3.339   4.813  15.655 -0.1935  1.8996  0.8709
 8532TIP3    H247088   3.189   4.789  15.656 -0.0932  1.2282  0.4822
 8533TIP3   OH247089   2.540   4.320   6.242  0.6430  0.0187  0.3221
 8533TIP3    H147090   2.484   4.383   6.288  0.2647 -0.1285  0.0752
 8533TIP3    H247091   2.559   4.362   6.158  0.8426  0.0368  0.3765
 8534TIP3   OH247092   4.575   3.930   1.879 -0.0113  0.4333 -0.2494
 8534TIP3    H147093   4.489   3.963   1.902  0.2127  1.0156 -0.2410
 8534TIP3    H247094   4.558   3.858   1.818 -0.4460  2.3458 -2.5485
 8535TIP3   OH247095   4.563   0.114  14.678 -0.3032 -0.5196  0.3051
 8535TIP3    H147096   4.597   0.049  14.616 -0.8457 -1.2232  0.7233
 8535TIP3    H247097   4.470   0.121  14.656 -0.4302 -0.5421  0.8245
 8536TIP3   OH247098   6.162   6.768   2.120 -0.3016 -0.4730 -0.2496
 8536TIP3    H147099   6.235   6.803   2.172  0.3193 -1.2896 -0.5577
 8536TIP3    H247100   6.097   6.838   2.122 -0.9384 -1.0035  2.8653
 8537TIP3   OH247101   4.374   0.999  14.360  0.2831 -0.1929 -0.0224
 8537TIP3    H147102   4.412   0.996  14.273  0.3789 -1.5670  0.0529
 8537TIP3    H247103   4.280   1.005  14.346  0.3985  1.6792 -0.2040
 8538TIP3   OH247104   5.638   3.071   0.332  0.2949  0.1300 -0.5688
 8538TIP3    H147105   5.701   3.104   0.396  0.4058 -0.9716 -0.0728
 8538TIP3    H247106   5.553   3.094   0.368  0.3870  2.0586 -1.4850
 8539TIP3   OH247107   2.409   2.886  16.231  0.0464  0.2785 -0.4344
 8539TIP3    H147108   2.335   2.855  16.283 -0.4754  1.2661 -0.5734
 8539TIP3    H247109   2.486   2.858  16.280 -0.4246  0.2540  0.3041
 8540TIP3   OH247110   0.706   0.349   2.310  0.2276 -0.2368 -0.3052
 8540TIP3    H147111   0.757   0.321   2.387  1.2882 -0.1071 -0.9382
 8540TIP3    H247112   0.615   0.338   2.337  0.5842 -1.6031  0.4566
 8541TIP3   OH247113   2.953   5.966  14.911  0.0532 -0.2705 -0.2895
 8541TIP3    H147114   2.927   5.898  14.849  2.4054 -0.1004 -1.5913
 8541TIP3    H247115   3.017   5.923  14.968 -0.2936  0.2172  0.4839
 8542TIP3   OH247116   4.840   4.738  15.624 -0.1050 -0.3625 -0.4820
 8542TIP3    H147117   4.749   4.722  15.598  0.1759 -1.2792 -0.9434
 8542TIP3    H247118   4.860   4.825  15.592  0.3508 -1.5524 -3.7727
 8543TIP3   OH247119   2.768   2.407  13.539  0.0813 -0.2529 -0.6542
 8543TIP3    H147120   2.809   2.461  13.607 -0.1157 -0.2332 -0.5501
 8543TIP3    H247121   2.839   2.355  13.503 -0.0249 -1.1542  0.3951
 8544TIP3   OH247122   6.641   2.290  16.019 -0.2375 -0.2248 -0.3507
 8544TIP3    H147123   6.647   2.210  16.070 -0.9055  0.2266  0.4588
 8544TIP3    H247124   6.568   2.338  16.058 -0.3228  0.4389 -1.2986
 8545TIP3   OH247125   0.897   0.938  12.224  0.2706  0.2248 -0.0443
 8545TIP3    H147126   0.963   0.881  12.262  0.0130  2.0815  3.5972
 8545TIP3    H247127   0.942   0.980  12.150  1.7706 -1.5129 -0.1901
 8546TIP3   OH247128   0.584   6.292  13.026  0.7894  0.3922  0.2417
 8546TIP3    H147129   0.664   6.338  13.004 -1.1502  3.6939 -0.5853
 8546TIP3    H247130   0.553   6.333  13.106 -0.7194  0.0952 -0.1550
 8547TIP3   OH247131   4.976   5.756  11.405  0.3114 -0.8509  0.6118
 8547TIP3    H147132   5.038   5.722  11.341  0.7931 -0.0242  0.6307
 8547TIP3    H247133   4.894   5.766  11.356  1.1327  1.5326 -0.4165
 8548TIP3   OH247134   0.253   2.475  12.831 -1.0643  0.1998  0.3287
 8548TIP3    H147135   0.234   2.560  12.792  0.2437 -0.4052 -1.8104
 8548TIP3    H247136   0.170   2.446  12.869 -1.6858  2.1218  0.5199
 8549TIP3   OH247137   3.790   3.905  11.484  0.2500  0.2685 -0.2993
 8549TIP3    H147138   3.814   3.833  11.542 -0.0662  0.4514  0.0637
 8549TIP3    H247139   3.872   3.949  11.465  0.1076  1.7005  2.0082
 8550TIP3   OH247140   1.780   1.230  15.727 -0.1659  0.0495 -0.5286
 8550TIP3    H147141   1.867   1.269  15.713  0.1266  0.2198  1.5278
 8550TIP3    H247142   1.720   1.305  15.728 -0.1643  0.0527 -0.6434
 8551TIP3   OH247143   5.484   1.707  14.983  0.2827 -0.1803  0.2819
 8551TIP3    H147144   5.408   1.761  14.962  0.4835 -0.0898 -0.2299
 8551TIP3    H247145   5.505   1.663  14.900  2.1118  1.4388 -0.1589
 8552TIP3   OH247146   3.405   2.682   2.226 -0.2002  0.2667  0.1520
 8552TIP3    H147147   3.328   2.688   2.170  0.3251  0.1747 -0.5990
 8552TIP3    H247148   3.386   2.739   2.300 -0.6643  0.8686 -0.4236
 8553TIP3   OH247149   4.008   5.192  11.675 -0.4941  0.0104 -0.6428
 8553TIP3    H147150   3.941   5.261  11.673  1.2468  1.7829 -1.2643
 8553TIP3    H247151   4.021   5.169  11.583 -0.4470 -0.5342 -0.4999
 8554TIP3   OH247152   6.365   4.025   3.849  0.1991  0.2748  0.5542
 8554TIP3    H147153   6.300   4.095   3.850  0.0532  0.3174 -2.2817
 8554TIP3    H247154   6.405   4.031   3.762  0.7135 -2.6496  0.4789
 8555TIP3   OH247155   5.916   3.165   0.392 -0.2856 -0.2433  0.0886
 8555TIP3    H147156   5.940   3.156   0.299 -1.4340  0.0530 -0.2498
 8555TIP3    H247157   5.926   3.076   0.427  2.0115 -0.0214  0.1773
 8556TIP3   OH247158   1.804   0.297   1.525 -0.1849 -0.1624  0.2309
 8556TIP3    H147159   1.847   0.246   1.457 -0.9372 -0.7032  0.1396
 8556TIP3    H247160   1.853   0.379   1.530 -0.1325 -0.1086 -0.9795
 8557TIP3   OH247161   3.506   2.974   4.691 -0.7640  0.5340  0.3768
 8557TIP3    H147162   3.428   2.988   4.637 -0.4691 -1.9853 -0.8687
 8557TIP3    H247163   3.557   3.054   4.681 -1.4156  0.7354 -1.9464
 8558TIP3   OH247164   1.049   1.303   0.778  0.6340  0.0123  0.8368
 8558TIP3    H147165   1.033   1.300   0.872 -3.1822 -0.4590  0.3099
 8558TIP3    H247166   1.031   1.214   0.748 -1.1200  0.8099 -0.6469
 8559TIP3   OH247167   6.202   1.231  10.938 -0.1924  0.3835 -0.4937
 8559TIP3    H147168   6.129   1.188  10.894 -1.3253  0.7884  0.9221
 8559TIP3    H247169   6.169   1.254  11.025  2.1734 -1.0429  0.9224
 8560TIP3   OH247170   4.040   5.461  13.858  0.9403  0.5837 -0.0489
 8560TIP3    H147171   4.100   5.535  13.869  1.8626 -0.0550 -0.6300
 8560TIP3    H247172   4.055   5.431  13.768 -0.6056  0.6931 -0.3690
 8561TIP3   OH247173   3.751   4.328  11.573 -0.3878  0.8565 -0.2560
 8561TIP3    H147174   3.730   4.346  11.481  0.9138 -0.0261 -0.7475
 8561TIP3    H247175   3.747   4.233  11.580 -1.0154  0.9446  0.7574
 8562TIP3   OH247176   3.769   5.166   4.713  0.0267 -0.2064  0.0433
 8562TIP3    H147177   3.804   5.085   4.676  1.1504 -0.0562  0.7218
 8562TIP3    H247178   3.689   5.140   4.758 -1.5499 -0.3598 -2.6198
 8563TIP3   OH247179   2.511   0.014   5.735 -0.0944 -0.4048 -0.5310
 8563TIP3    H147180   2.533   0.107   5.741 -1.3833 -0.0019 -1.6545
 8563TIP3    H247181   2.595  -0.030   5.718  0.4462  0.5927 -0.5059
 8564TIP3   OH247182   3.494   4.455   3.772  0.3734 -0.4749  0.5479
 8564TIP3    H147183   3.478   4.437   3.680 -0.5331  1.2090  0.3371
 8564TIP3    H247184   3.588   4.442   3.783  0.5072 -0.5947 -0.6322
 8565TIP3   OH247185   2.612   2.607   5.144 -0.4913 -0.2466  0.4222
 8565TIP3    H147186   2.543   2.552   5.181  0.3453 -0.7653  1.2624
 8565TIP3    H247187   2.674   2.619   5.217  0.3916  0.0541 -0.3616
 8566TIP3   OH247188   5.771   3.919   6.753 -0.6783 -0.4044  0.1170
 8566TIP3    H147189   5.719   3.865   6.813 -1.5179  0.0626 -0.1729
 8566TIP3    H247190   5.719   3.922   6.673 -1.4395  2.0955  0.6301
 8567TIP3   OH247191   4.064   1.921  10.749  0.2184  0.2819  0.3360
 8567TIP3    H147192   4.012   1.996  10.778  0.4110  0.2116  0.8758
 8567TIP3    H247193   4.033   1.849  10.804 -0.7547 -0.3037 -0.9217
 8568TIP3   OH247194   0.494   2.984  16.428 -0.4853  0.5852 -0.0374
 8568TIP3    H147195   0.522   2.941  16.509  0.7204  1.1170 -0.1601
 8568TIP3    H247196   0.566   3.042  16.404 -0.9812  0.7340 -1.2882
 8569TIP3   OH247197   5.120   2.503   0.821  0.1149 -0.1341 -0.1714
 8569TIP3    H147198   5.201   2.544   0.790 -0.0599  0.9279  0.7122
 8569TIP3    H247199   5.109   2.537   0.910 -0.5972 -1.3246  0.2095
 8570TIP3   OH247200   4.359   1.282   3.021  0.5821 -0.1288  0.1632
 8570TIP3    H147201   4.432   1.229   3.054  1.1900  1.5624  1.7060
 8570TIP3    H247202   4.400   1.356   2.977 -0.2499 -0.3080 -0.9627
 8571TIP3   OH247203   2.848   1.281  15.067 -0.1425  1.1464 -0.2771
 8571TIP3    H147204   2.928   1.312  15.026 -0.1415  0.4328 -0.8364
 8571TIP3    H247205   2.841   1.189  15.040  0.0266  0.5345  1.5745
 8572TIP3   OH247206   6.814   0.331   5.960  0.5215 -0.6838 -0.5590
 8572TIP3    H147207   6.780   0.259   5.907 -1.9002 -0.7234  0.9123
 8572TIP3    H247208   6.775   0.410   5.922 -3.3897 -0.8844  2.3862
 8573TIP3   OH247209   5.919   3.313  14.948  0.4914  0.4347  0.0294
 8573TIP3    H147210   5.901   3.385  14.887  1.1984 -0.1045 -0.8381
 8573TIP3    H247211   6.014   3.312  14.955  0.5308 -0.8272 -0.4844
 8574TIP3   OH247212   5.337   0.409   5.247  0.0479 -0.2088 -0.0395
 8574TIP3    H147213   5.272   0.340   5.235 -1.2185  0.4293  2.4154
 8574TIP3    H247214   5.378   0.419   5.161 -0.8191 -2.8845 -0.8550
 8575TIP3   OH247215   2.165   5.453   6.126 -0.3287 -0.3273  0.2652
 8575TIP3    H147216   2.202   5.500   6.201  0.8693  2.0528 -1.6744
 8575TIP3    H247217   2.222   5.377   6.115  1.1795  0.7478  0.2209
 8576TIP3   OH247218   4.105   6.601   4.194 -0.1070  0.0100  0.7699
 8576TIP3    H147219   4.010   6.600   4.204 -0.0646 -3.1398  2.0938
 8576TIP3    H247220   4.139   6.620   4.282  0.4421 -1.2365  0.8498
 8577TIP3   OH247221   5.915   2.169   4.540 -0.5745 -0.3065  0.0058
 8577TIP3    H147222   5.946   2.247   4.494 -0.6051 -0.8557 -0.9846
 8577TIP3    H247223   5.826   2.156   4.508 -0.7470 -0.4653  0.5441
 8578TIP3   OH247224   0.354   4.059   5.816 -0.2421  0.2561 -0.2247
 8578TIP3    H147225   0.295   4.074   5.890 -1.2201  2.3468 -1.3248
 8578TIP3    H247226   0.441   4.078   5.850 -0.4766 -0.3889  0.7786
 8579TIP3   OH247227   4.558   6.802  14.431 -0.8447 -0.0921  0.5227
 8579TIP3    H147228   4.631   6.842  14.384 -1.7194  2.7016  1.3383
 8579TIP3    H247229   4.570   6.708  14.419  0.4850  0.3761 -2.9253
 8580TIP3   OH247230   2.699   3.555  14.480  0.1212 -0.7802  1.0769
 8580TIP3    H147231   2.609   3.575  14.505 -0.0680 -0.9166  0.4991
 8580TIP3    H247232   2.751   3.584  14.555 -0.2113  1.1299  0.6226
 8581TIP3   OH247233   1.286   3.035   1.932 -0.0150  0.3903  0.2172
 8581TIP3    H147234   1.274   2.993   1.847  2.0167  0.5352 -0.1954
 8581TIP3    H247235   1.204   3.019   1.979  0.0038 -2.4257 -0.5719
 8582TIP3   OH247236   6.613   6.594   0.086 -0.2606  0.1142 -0.3371
 8582TIP3    H147237   6.555   6.582   0.011  0.6627 -2.1113 -0.7899
 8582TIP3    H247238   6.700   6.571   0.052 -0.0730 -2.8350  1.8063
 8583TIP3   OH247239   2.794   6.731  15.594 -0.1368 -0.1847 -0.1676
 8583TIP3    H147240   2.741   6.795  15.546 -0.9037 -0.8443 -0.2229
 8583TIP3    H247241   2.788   6.758  15.686 -2.9897 -1.8466  0.2524
 8584TIP3   OH247242   2.101   6.219   3.342 -0.0825 -0.3074  0.3899
 8584TIP3    H147243   2.095   6.160   3.267 -1.1935 -0.3534  0.4977
 8584TIP3    H247244   2.181   6.270   3.326  0.2319 -0.9981 -0.3125
 8585TIP3   OH247245   5.871   6.500  10.302 -0.3075 -0.2402 -0.3607
 8585TIP3    H147246   5.874   6.461  10.390 -2.6891 -0.2563 -0.2181
 8585TIP3    H247247   5.952   6.549  10.295  0.1600 -0.6182  1.6750
 8586TIP3   OH247248   0.734   4.340  10.756 -0.1258 -0.4066 -0.3134
 8586TIP3    H147249   0.753   4.433  10.748  0.1440 -0.5046 -0.8570
 8586TIP3    H247250   0.709   4.328  10.848  1.1095 -0.0248  0.0915
 8587TIP3   OH247251   3.944   1.947  14.838  0.6588  0.2775  0.4727
 8587TIP3    H147252   3.908   2.030  14.807 -0.0453  0.1478  0.9009
 8587TIP3    H247253   3.935   1.952  14.934 -0.4661 -0.7466  0.4484
 8588TIP3   OH247254   3.125   3.202   0.378 -0.0780 -0.2780 -0.2284
 8588TIP3    H147255   3.068   3.223   0.451 -0.1293 -1.8847  0.2221
 8588TIP3    H247256   3.066   3.184   0.305 -0.0184  2.0523 -0.9438
 8589TIP3   OH247257   4.428   3.742  16.642  0.1037 -0.1535  0.4733
 8589TIP3    H147258   4.409   3.815  16.701  1.0059  0.0640  0.5168
 8589TIP3    H247259   4.519   3.719  16.661 -0.7334 -2.6327  1.9032
 8590TIP3   OH247260   5.405   0.076  13.375 -0.8001 -0.3766  0.6507
 8590TIP3    H147261   5.415  -0.016  13.351  0.0819 -0.9589  2.9653
 8590TIP3    H247262   5.343   0.111  13.311 -0.1746 -2.2273 -1.0744
 8591TIP3   OH247263   6.252   1.633   5.912  0.2650 -0.0435 -0.1849
 8591TIP3    H147264   6.227   1.548   5.949 -1.0162  0.0496 -0.7911
 8591TIP3    H247265   6.299   1.677   5.983 -0.1095 -0.7923  0.5474
 8592TIP3   OH247266   0.832   2.154  12.037 -0.1609  0.2974 -0.4607
 8592TIP3    H147267   0.777   2.137  12.113  1.6858  0.9999  1.1176
 8592TIP3    H247268   0.802   2.239  12.005 -0.4048  0.3884  0.0014
 8593TIP3   OH247269   4.842   4.225  14.255 -0.5436  0.0878 -0.3129
 8593TIP3    H147270   4.777   4.232  14.325  0.3595  2.7007  0.3692
 8593TIP3    H247271   4.792   4.234  14.174 -1.2926 -0.3480  0.0924
 8594TIP3   OH247272   2.387   5.002   4.914 -0.3254 -0.1834 -0.7034
 8594TIP3    H147273   2.322   5.006   4.843  0.4088 -0.2710 -1.3918
 8594TIP3    H247274   2.415   5.093   4.924 -2.3876  0.3220  1.3693
 8595TIP3   OH247275   3.473   1.517   4.342  0.3180 -0.2147 -0.0397
 8595TIP3    H147276   3.558   1.481   4.368  1.0850  2.3052  1.2446
 8595TIP3    H247277   3.489   1.559   4.258 -0.6185 -2.7479 -1.6233
 8596TIP3   OH247278   2.160   3.669  12.234  0.4563  0.0603  0.3669
 8596TIP3    H147279   2.186   3.628  12.152  1.3599  0.4877  0.4152
 8596TIP3    H247280   2.070   3.641  12.249  0.6884 -0.9955 -0.1483
 8597TIP3   OH247281   1.833   5.466  15.692 -0.7538 -0.1835  0.1328
 8597TIP3    H147282   1.883   5.390  15.660  0.1770  0.7134 -0.6358
 8597TIP3    H247283   1.830   5.525  15.616 -2.2898  0.1454  0.4273
 8598TIP3   OH247284   5.486   6.237  11.286  0.5710  0.1614 -0.1921
 8598TIP3    H147285   5.463   6.261  11.376 -1.7927 -1.3344 -0.3060
 8598TIP3    H247286   5.422   6.282  11.232  0.3939 -0.9116 -0.9047
 8599TIP3   OH247287   0.805   5.591   1.770  0.0062  0.1724  0.0404
 8599TIP3    H147288   0.824   5.542   1.851 -2.0993 -2.6045 -0.9816
 8599TIP3    H247289   0.891   5.603   1.729  1.0141  0.7521  2.1522
 8600TIP3   OH247290   5.446   3.561  13.955  0.3184  0.4131  0.1117
 8600TIP3    H147291   5.368   3.606  13.925  0.9971  1.0909 -0.6940
 8600TIP3    H247292   5.491   3.534  13.875  1.9853  1.9387  0.4585
 8601TIP3   OH247293   2.233   6.161   1.217 -0.1822 -0.3265  0.0239
 8601TIP3    H147294   2.171   6.187   1.148 -1.4789  0.6548  1.4600
 8601TIP3    H247295   2.262   6.244   1.254  0.5970 -0.8353  0.5652
 8602TIP3   OH247296   3.579   6.466  16.865 -0.0467  0.2386  0.8076
 8602TIP3    H147297   3.532   6.502  16.940 -1.1905 -0.0763  0.2684
 8602TIP3    H247298   3.663   6.436  16.901 -1.1659 -1.3099  2.2991
 8603TIP3   OH247299   0.407   1.510  12.222 -0.5576 -0.4553 -0.0294
 8603TIP3    H147300   0.365   1.514  12.136 -0.3104 -0.8395 -0.1660
 8603TIP3    H247301   0.348   1.456  12.274 -2.4182  2.3094  1.0097
 8604TIP3   OH247302   6.622   2.913   1.203  0.5829 -0.0949  0.2346
 8604TIP3    H147303   6.611   2.960   1.286  0.7117  1.8713 -0.8005
 8604TIP3    H247304   6.670   2.833   1.227  1.3591  0.8218  1.9388
 8605TIP3   OH247305   4.768   2.285  16.846 -0.1802 -0.0891 -0.2835
 8605TIP3    H147306   4.838   2.336  16.887 -0.0594  0.3741 -1.0411
 8605TIP3    H247307   4.810   2.245  16.769 -0.1189 -1.8378  0.6205
 8606TIP3   OH247308   4.878   5.620  13.606 -0.1040 -0.3408 -0.1105
 8606TIP3    H147309   4.865   5.625  13.511  1.2331  0.9952 -0.2699
 8606TIP3    H247310   4.791   5.635  13.643 -0.2249  1.8875 -1.1357
 8607TIP3   OH247311   3.675   1.071  16.416  0.4380  0.3469  0.2093
 8607TIP3    H147312   3.625   1.083  16.335  1.6601 -0.8921 -0.7858
 8607TIP3    H247313   3.625   1.007  16.466  0.9663 -0.8755 -0.7693
 8608TIP3   OH247314   3.322   0.272   1.969  0.4333  0.0988  0.1384
 8608TIP3    H147315   3.398   0.317   1.934  1.8965 -2.2431  0.1652
 8608TIP3    H247316   3.249   0.333   1.953  1.9261  1.4932 -1.7803
 8609TIP3   OH247317   3.157   4.253  16.231  0.0284  0.2991  0.0101
 8609TIP3    H147318   3.115   4.311  16.167 -0.5989 -0.5054 -0.3256
 8609TIP3    H247319   3.146   4.297  16.315  0.4589  1.1486 -0.3691
 8610TIP3   OH247320   3.624   5.117   1.208 -0.8289  0.0730 -0.4134
 8610TIP3    H147321   3.670   5.114   1.125 -1.7147 -2.0530 -0.8808
 8610TIP3    H247322   3.578   5.202   1.208  0.4177  0.7719 -1.3573
 8611TIP3   OH247323   2.575   2.663   6.410 -0.1109  0.6511 -0.1129
 8611TIP3    H147324   2.663   2.637   6.384 -1.1251 -1.5513 -1.6199
 8611TIP3    H247325   2.520   2.646   6.333 -2.1058  0.5286  1.2506
 8612TIP3   OH247326   0.624   4.360   0.626 -0.1186  0.4643 -0.3292
 8612TIP3    H147327   0.686   4.431   0.637  0.6569 -0.2866  0.2896
 8612TIP3    H247328   0.666   4.300   0.565  0.1805 -0.4663  0.7473
 8613TIP3   OH247329   5.037   5.444   0.571  0.3302  0.3971  0.5784
 8613TIP3    H147330   5.084   5.402   0.499 -0.8894  0.2859 -0.1879
 8613TIP3    H247331   5.071   5.402   0.650  0.5648 -0.6068 -0.0362
 8614TIP3   OH247332   0.629   6.294  13.608  0.7595  0.8179 -0.1198
 8614TIP3    H147333   0.549   6.243  13.624  0.6770  1.4049  1.5716
 8614TIP3    H247334   0.652   6.275  13.517  2.4327 -4.6540  1.0974
 8615TIP3   OH247335   5.927   1.836   6.225  0.0514  0.7735  0.1855
 8615TIP3    H147336   5.933   1.898   6.298 -0.9296 -0.2964  1.2058
 8615TIP3    H247337   6.017   1.808   6.210  0.0305 -1.1171  2.9089
 8616TIP3   OH247338   1.143   5.832   2.684 -0.4800 -0.6368 -0.0464
 8616TIP3    H147339   1.126   5.919   2.647  1.1784 -0.0313  0.5338
 8616TIP3    H247340   1.091   5.830   2.765 -1.7120 -0.7936 -0.8164
 8617TIP3   OH247341   3.828   5.048  13.307  0.6051  0.6388  0.1969
 8617TIP3    H147342   3.849   4.964  13.349 -0.2277 -0.0003 -0.5902
 8617TIP3    H247343   3.732   5.050  13.308  0.6211  1.8540  0.6843
 8618TIP3   OH247344   0.998   4.856  12.329 -0.8641 -0.5488 -0.3684
 8618TIP3    H147345   0.953   4.772  12.333 -0.6494 -0.6185  1.4611
 8618TIP3    H247346   0.933   4.919  12.361 -0.4327 -0.2911 -0.0020
 8619TIP3   OH247347   6.282   5.066   2.537 -0.1824  0.5952 -0.0276
 8619TIP3    H147348   6.282   5.069   2.633 -0.5164 -3.5409  0.2676
 8619TIP3    H247349   6.362   5.018   2.515 -0.6675  0.5347 -1.7660
 8620TIP3   OH247350   2.137   4.700  13.745 -0.1514  0.1824 -0.3092
 8620TIP3    H147351   2.201   4.632  13.725  1.0005  1.0172  0.3877
 8620TIP3    H247352   2.164   4.734  13.831 -2.6402 -0.7086  0.9320
 8621TIP3   OH247353   0.089   1.239   2.374 -0.0699 -0.0435 -0.4164
 8621TIP3    H147354   0.170   1.189   2.371 -0.3452 -0.4883 -2.8154
 8621TIP3    H247355   0.115   1.329   2.353  0.0997  0.3846  1.4560
 8622TIP3   OH247356   4.357   0.347   6.495  0.2237  0.3678  0.5184
 8622TIP3    H147357   4.264   0.327   6.482 -0.2127  3.0397 -1.1795
 8622TIP3    H247358   4.402   0.290   6.433 -0.2032 -1.0878  1.4864
 8623TIP3   OH247359   6.117   0.261   2.672  0.2225  0.4925  0.4519
 8623TIP3    H147360   6.108   0.355   2.690  2.6173  1.1036 -1.1403
 8623TIP3    H247361   6.152   0.225   2.754 -0.7819  0.9208  1.1019
 8624TIP3   OH247362   4.220   3.563  14.060 -0.1735 -0.1673 -0.0756
 8624TIP3    H147363   4.257   3.610  14.134 -1.0226  0.1768  0.1495
 8624TIP3    H247364   4.131   3.598  14.052 -2.0612 -3.8299  2.0868
 8625TIP3   OH247365   0.439   6.129  10.735  0.5663 -0.2979  0.2864
 8625TIP3    H147366   0.491   6.073  10.678  0.2875  0.7124 -0.9963
 8625TIP3    H247367   0.424   6.209  10.685  1.5094  1.2395  2.3013
 8626TIP3   OH247368   0.208   3.965   4.510  0.1498  0.3791 -0.2189
 8626TIP3    H147369   0.143   3.956   4.440  1.2033 -0.1329 -1.1613
 8626TIP3    H247370   0.215   3.878   4.548 -2.4223  1.1958  2.4424
 8627TIP3   OH247371   6.378   4.410   0.138 -0.0059 -0.3751 -0.5724
 8627TIP3    H147372   6.320   4.382   0.067 -0.1621 -0.8848 -0.2522
 8627TIP3    H247373   6.369   4.341   0.204 -0.6707  0.6164  0.3979
 8628TIP3   OH247374   0.069   3.792  12.791  0.4405  0.0131 -0.4769
 8628TIP3    H147375   0.139   3.728  12.778  1.7269  1.2683 -0.0532
 8628TIP3    H247376  -0.003   3.741  12.828  1.2901 -1.2509 -0.4856
 8629TIP3   OH247377   0.298   6.311   4.638 -0.0417  0.0850  0.4577
 8629TIP3    H147378   0.319   6.228   4.682  0.9959  0.1108  0.0413
 8629TIP3    H247379   0.276   6.371   4.709 -1.5400 -0.7148  0.7358
 8630TIP3   OH247380   0.326   4.735  16.537 -0.1618  0.4207 -0.2762
 8630TIP3    H147381   0.341   4.711  16.629  1.9618 -1.7295 -1.0873
 8630TIP3    H247382   0.333   4.831  16.536  0.7481  0.4177  1.6356
 8631TIP3   OH247383   2.797   5.360   1.182  0.1248 -0.0759  0.2500
 8631TIP3    H147384   2.721   5.302   1.181  0.0130  0.0688  0.3368
 8631TIP3    H247385   2.867   5.309   1.141 -0.6191  0.6148 -2.0439
 8632TIP3   OH247386   2.341   0.444  12.553 -0.0959 -0.0466 -0.0789
 8632TIP3    H147387   2.387   0.361  12.541 -0.6230 -0.2946 -0.4561
 8632TIP3    H247388   2.410   0.511  12.552  0.4452 -0.5672  1.3967
 8633TIP3   OH247389   6.375   6.481  11.766 -0.0872 -0.2100 -0.1567
 8633TIP3    H147390   6.314   6.514  11.832  1.0108  2.2792 -0.2438
 8633TIP3    H247391   6.329   6.490  11.683  0.0752  0.8831 -0.1421
 8634TIP3   OH247392   6.559   3.780  11.961  0.1197 -0.1607 -0.1811
 8634TIP3    H147393   6.467   3.775  11.985  0.1920 -0.9394 -0.0589
 8634TIP3    H247394   6.575   3.701  11.910  0.2712  0.8485 -1.7807
 8635TIP3   OH247395   5.932   5.884   4.413 -0.3094  0.0106  0.2771
 8635TIP3    H147396   6.008   5.891   4.471  0.6746  2.3701 -1.1603
 8635TIP3    H247397   5.969   5.868   4.326 -1.6568 -1.6204 -0.0568
 8636TIP3   OH247398   4.444   4.195   4.895  0.4315  0.2103 -0.1996
 8636TIP3    H147399   4.509   4.135   4.858 -0.7894 -0.4288 -1.4199
 8636TIP3    H247400   4.485   4.281   4.890  0.9404 -0.0840 -1.6150
 8637TIP3   OH247401   5.653   6.588   4.144 -0.0766 -0.0659 -0.1957
 8637TIP3    H147402   5.618   6.668   4.106 -0.5874 -0.2131 -0.0437
 8637TIP3    H247403   5.597   6.571   4.220  1.2527  0.5245  0.9642
 8638TIP3   OH247404   6.352   6.173  15.829  0.0248  0.3575  0.4820
 8638TIP3    H147405   6.377   6.216  15.911 -1.4267  1.7343  0.2629
 8638TIP3    H247406   6.302   6.096  15.857  1.1430 -0.2613  0.8681
 8639TIP3   OH247407   1.966   1.418   3.843 -0.7401  0.3339 -0.0457
 8639TIP3    H147408   1.968   1.455   3.754 -1.1421 -0.6431 -0.4814
 8639TIP3    H247409   1.872   1.414   3.864 -0.6348  0.7730  0.5273
 8640TIP3   OH247410   1.248   1.004  16.313 -0.7037  0.1396  0.0055
 8640TIP3    H147411   1.168   1.032  16.357 -0.9807  1.7815 -1.4430
 8640TIP3    H247412   1.317   1.018  16.378 -1.4948 -0.7570  1.0755
 8641TIP3   OH247413   2.918   4.052   1.867  0.2075 -0.2022 -0.0896
 8641TIP3    H147414   2.961   4.069   1.783 -0.3797  0.1526 -0.3185
 8641TIP3    H247415   2.982   4.000   1.916  0.1951 -1.1823 -1.0880
 8642TIP3   OH247416   6.802   4.128  16.723 -0.1254 -0.2974 -0.2939
 8642TIP3    H147417   6.889   4.096  16.747  0.4108  1.4376  0.1936
 8642TIP3    H247418   6.809   4.146  16.629 -0.6957 -2.2849 -0.7811
 8643TIP3   OH247419   1.821   1.014  16.955 -0.6200 -0.3995 -0.1688
 8643TIP3    H147420   1.795   0.924  16.979  0.8034 -0.5670  0.8614
 8643TIP3    H247421   1.916   1.016  16.967 -0.6065  1.2138 -0.3159
 8644TIP3   OH247422   5.567   6.139   1.596 -0.0294 -0.5754  0.1431
 8644TIP3    H147423   5.506   6.173   1.530  0.5156  1.3003  0.5292
 8644TIP3    H247424   5.516   6.135   1.677 -0.1176 -0.7603  0.0785
 8645TIP3   OH247425   5.289   6.468   5.574 -0.8164 -0.4751 -0.3046
 8645TIP3    H147426   5.382   6.447   5.580 -0.6442  0.5654  1.2658
 8645TIP3    H247427   5.266   6.500   5.661 -2.3642  0.4204 -1.0055
 8646TIP3   OH247428   1.853   6.132   5.840  0.5977  0.5781 -0.4906
 8646TIP3    H147429   1.925   6.072   5.858  1.2796  1.5756  0.2445
 8646TIP3    H247430   1.784   6.106   5.900 -0.1135 -1.0784 -1.9419
 8647TIP3   OH247431   3.279   2.480   0.816  0.7881  0.0009 -0.1427
 8647TIP3    H147432   3.195   2.444   0.846  0.2099  0.7315 -0.8046
 8647TIP3    H247433   3.331   2.404   0.791  0.0347 -0.4342 -0.4151
 8648TIP3   OH247434   5.693   5.864   0.427  0.2555 -0.0277 -0.6653
 8648TIP3    H147435   5.718   5.813   0.504 -0.3792 -0.1925 -0.5710
 8648TIP3    H247436   5.674   5.799   0.359  0.4766  0.1096 -0.8615
 8649TIP3   OH247437   4.404   6.304  10.905 -0.0098  0.6679 -0.1960
 8649TIP3    H147438   4.464   6.267  10.841 -0.0600  0.4243 -0.1006
 8649TIP3    H247439   4.441   6.390  10.925 -0.7772  1.3658 -1.6415
 8650TIP3   OH247440   4.877   0.360  13.148  0.3675 -0.4791 -0.4975
 8650TIP3    H147441   4.841   0.328  13.065 -0.4131  1.4276 -0.9374
 8650TIP3    H247442   4.802   0.362  13.207  0.4734  0.2263 -0.3847
 8651TIP3   OH247443   1.754   3.020   2.019  0.3329 -0.0158  0.2639
 8651TIP3    H147444   1.817   3.089   2.042  0.8541 -0.6713  0.8374
 8651TIP3    H247445   1.679   3.068   1.984  1.2707  0.7765 -0.7875
 8652TIP3   OH247446   6.372   2.235   2.405  0.2301  0.1684 -0.0847
 8652TIP3    H147447   6.462   2.252   2.434 -0.7964  4.1601  1.4564
 8652TIP3    H247448   6.359   2.297   2.333 -1.5310  0.3457  0.3514
 8653TIP3   OH247449   3.751   6.094  11.587 -0.7628 -0.0189  0.3773
 8653TIP3    H147450   3.795   6.020  11.545 -1.9633 -2.2780  2.7889
 8653TIP3    H247451   3.821   6.145  11.626  0.1010  0.1463 -1.3226
 8654TIP3   OH247452   6.059   1.181   3.645 -0.6225 -0.2501 -0.3987
 8654TIP3    H147453   6.099   1.158   3.562  1.0940  1.3867 -0.1108
 8654TIP3    H247454   6.093   1.269   3.664 -2.8654  0.4204  0.8629
 8655TIP3   OH247455   0.069   5.132   1.230 -0.0057  0.1170  0.0919
 8655TIP3    H147456   0.146   5.184   1.207 -1.0260  1.9432  0.6105
 8655TIP3    H247457   0.104   5.055   1.276  1.5846 -0.0445 -1.3116
 8656TIP3   OH247458   1.450   2.687  13.800 -0.3362  0.5785  0.1257
 8656TIP3    H147459   1.462   2.593  13.781 -1.9412  0.3947 -0.1659
 8656TIP3    H247460   1.506   2.731  13.736 -0.0155 -0.1709 -0.1272
 8657TIP3   OH247461   6.166   2.407   4.027  0.9616  0.0859 -0.2932
 8657TIP3    H147462   6.149   2.496   4.058 -2.6810  0.3505 -2.4694
 8657TIP3    H247463   6.080   2.367   4.020  2.0342 -2.0704 -3.6911
 8658TIP3   OH247464   0.488   2.784  12.992  0.1100 -0.3816 -0.0376
 8658TIP3    H147465   0.503   2.695  12.961 -0.3856 -0.3929 -0.2550
 8658TIP3    H247466   0.488   2.777  13.087 -2.4242 -1.0800 -0.0125
 8659TIP3   OH247467   2.770   2.119  14.586  0.1602 -0.0024  0.0917
 8659TIP3    H147468   2.805   2.205  14.608 -1.9533  0.9886 -0.0907
 8659TIP3    H247469   2.737   2.084  14.669 -3.5336  1.6786 -0.4383
 8660TIP3   OH247470   1.189   2.792  17.012  0.3270  0.4497  0.3075
 8660TIP3    H147471   1.211   2.781  16.920  0.8133 -0.2788  0.5062
 8660TIP3    H247472   1.095   2.774  17.017  0.5809 -1.0307  0.1878
 8661TIP3   OH247473   2.786   2.889  15.955  0.0706 -0.2297 -0.0772
 8661TIP3    H147474   2.769   2.844  15.873 -0.2820 -2.2018  1.0115
 8661TIP3    H247475   2.827   2.972  15.929  2.2478 -1.8150 -2.1548
 8662TIP3   OH247476   1.579   6.054  12.288 -0.0055 -0.4607 -0.1899
 8662TIP3    H147477   1.668   6.078  12.261 -0.3973  0.4793 -0.6943
 8662TIP3    H247478   1.582   6.054  12.383  0.3724  0.2438 -0.1938
 8663TIP3   OH247479   1.098   5.872  16.693  0.2132 -0.0732  0.1703
 8663TIP3    H147480   1.047   5.927  16.752 -0.2312 -0.3927  0.0850
 8663TIP3    H247481   1.095   5.785  16.732  0.9024 -0.0479  0.2989
 8664TIP3   OH247482   6.488   5.341  15.906  0.3379 -0.0591 -0.1413
 8664TIP3    H147483   6.484   5.370  15.814 -0.5562  1.1659  0.2510
 8664TIP3    H247484   6.531   5.413  15.952  0.1972 -0.3764  0.4955
 8665TIP3   OH247485   4.014   5.571  13.385  0.3705 -0.7710 -0.0473
 8665TIP3    H147486   4.069   5.622  13.326  2.2914 -1.4895  1.0216
 8665TIP3    H247487   3.942   5.540  13.331 -0.3932  2.2534 -0.9345
 8666TIP3   OH247488   5.631   0.192  10.246 -0.1363 -0.4180  0.0516
 8666TIP3    H147489   5.719   0.170  10.278 -0.3335  1.3949  2.1059
 8666TIP3    H247490   5.603   0.264  10.302 -2.4638 -0.1184 -1.3730
 8667TIP3   OH247491   6.554   5.166   1.634 -0.4909  0.4419  0.0146
 8667TIP3    H147492   6.601   5.162   1.551  1.7058 -2.1223  1.1989
 8667TIP3    H247493   6.463   5.147   1.611  0.0119  0.0426 -1.8286
 8668TIP3   OH247494   0.235   5.440  11.212 -0.0407 -0.4111  1.2530
 8668TIP3    H147495   0.306   5.441  11.148  0.3461  1.3573  1.6565
 8668TIP3    H247496   0.158   5.469  11.163 -0.0546 -0.4297  1.2639
 8669TIP3   OH247497   3.781   4.564  15.844 -1.0042  0.6329  0.3719
 8669TIP3    H147498   3.712   4.551  15.778 -0.6860 -2.4827  0.5268
 8669TIP3    H247499   3.855   4.600  15.794 -0.2562 -2.9721 -1.4651
 8670TIP3   OH247500   2.385   4.797   4.425 -0.2150  0.0322  0.2578
 8670TIP3    H147501   2.322   4.860   4.392 -0.1849 -0.2124 -0.2844
 8670TIP3    H247502   2.353   4.712   4.394 -0.4490 -0.2664  1.2732
 8671TIP3   OH247503   0.634   6.331   0.367  0.1920 -0.4296  0.2456
 8671TIP3    H147504   0.653   6.385   0.291 -0.5092 -1.7130 -0.8817
 8671TIP3    H247505   0.720   6.312   0.406  0.4949  0.7973  0.1968
 8672TIP3   OH247506   0.780   1.841  14.990 -0.0554  0.2555  0.4757
 8672TIP3    H147507   0.829   1.852  14.908  0.6925  0.4482  0.9338
 8672TIP3    H247508   0.788   1.748  15.010 -0.9103  0.0548 -0.0694
 8673TIP3   OH247509   6.420   6.269  13.069  0.0464 -0.0481 -0.7048
 8673TIP3    H147510   6.401   6.177  13.089  0.2220  0.0713  0.0521
 8673TIP3    H247511   6.444   6.269  12.976  0.6262 -0.8547 -0.5612
 8674TIP3   OH247512   1.030   4.146   6.324 -0.2634  0.0806  0.7453
 8674TIP3    H147513   1.055   4.057   6.298  1.3473  1.4775 -3.1800
 8674TIP3    H247514   0.937   4.151   6.305 -0.2688 -0.6220  0.5558
 8675TIP3   OH247515   6.705   5.806  16.379 -0.3139 -0.2299  0.0608
 8675TIP3    H147516   6.767   5.738  16.407 -0.2181 -0.3939 -0.5512
 8675TIP3    H247517   6.736   5.834  16.293 -0.8368  0.0003 -0.0582
 8676TIP3   OH247518   2.510   1.737  15.304 -0.0230  0.0497 -0.3411
 8676TIP3    H147519   2.567   1.663  15.286  1.6391  0.3983  2.8033
 8676TIP3    H247520   2.539   1.805  15.243  0.1641 -1.0066 -1.4857
 8677TIP3   OH247521   2.378   4.262   4.765  0.7714  0.2102 -0.5141
 8677TIP3    H147522   2.283   4.255   4.752  0.6762  1.6055 -0.7635
 8677TIP3    H247523   2.394   4.223   4.851 -0.1726  0.8197 -0.0468
 8678TIP3   OH247524   5.512   5.698   4.053 -0.3792 -0.0502  0.2006
 8678TIP3    H147525   5.570   5.762   4.094  1.4509 -2.1052  0.9894
 8678TIP3    H247526   5.451   5.673   4.122  0.1610 -0.5798  0.4923
 8679TIP3   OH247527   1.677   1.218   4.786 -0.0622  0.4692 -0.3444
 8679TIP3    H147528   1.689   1.166   4.706 -2.2310 -1.6682  0.6099
 8679TIP3    H247529   1.754   1.198   4.839  0.1465 -0.1227 -0.8575
 8680TIP3   OH247530   2.374   1.442  11.047 -0.3670  0.2017 -0.1090
 8680TIP3    H147531   2.467   1.424  11.058 -0.4069 -1.1115 -1.4894
 8680TIP3    H247532   2.368   1.484  10.961 -0.9834  0.8578  0.2495
 8681TIP3   OH247533   1.615   2.703  14.329  0.1712 -0.0984 -0.0960
 8681TIP3    H147534   1.546   2.673  14.270  0.9612 -3.2763  0.3981
 8681TIP3    H247535   1.579   2.690  14.417  0.5435  0.5493  0.1598
 8682TIP3   OH247536   5.473   0.351   1.400  0.1286  0.0801 -0.8145
 8682TIP3    H147537   5.555   0.323   1.441 -0.4616  1.0542  1.1151
 8682TIP3    H247538   5.435   0.270   1.366  1.0535 -0.6325 -0.2050
 8683TIP3   OH247539   3.666   2.854  10.837  0.4907 -0.6256 -0.3835
 8683TIP3    H147540   3.637   2.821  10.752 -0.6284 -1.0937  0.1517
 8683TIP3    H247541   3.725   2.926  10.817  0.7287 -1.1363 -1.5571
 8684TIP3   OH247542   3.088   3.019   1.172 -0.2670 -0.1292 -0.1113
 8684TIP3    H147543   3.055   3.085   1.111 -0.2706 -0.6454 -0.6827
 8684TIP3    H247544   3.009   2.978   1.207 -0.3318  1.3409  1.6100
 8685TIP3   OH247545   1.197   1.394   0.048 -0.1763 -0.1083 -0.0545
 8685TIP3    H147546   1.252   1.452   0.101  0.8000 -0.9000 -0.1669
 8685TIP3    H247547   1.247   1.312   0.043  1.3538  0.8263 -4.7879
 8686TIP3   OH247548   4.880   5.992   6.298  0.9583  0.3682  0.4597
 8686TIP3    H147549   4.966   5.970   6.262  1.5111  1.1372  1.2770
 8686TIP3    H247550   4.847   5.909   6.335  0.1375 -0.5948 -2.1726
 8687TIP3   OH247551   6.215   1.468  10.483 -0.2070  0.7979 -0.3457
 8687TIP3    H147552   6.271   1.536  10.520 -0.6284  0.6418  0.6078
 8687TIP3    H247553   6.127   1.505  10.487 -0.5071  0.0285  0.6456
 8688TIP3   OH247554   0.283   1.895  11.191  0.3791 -0.1902  0.6846
 8688TIP3    H147555   0.336   1.907  11.112 -0.0430  0.4786  0.4907
 8688TIP3    H247556   0.246   1.807  11.182  1.3532 -0.6265  0.7714
 8689TIP3   OH247557   5.982   3.286  11.387 -0.1098 -0.6102  1.1918
 8689TIP3    H147558   6.030   3.369  11.394 -0.9709  0.1927 -1.2767
 8689TIP3    H247559   6.048   3.222  11.361 -0.2362  0.7171 -3.4214
 8690TIP3   OH247560   1.088   2.791   5.287 -0.5597 -0.4361  0.7273
 8690TIP3    H147561   1.016   2.847   5.317  0.8026  1.6218  0.3721
 8690TIP3    H247562   1.129   2.841   5.217  0.9845 -1.7275  0.6568
 8691TIP3   OH247563   5.986   4.573  10.572 -0.7336  0.1250  0.1681
 8691TIP3    H147564   6.063   4.531  10.612 -0.1262 -0.5586 -1.6290
 8691TIP3    H247565   5.965   4.645  10.631  1.3433  0.3867  0.6682
 8692TIP3   OH247566   6.000   3.981   5.030  0.2936  0.5310 -0.4009
 8692TIP3    H147567   5.936   4.052   5.027  1.6856  1.8181 -1.8782
 8692TIP3    H247568   5.967   3.921   5.097 -1.0853  2.4294  0.7124
 8693TIP3   OH247569   6.556   2.755  13.724 -0.1959  0.5848 -0.3628
 8693TIP3    H147570   6.525   2.818  13.660 -0.0993 -0.2876 -1.2999
 8693TIP3    H247571   6.493   2.683  13.719  0.1644  0.2337  0.0781
 8694TIP3   OH247572   4.729   1.176  13.802  0.1377  0.1035  0.8200
 8694TIP3    H147573   4.742   1.262  13.841  0.7227 -0.1042  1.0968
 8694TIP3    H247574   4.713   1.193  13.709  2.9367  0.3794  0.3233
 8695TIP3   OH247575   0.796   2.424   0.233 -0.0666  0.5650  0.2247
 8695TIP3    H147576   0.853   2.388   0.301  0.5368  1.2564  0.0974
 8695TIP3    H247577   0.819   2.376   0.154 -0.6358 -0.1076  0.4545
 8696TIP3   OH247578   2.124   6.463   5.918  0.0209 -0.4062  0.6481
 8696TIP3    H147579   2.114   6.391   5.855  2.1029 -0.9079  0.8331
 8696TIP3    H247580   2.184   6.524   5.875  0.4895 -0.1569  1.6466
 8697TIP3   OH247581   2.506   0.911  15.695 -0.1778 -0.0702  0.1155
 8697TIP3    H147582   2.517   0.849  15.767 -0.3222  0.9490  1.0430
 8697TIP3    H247583   2.476   0.857  15.622 -2.2334 -0.8476  1.4267
 8698TIP3   OH247584   6.729   3.202  15.602 -0.2905  0.8720 -0.2555
 8698TIP3    H147585   6.800   3.258  15.633 -2.4313  3.2644  0.7101
 8698TIP3    H247586   6.707   3.237  15.515  0.4193 -0.6306 -1.0854
 8699TIP3   OH247587   2.416   1.143   2.177  0.5383 -0.5896 -0.1547
 8699TIP3    H147588   2.326   1.139   2.144  0.6956  0.9012 -0.8528
 8699TIP3    H247589   2.454   1.058   2.153  0.0199 -0.3394 -2.0340
 8700TIP3   OH247590   1.431   0.039  14.112  0.2983 -0.0071 -0.0044
 8700TIP3    H147591   1.514   0.086  14.106  0.1999  0.0778 -0.9102
 8700TIP3    H247592   1.453  -0.044  14.155  0.8794 -0.0484 -0.3725
 8701TIP3   OH247593   4.794   5.530   3.580 -0.4190 -0.0623 -0.4889
 8701TIP3    H147594   4.846   5.464   3.627 -1.4691 -0.7547 -0.2724
 8701TIP3    H247595   4.816   5.613   3.623 -0.6000 -0.5476  0.5625
 8702TIP3   OH247596   0.958   0.454  16.964  0.1215 -0.0171  0.2429
 8702TIP3    H147597   0.975   0.546  16.943 -1.6504  0.3382  0.2360
 8702TIP3    H247598   0.966   0.408  16.881  0.5792  0.1822  0.1729
 8703TIP3   OH247599   1.661   3.095  16.259  0.5381 -0.1118  0.3539
 8703TIP3    H147600   1.674   3.189  16.258 -0.4841  0.0449 -1.5724
 8703TIP3    H247601   1.577   3.082  16.304  0.0360  0.0016 -0.5437
 8704TIP3   OH247602   5.104   1.669   3.006  0.6127  0.2029  0.9564
 8704TIP3    H147603   5.172   1.666   3.073 -0.0510  0.9457  1.6710
 8704TIP3    H247604   5.141   1.725   2.937  0.3886  1.3528  1.7440
 8705TIP3   OH247605   2.825   3.959   4.451  0.0916 -0.0017  0.1204
 8705TIP3    H147606   2.858   3.936   4.538  0.4792  0.9923  0.2453
 8705TIP3    H247607   2.873   3.902   4.391 -0.1550 -0.6710  0.5511
 8706TIP3   OH247608   3.978   6.688  11.470 -0.2380 -0.1648  0.2493
 8706TIP3    H147609   3.883   6.686  11.478 -0.8252  1.8439 -3.7873
 8706TIP3    H247610   4.004   6.773  11.508 -0.2139 -0.2103  0.3343
 8707TIP3   OH247611   4.052   0.521   1.324 -0.7689  0.2266 -0.0134
 8707TIP3    H147612   4.024   0.560   1.407  1.5292 -0.4319  1.1525
 8707TIP3    H247613   3.980   0.462   1.301 -1.0795 -0.3009  2.0485
 8708TIP3   OH247614   4.386   6.132   3.567  0.4276  0.1036 -0.6623
 8708TIP3    H147615   4.408   6.039   3.576 -2.9199 -0.7686 -0.3735
 8708TIP3    H247616   4.314   6.134   3.504 -0.8429  2.2767  0.7364
 8709TIP3   OH247617   1.351   3.040   1.610 -0.1227  0.8373  0.0733
 8709TIP3    H147618   1.314   3.115   1.656  1.0804  1.2587  0.3810
 8709TIP3    H247619   1.305   3.039   1.525 -1.9297  0.4071  1.0114
 8710TIP3   OH247620   4.141   5.925   3.805  0.3195 -0.5127  0.3385
 8710TIP3    H147621   4.202   5.874   3.752 -1.3776 -0.8366 -1.4177
 8710TIP3    H247622   4.196   5.989   3.849  1.8006  0.4707 -2.6291
 8711TIP3   OH247623   5.323   0.354   2.435 -0.1074 -0.5915  0.5468
 8711TIP3    H147624   5.250   0.312   2.480 -0.4255 -1.5952 -0.8207
 8711TIP3    H247625   5.292   0.443   2.418 -1.4887 -1.2836 -0.9076
 8712TIP3   OH247626   4.343   4.553   3.610 -0.1938 -0.1120 -0.4297
 8712TIP3    H147627   4.389   4.469   3.605 -0.2824 -0.1203 -1.0788
 8712TIP3    H247628   4.372   4.590   3.694 -0.6970 -1.1010  0.2039
 8713TIP3   OH247629   5.380   1.791   3.391 -0.0296  0.9266 -0.1880
 8713TIP3    H147630   5.449   1.759   3.449 -1.2340  0.8231  1.2787
 8713TIP3    H247631   5.388   1.887   3.393  0.5576  0.8881 -0.6646
 8714TIP3   OH247632   0.574   0.870   5.294  0.0891  0.0196 -0.4455
 8714TIP3    H147633   0.530   0.799   5.247  1.4814 -0.8480 -0.5039
 8714TIP3    H247634   0.665   0.865   5.265  1.0397 -0.5880  2.2871
 8715TIP3   OH247635   3.960   2.650   6.360  0.0243 -0.4314 -0.3832
 8715TIP3    H147636   4.038   2.600   6.381 -0.2345 -2.3027 -3.2815
 8715TIP3    H247637   3.887   2.590   6.377 -0.5713  0.2457 -0.4837
 8716TIP3   OH247638   2.741   1.022  11.618  0.0285  0.2594 -0.2784
 8716TIP3    H147639   2.713   0.960  11.686  0.6449  0.0196 -0.2346
 8716TIP3    H247640   2.819   0.981  11.579 -0.8253 -0.0297 -1.7344
 8717TIP3   OH247641   6.376   3.960  16.471  0.4807  0.3061 -0.5600
 8717TIP3    H147642   6.363   4.053  16.452  0.6613  0.6164  0.7598
 8717TIP3    H247643   6.290   3.929  16.500  0.6235  0.2788 -0.1567
 8718TIP3   OH247644   4.223   2.548   6.384 -0.0570 -0.2580  0.0599
 8718TIP3    H147645   4.275   2.624   6.409  0.1616 -0.8439  1.4523
 8718TIP3    H247646   4.282   2.473   6.396 -0.0498 -0.6261 -1.9190
 8719TIP3   OH247647   4.529   5.056   0.146  0.2315  0.1844  0.2008
 8719TIP3    H147648   4.485   5.037   0.063 -0.0917 -0.9033  0.6030
 8719TIP3    H247649   4.621   5.035   0.129  0.0226 -0.9138  0.3673
 8720TIP3   OH247650   1.222   6.200  15.314  0.0040 -0.1713 -0.0033
 8720TIP3    H147651   1.175   6.217  15.396  0.5649 -0.1790  0.3320
 8720TIP3    H247652   1.234   6.105  15.312 -0.6341 -0.2443 -0.4532
 8721TIP3   OH247653   2.471   5.609  14.031 -0.0091 -0.2764 -0.1887
 8721TIP3    H147654   2.513   5.638  14.112  1.5540 -1.1586 -0.6370
 8721TIP3    H247655   2.518   5.655  13.962 -0.1953 -0.7999 -0.6732
 8722TIP3   OH247656   0.201   4.974  12.033 -0.4454 -0.1529  0.4076
 8722TIP3    H147657   0.167   4.886  12.052  1.1188 -1.0648 -0.6935
 8722TIP3    H247658   0.257   4.995  12.108 -0.5635 -0.2484  0.5226
 8723TIP3   OH247659   2.683   0.307  16.879 -0.2042  0.3630  0.6038
 8723TIP3    H147660   2.666   0.380  16.939 -1.2218  1.2428 -0.6990
 8723TIP3    H247661   2.770   0.326  16.843  0.2681  0.0057  1.5116
 8724TIP3   OH247662   0.182   0.560  13.102 -0.5880  0.0926  0.3534
 8724TIP3    H147663   0.138   0.481  13.134  0.9057 -1.0103 -0.1676
 8724TIP3    H247664   0.155   0.567  13.010 -1.0443  0.4307  0.5127
 8725TIP3   OH247665   6.787   1.482  12.139  0.4587  0.3644 -0.0724
 8725TIP3    H147666   6.718   1.431  12.096 -0.3720  0.9218  0.5738
 8725TIP3    H247667   6.831   1.528  12.067 -0.2689  0.5092 -0.4328
 8726TIP3   OH247668   0.889   4.287   5.300 -0.5543  0.0193  0.4501
 8726TIP3    H147669   0.924   4.376   5.311 -2.3790  1.0617 -1.2663
 8726TIP3    H247670   0.810   4.286   5.353 -2.0591  0.4813 -1.6224
 8727TIP3   OH247671   4.946   5.428  15.543  0.4224  0.0625  0.8052
 8727TIP3    H147672   4.890   5.502  15.570 -0.2503 -0.0282 -0.2758
 8727TIP3    H247673   4.904   5.351  15.581 -0.4313 -0.0479 -0.3205
 8728TIP3   OH247674   6.061   1.880  11.206  0.3810 -0.3283 -0.7881
 8728TIP3    H147675   6.001   1.847  11.273  0.8365  0.8466  0.2307
 8728TIP3    H247676   6.056   1.815  11.135 -0.8876 -1.0611 -0.0622
 8729TIP3   OH247677   6.274   2.402   5.741  0.3584 -0.4288  0.5074
 8729TIP3    H147678   6.192   2.370   5.704  0.6725 -1.5139  0.7060
 8729TIP3    H247679   6.259   2.495   5.756  0.1494  0.0528 -2.1556
 8730TIP3   OH247680   4.564   3.859   5.821  0.4249 -0.1536 -0.5684
 8730TIP3    H147681   4.552   3.766   5.838 -0.2599  0.2740  1.5359
 8730TIP3    H247682   4.658   3.871   5.811  0.6412 -0.8825  0.4995
 8731TIP3   OH247683   4.219   1.667  13.618 -0.3225  0.2258 -0.3470
 8731TIP3    H147684   4.176   1.585  13.593 -1.7726  0.6546  0.6154
 8731TIP3    H247685   4.304   1.640  13.653  0.0098 -0.6947 -1.7830
 8732TIP3   OH247686   5.008   3.571  16.695 -0.1769  0.0465 -0.5530
 8732TIP3    H147687   5.043   3.544  16.780 -0.3069  0.3177 -0.4135
 8732TIP3    H247688   5.083   3.606  16.648 -0.5448  2.3015  0.4011
 8733TIP3   OH247689   3.400   0.035   4.314  0.9253  0.5435  0.8672
 8733TIP3    H147690   3.332   0.095   4.284 -0.4972 -1.7342 -0.7238
 8733TIP3    H247691   3.388  -0.044   4.261  3.6641 -0.6286  1.8159
 8734TIP3   OH247692   4.470   6.544  12.482  0.8427  0.0627 -0.0962
 8734TIP3    H147693   4.457   6.526  12.575 -1.5123  0.3548 -0.3064
 8734TIP3    H247694   4.465   6.640  12.475 -0.5723 -0.0248 -0.6753
 8735TIP3   OH247695   5.428   3.672  15.390 -0.0973 -0.5090  0.2727
 8735TIP3    H147696   5.371   3.723  15.447  1.6403  0.5713  1.1357
 8735TIP3    H247697   5.391   3.584  15.390 -1.7495  0.1598  0.7615
 8736TIP3   OH247698   2.166   1.969   0.964 -0.1782  0.2641  0.0704
 8736TIP3    H147699   2.151   1.960   1.058  0.2398  0.2090  0.1361
 8736TIP3    H247700   2.254   1.934   0.951 -1.0010 -1.7127 -0.6580
 8737TIP3   OH247701   4.373   5.111  17.117 -0.1539  0.2209 -0.1692
 8737TIP3    H147702   4.424   5.172  17.064  1.3606 -0.3171  0.6237
 8737TIP3    H247703   4.322   5.167  17.175  0.3714  0.7637 -0.2208
 8738TIP3   OH247704   5.214   6.492   4.061 -0.3213 -0.1511  0.3457
 8738TIP3    H147705   5.294   6.529   4.023 -0.0307 -1.8876 -0.9019
 8738TIP3    H247706   5.224   6.503   4.155  0.3415  1.6577  0.0988
 8739TIP3   OH247707   5.570   5.709  12.220 -0.1502  0.5466 -0.2319
 8739TIP3    H147708   5.597   5.617  12.216 -1.7337  0.0547 -0.2807
 8739TIP3    H247709   5.637   5.756  12.170  0.6633 -0.5740 -0.2421
 8740TIP3   OH247710   4.485   1.524   0.673  0.5149 -0.0089  0.8936
 8740TIP3    H147711   4.396   1.525   0.708  0.1839  2.5358  0.1760
 8740TIP3    H247712   4.473   1.527   0.578  1.4288 -1.7745  0.6686
 8741TIP3   OH247713   4.792   4.370  14.723 -0.4515 -0.8226 -0.4175
 8741TIP3    H147714   4.854   4.429  14.764 -1.4837  0.4502 -0.6348
 8741TIP3    H247715   4.763   4.312  14.793 -0.3308 -0.2919  0.0749
 8742TIP3   OH247716   5.401   3.862  16.696  0.9082  0.0611  0.4115
 8742TIP3    H147717   5.356   3.919  16.759 -0.9007 -0.8241 -0.0007
 8742TIP3    H247718   5.463   3.919  16.651 -2.5994  2.5175 -1.8571
 8743TIP3   OH247719   2.354   6.527  17.111 -0.0149 -0.2948 -0.2648
 8743TIP3    H147720   2.283   6.464  17.113 -0.9403  0.7291  0.4830
 8743TIP3    H247721   2.326   6.597  17.171  1.3040  0.4635 -0.4860
 8744TIP3   OH247722   6.069   4.624  12.742 -0.3243  0.1445  0.3207
 8744TIP3    H147723   6.065   4.540  12.696  0.6221  0.4309 -0.3095
 8744TIP3    H247724   6.024   4.685  12.683 -0.6609  0.1616  0.5943
 8745TIP3   OH247725   4.129   5.693  11.888 -0.7789 -0.2172  0.7022
 8745TIP3    H147726   4.113   5.667  11.797 -1.6179 -1.0943  1.0875
 8745TIP3    H247727   4.124   5.789  11.887  2.0463  0.0276 -0.6906
 8746TIP3   OH247728   2.391   1.612  11.444  0.0407 -0.0120 -0.3204
 8746TIP3    H147729   2.368   1.686  11.500  0.2795 -0.0499 -0.1748
 8746TIP3    H247730   2.334   1.623  11.367  0.1783  0.4050 -0.3654
 8747TIP3   OH247731   1.708   4.117   2.335 -0.0400  0.3400 -0.1044
 8747TIP3    H147732   1.726   4.142   2.245 -1.0971  0.5814 -0.2619
 8747TIP3    H247733   1.614   4.098   2.337  0.4060 -2.2511  0.3204
 8748TIP3   OH247734   1.193   5.932   0.605 -0.2992 -0.2680  0.1269
 8748TIP3    H147735   1.243   5.955   0.683  1.1835 -1.3907 -0.4500
 8748TIP3    H247736   1.168   5.841   0.618  1.7546 -1.1657 -1.5291
 8749TIP3   OH247737   5.415   4.318   3.719 -0.7018 -0.4488  0.6046
 8749TIP3    H147738   5.330   4.323   3.763 -0.3746 -0.1597  1.2024
 8749TIP3    H247739   5.463   4.249   3.766  0.5260  1.4367  2.2577
 8750TIP3   OH247740   4.408   3.791   5.375 -0.0279 -0.4864  0.5607
 8750TIP3    H147741   4.316   3.801   5.349  0.4850 -0.4289 -1.3817
 8750TIP3    H247742   4.425   3.867   5.431 -1.7772 -1.7481  2.9827
 8751TIP3   OH247743   4.068   0.678   0.916  0.3651  0.3860 -0.2171
 8751TIP3    H147744   4.005   0.700   0.847  0.6408  1.0206 -0.2790
 8751TIP3    H247745   4.060   0.584   0.926 -0.3934  0.4169 -0.4228
 8752TIP3   OH247746   5.430   5.644   2.941 -0.6058 -0.4347  0.4965
 8752TIP3    H147747   5.505   5.670   2.888 -1.2372  0.4500  0.0241
 8752TIP3    H247748   5.435   5.699   3.019  0.0496 -1.3982  1.1514
 8753TIP3   OH247749   6.698   2.042   5.230 -0.2565  0.2608  0.2654
 8753TIP3    H147750   6.755   2.091   5.171  0.9263 -0.7867  0.4946
 8753TIP3    H247751   6.644   1.989   5.173  1.3707 -1.2869  0.0781
 8754TIP3   OH247752   3.903   1.944   1.353  0.1974  0.5722  0.1270
 8754TIP3    H147753   3.842   1.988   1.294 -1.3960 -0.7153  0.7711
 8754TIP3    H247754   3.956   2.016   1.389 -1.4888  1.8420  0.1987
 8755TIP3   OH247755   1.990   6.208  14.894 -0.0466  0.3329 -0.0827
 8755TIP3    H147756   2.084   6.194  14.896  0.1887  1.6210 -0.9598
 8755TIP3    H247757   1.956   6.152  14.964  1.5003  0.9252  1.2093
 8756TIP3   OH247758   1.008   4.623   3.055 -0.4366 -0.1509 -0.2487
 8756TIP3    H147759   1.070   4.687   3.020  0.2445 -0.4318  0.4148
 8756TIP3    H247760   0.922   4.660   3.037 -0.0798  2.2165  2.2922
 8757TIP3   OH247761   0.639   0.543  16.702  0.4683 -0.4166 -0.0675
 8757TIP3    H147762   0.560   0.562  16.652  1.3730  1.4300 -0.8940
 8757TIP3    H247763   0.704   0.604  16.668  1.5175 -0.0174  2.4388
 8758TIP3   OH247764   5.336   5.621  12.145 -0.1966 -0.3478 -0.2460
 8758TIP3    H147765   5.412   5.673  12.172  0.3472 -1.3500  0.2094
 8758TIP3    H247766   5.321   5.646  12.054 -0.9603  1.7931  0.4063
 8759TIP3   OH247767   4.797   3.471  15.218  0.2516 -0.7105  0.6136
 8759TIP3    H147768   4.756   3.441  15.137  0.4377 -2.4991  1.1538
 8759TIP3    H247769   4.891   3.469  15.199  0.2561  0.1744  0.4671
 8760TIP3   OH247770   4.841   5.122  15.129 -0.1369 -0.3906 -0.0069
 8760TIP3    H147771   4.866   5.166  15.210  0.5632 -1.4576  0.3778
 8760TIP3    H247772   4.885   5.172  15.060  0.4004 -0.3043  0.3916
 8761TIP3   OH247773   1.910   0.535   3.571 -0.3357 -0.4199 -0.4698
 8761TIP3    H147774   1.901   0.630   3.565 -2.0171 -0.4500  0.7042
 8761TIP3    H247775   2.003   0.521   3.591  0.2241  0.8579 -1.9634
 8762TIP3   OH247776   2.030   3.187   2.073 -0.2731  0.0582 -0.3630
 8762TIP3    H147777   2.069   3.142   1.998  2.1971 -0.1938  0.9940
 8762TIP3    H247778   1.999   3.117   2.130  0.3190  0.1679  0.0966
 8763TIP3   OH247779   0.342   2.201   1.952 -0.4326 -1.0438 -0.4918
 8763TIP3    H147780   0.293   2.281   1.966 -0.4817 -0.8725 -1.5721
 8763TIP3    H247781   0.431   2.222   1.980 -0.8019 -1.1542  0.8383
 8764TIP3   OH247782   4.341   5.472  16.161 -0.2322  0.4498  0.3263
 8764TIP3    H147783   4.316   5.384  16.189 -1.9371  0.3815 -1.2021
 8764TIP3    H247784   4.347   5.522  16.242  1.9717 -1.3002  1.3407
 8765TIP3   OH247785   4.805   4.895  11.960  0.3571 -0.9936 -0.7719
 8765TIP3    H147786   4.723   4.897  11.910  0.3521  1.7814 -0.8439
 8765TIP3    H247787   4.874   4.894  11.894  0.3388  1.4570 -0.9233
 8766TIP3   OH247788   3.267   5.719  13.583  0.0440  0.4153 -0.0127
 8766TIP3    H147789   3.174   5.699  13.572 -0.4054  2.7890 -1.3325
 8766TIP3    H247790   3.312   5.643  13.547 -1.4125 -0.0481 -0.9767
 8767TIP3   OH247791   0.071   6.507   5.690 -0.0119  0.8301 -0.2630
 8767TIP3    H147792   0.153   6.556   5.683  0.4429 -0.0443 -1.1565
 8767TIP3    H247793   0.073   6.444   5.619 -1.1484  0.3115  0.1277
 8768TIP3   OH247794   4.451   5.333  12.060 -0.0348 -0.2216 -0.3906
 8768TIP3    H147795   4.545   5.340  12.042 -0.1844  2.1106 -0.5798
 8768TIP3    H247796   4.417   5.282  11.987  0.8366  0.4454 -1.2884
 8769TIP3   OH247797   4.572   6.636   6.693 -0.0166 -0.3380  0.3477
 8769TIP3    H147798   4.599   6.609   6.606 -0.7262  1.0046 -0.3249
 8769TIP3    H247799   4.489   6.591   6.708  0.2392 -0.7819  0.4580
 8770TIP3   OH247800   4.320   1.751   2.917 -0.6223 -0.0992  0.2814
 8770TIP3    H147801   4.405   1.712   2.893 -1.2099 -0.7838 -0.7730
 8770TIP3    H247802   4.283   1.691   2.981  0.9738  1.7612  3.1246
 8771TIP3   OH247803   6.137   2.341  11.692  0.4954  0.3576  0.0472
 8771TIP3    H147804   6.200   2.356  11.763 -1.4589  0.5005  1.8263
 8771TIP3    H247805   6.052   2.341  11.735 -0.8530  1.3457 -2.4575
 8772TIP3   OH247806   0.173   3.217   3.123 -0.7686  0.1835  0.2652
 8772TIP3    H147807   0.190   3.310   3.113  1.1125 -0.1194  0.2943
 8772TIP3    H247808   0.251   3.183   3.167 -0.0094 -1.8938 -2.4355
 8773TIP3   OH247809   4.741   0.770   0.675  0.4636  0.0883 -0.1607
 8773TIP3    H147810   4.728   0.682   0.641  1.0033  0.0717 -0.3367
 8773TIP3    H247811   4.668   0.821   0.641 -1.0058 -0.7442  1.6008
 8774TIP3   OH247812   3.457   6.656   6.312 -0.2930 -0.2992  0.6822
 8774TIP3    H147813   3.435   6.586   6.252  1.3057  2.2299 -3.2793
 8774TIP3    H247814   3.549   6.640   6.335  1.2157  1.9232 -2.9513
 8775TIP3   OH247815   1.824   3.871  12.187 -0.0731  0.0560 -0.3568
 8775TIP3    H147816   1.737   3.878  12.227  0.7664 -1.9227  2.0515
 8775TIP3    H247817   1.819   3.793  12.131  0.3899 -0.6647  0.5798
 8776TIP3   OH247818   6.253   0.126   4.052  0.0849 -0.5467  0.3261
 8776TIP3    H147819   6.272   0.098   4.142 -0.9905  1.3653  1.2169
 8776TIP3    H247820   6.200   0.206   4.063 -2.3391 -1.6757 -1.9812
 8777TIP3   OH247821   6.382   2.262   6.199  0.0239  0.4931  0.1249
 8777TIP3    H147822   6.298   2.260   6.244  0.5734  1.8192  1.2638
 8777TIP3    H247823   6.429   2.186   6.233 -0.9823 -0.7746 -1.1696
 8778TIP3   OH247824   5.065   6.316  14.167 -0.1260 -0.1824 -0.0250
 8778TIP3    H147825   5.130   6.384  14.183 -0.9131  0.2725  1.3703
 8778TIP3    H247826   5.004   6.356  14.105  0.6951 -0.4848 -1.0567
 8779TIP3   OH247827   6.610   2.088   3.541  0.3168  0.4346 -0.0262
 8779TIP3    H147828   6.593   2.054   3.629 -0.2280 -1.0549 -0.6760
 8779TIP3    H247829   6.525   2.089   3.499  0.7511 -0.1559 -0.9625
 8780TIP3   OH247830   1.196   4.549  12.027  0.2165  0.5086  0.2940
 8780TIP3    H147831   1.281   4.512  12.049 -0.7699 -0.6254  2.5525
 8780TIP3    H247832   1.199   4.639  12.062  1.0208  1.0565 -1.1198
 8781TIP3   OH247833   6.657   0.156  10.735 -0.2054  0.3526  0.1955
 8781TIP3    H147834   6.689   0.099  10.805 -0.7079  0.2719  0.3666
 8781TIP3    H247835   6.562   0.147  10.740 -0.2208 -1.2211 -1.8068
 8782TIP3   OH247836   3.802   2.553  16.351 -0.2352 -0.1414  0.6124
 8782TIP3    H147837   3.889   2.536  16.315 -0.2133  1.1677 -0.0196
 8782TIP3    H247838   3.760   2.467  16.353  0.4045 -0.5262 -0.8732
 8783TIP3   OH247839   5.567   0.388   0.160 -0.0312  0.3291 -0.2319
 8783TIP3    H147840   5.536   0.333   0.088  0.6627  1.1680 -1.1964
 8783TIP3    H247841   5.549   0.477   0.131  0.2571  0.6748  0.6352
 8784TIP3   OH247842   0.048   3.069   6.224  0.2468  0.4493  0.4641
 8784TIP3    H147843   0.012   3.042   6.139  0.3920  1.3174  0.1174
 8784TIP3    H247844   0.096   2.992   6.255 -0.0907  0.0083 -0.0763
 8785TIP3   OH247845   0.599   1.002   1.781 -0.2619  0.1816  1.1160
 8785TIP3    H147846   0.672   1.052   1.743  1.1905 -1.8299  1.0834
 8785TIP3    H247847   0.521   1.045   1.748  0.9337  1.3389 -0.3501
 8786TIP3   OH247848   4.364   2.654   5.154  0.2057  0.2077 -0.1214
 8786TIP3    H147849   4.325   2.596   5.220 -0.2308 -0.3067 -0.8140
 8786TIP3    H247850   4.415   2.718   5.205  0.1180 -0.3540  0.6902
 8787TIP3   OH247851   0.477   6.003   0.735 -0.4755  0.2565  0.1024
 8787TIP3    H147852   0.523   5.933   0.782 -1.4841 -0.1945  0.4437
 8787TIP3    H247853   0.385   5.978   0.739 -0.6931  0.7919 -1.1683
 8788TIP3   OH247854   3.541   0.624  12.257  0.2417  0.5892  0.0891
 8788TIP3    H147855   3.576   0.692  12.314  1.7147 -0.4670  0.4906
 8788TIP3    H247856   3.617   0.592  12.208 -0.2553 -1.3010  0.4812
 8789TIP3   OH247857   4.519   2.994  13.687  0.1193 -0.7304 -0.2701
 8789TIP3    H147858   4.558   2.987  13.600  1.3702  2.5653 -0.0968
 8789TIP3    H247859   4.447   3.056  13.677  0.2092 -0.3905  1.0281
 8790TIP3   OH247860   0.942   4.620   4.466 -0.6054  0.0707  0.4742
 8790TIP3    H147861   0.959   4.526   4.468 -2.3383 -0.3016 -0.1461
 8790TIP3    H247862   1.021   4.660   4.502  1.2782 -1.4639 -1.6741
 8791TIP3   OH247863   4.709   0.713  16.872  0.2512 -0.2077 -0.7121
 8791TIP3    H147864   4.705   0.672  16.785 -1.3635 -1.9696  0.1373
 8791TIP3    H247865   4.717   0.640  16.933  0.9819  0.9790  0.6730
 8792TIP3   OH247866   5.797   2.409  16.176  0.0035 -0.7873 -0.4092
 8792TIP3    H147867   5.706   2.404  16.149 -0.1270 -1.3964  0.1084
 8792TIP3    H247868   5.800   2.481  16.239 -0.1288 -0.8046 -0.3848
 8793TIP3   OH247869   5.610   2.579  14.007  0.5930 -0.1430  0.0470
 8793TIP3    H147870   5.612   2.506  13.946  0.2490 -0.7896  0.8044
 8793TIP3    H247871   5.701   2.610  14.009  0.4991  0.2927 -1.2498
 8794TIP3   OH247872   6.717   0.154  13.515 -0.1022  0.6249  0.3182
 8794TIP3    H147873   6.725   0.059  13.524 -0.2981  0.7633  2.2259
 8794TIP3    H247874   6.636   0.167  13.465  0.9714 -0.2219 -1.7646
 8795TIP3   OH247875   1.687   3.273   2.129 -0.2124  0.3176  0.4631
 8795TIP3    H147876   1.746   3.250   2.201  1.4852  1.6646 -0.4130
 8795TIP3    H247877   1.683   3.369   2.132 -1.4329  0.3066 -0.2479
 8796TIP3   OH247878   5.862   2.624   1.075 -0.5604  0.0007 -0.2927
 8796TIP3    H147879   5.882   2.558   1.008 -0.6657 -0.9733  0.6114
 8796TIP3    H247880   5.768   2.614   1.092 -0.4938  0.1037  0.1447
 8797TIP3   OH247881   5.173   6.379  16.976  0.4245  0.3637  0.1554
 8797TIP3    H147882   5.191   6.428  17.057  0.6891  0.2561  0.1644
 8797TIP3    H247883   5.232   6.418  16.912 -2.3876  3.0538 -1.0086
 8798TIP3   OH247884   4.560   1.239  10.448  0.6098  0.1724 -0.4015
 8798TIP3    H147885   4.536   1.265  10.359  0.8125  1.0197 -0.2112
 8798TIP3    H247886   4.477   1.238  10.496  0.7373  1.7663 -0.0880
 8799TIP3   OH247887   5.768   0.677   5.690 -0.7014  0.5320  0.5166
 8799TIP3    H147888   5.712   0.684   5.767 -1.7099  0.0218 -0.1421
 8799TIP3    H247889   5.707   0.682   5.616  0.1511  0.1791 -0.2265
 8800TIP3   OH247890   4.887   5.812   3.368 -1.0352  0.3039 -0.2297
 8800TIP3    H147891   4.874   5.906   3.384  0.2066  0.3864  0.3584
 8800TIP3    H247892   4.945   5.783   3.438 -0.9106 -0.7818 -0.7636
 8801TIP3   OH247893   3.421   6.202   0.938 -0.0671  0.1442  1.0106
 8801TIP3    H147894   3.344   6.145   0.926 -1.4136  2.4383 -2.6753
 8801TIP3    H247895   3.390   6.272   0.995 -1.0403  1.4064 -0.9757
 8802TIP3   OH247896   3.429   1.477   2.583 -0.2218  0.2692 -0.0506
 8802TIP3    H147897   3.503   1.448   2.637 -0.7432 -1.4689 -0.2113
 8802TIP3    H247898   3.378   1.534   2.641 -0.2972 -0.8607  1.0441
 8803TIP3   OH247899   1.744   2.388   5.406  0.2536  0.7058 -0.3532
 8803TIP3    H147900   1.762   2.473   5.367 -1.6741  1.3873  0.1030
 8803TIP3    H247901   1.648   2.386   5.416  0.4144 -0.6550  1.5315
 8804TIP3   OH247902   2.155   5.755  15.196  0.0701  0.4395 -0.0173
 8804TIP3    H147903   2.152   5.850  15.203  1.2732  0.5140 -0.3998
 8804TIP3    H247904   2.191   5.737  15.110 -1.3723 -0.4020 -0.4963
 8805TIP3   OH247905   5.599   6.148   4.914  0.3651 -0.4549 -0.5161
 8805TIP3    H147906   5.641   6.178   4.995  1.6717 -1.0074 -0.9489
 8805TIP3    H247907   5.574   6.228   4.869 -1.4135 -0.1488  0.9193
 8806TIP3   OH247908   6.685   4.555   4.180  0.2982 -0.1674 -0.7055
 8806TIP3    H147909   6.724   4.493   4.119  0.4012 -0.6070 -0.1966
 8806TIP3    H247910   6.592   4.532   4.183  0.1672  0.2686 -1.1832
 8807TIP3   OH247911   3.266   2.942  14.736 -0.1559 -0.2677 -0.3584
 8807TIP3    H147912   3.309   2.969  14.817 -0.6825 -0.5855  0.0313
 8807TIP3    H247913   3.232   3.023  14.699  1.3361  0.0990 -1.0211
 8808TIP3   OH247914   1.002   1.221   1.033  0.0171  0.0423  0.0885
 8808TIP3    H147915   0.992   1.196   1.125 -0.2963  2.5237  0.7890
 8808TIP3    H247916   0.937   1.168   0.987 -1.2955  0.2741  1.5935
 8809TIP3   OH247917   3.359   6.333  15.611  0.1954  0.5822 -0.2884
 8809TIP3    H147918   3.415   6.264  15.576  0.1375 -0.1438  0.9852
 8809TIP3    H247919   3.326   6.378  15.534  0.5946 -0.5254 -1.1390
 8810TIP3   OH247920   3.807   6.145   1.953  0.0387 -0.5686  0.0037
 8810TIP3    H147921   3.757   6.151   2.034 -2.2440  2.0503 -1.4323
 8810TIP3    H247922   3.761   6.079   1.901 -0.4153  0.0305 -0.3586
 8811TIP3   OH247923   4.076   1.829   0.553 -0.4349 -0.0734 -0.2017
 8811TIP3    H147924   3.983   1.835   0.530 -1.1559 -0.4865  2.3294
 8811TIP3    H247925   4.104   1.920   0.564 -1.5428  0.0329  2.4169
 8812TIP3   OH247926   5.398   3.683   0.764 -0.3914  0.1769  0.0609
 8812TIP3    H147927   5.458   3.675   0.838  1.1075 -0.3487 -1.1470
 8812TIP3    H247928   5.311   3.672   0.802  0.3731 -0.7029  1.6630
 8813TIP3   OH247929   3.085   5.859   1.778  0.1468  0.5794 -0.0636
 8813TIP3    H147930   3.129   5.890   1.699 -1.0024 -1.0673 -1.4504
 8813TIP3    H247931   3.123   5.773   1.795 -0.4614  0.3996  0.4510
 8814TIP3   OH247932   2.221   3.607   0.241 -0.0946 -0.5561  0.1504
 8814TIP3    H147933   2.182   3.669   0.179  0.0134 -0.4378  0.2027
 8814TIP3    H247934   2.145   3.562   0.280 -0.3493  1.5379  2.2454
 8815TIP3   OH247935   0.502   3.459  10.792 -0.0797  0.1426 -0.0100
 8815TIP3    H147936   0.417   3.480  10.829 -0.2205  0.6603 -0.6073
 8815TIP3    H247937   0.487   3.457  10.697  0.8354  1.5650 -0.2225
 8816TIP3   OH247938   4.873   6.543  12.150  0.1847  0.1065  0.2409
 8816TIP3    H147939   4.847   6.624  12.106 -0.7256  1.2656  2.7386
 8816TIP3    H247940   4.839   6.551  12.239  0.2521 -2.9491  0.6705
 8817TIP3   OH247941   5.342   2.040   3.316 -0.1085 -0.3027  0.1790
 8817TIP3    H147942   5.314   2.038   3.224 -0.1184 -1.8586  0.1917
 8817TIP3    H247943   5.262   2.060   3.365 -0.0416  0.8678 -0.1439
 8818TIP3   OH247944   2.383   0.498   5.218 -0.2030  0.1055 -0.6489
 8818TIP3    H147945   2.373   0.474   5.126 -0.6974 -0.7490 -0.3777
 8818TIP3    H247946   2.293   0.511   5.249  0.0132  2.5925 -0.8402
 8819TIP3   OH247947   6.207   6.813  16.825  0.5724  0.2151 -0.4428
 8819TIP3    H147948   6.295   6.779  16.836  0.0086 -1.2951 -0.4448
 8819TIP3    H247949   6.150   6.747  16.864 -0.5007  1.7438  0.6997
 8820TIP3   OH247950   1.050   4.680  12.825  0.7594  0.1243 -0.5741
 8820TIP3    H147951   1.003   4.668  12.908 -1.3649  0.6214 -1.6186
 8820TIP3    H247952   1.126   4.623  12.832  1.0799  0.7396  2.0144
 8821TIP3   OH247953   4.836   2.118   5.739  0.5099 -0.0940  0.0332
 8821TIP3    H147954   4.758   2.092   5.789  0.0336  2.6291  0.8791
 8821TIP3    H247955   4.801   2.162   5.662  1.2004  0.7131  0.1759
 8822TIP3   OH247956   0.898   1.575  13.304  0.1520  0.7081 -0.1230
 8822TIP3    H147957   0.883   1.632  13.229  0.0392  2.0529  0.8987
 8822TIP3    H247958   0.923   1.633  13.375 -1.2638 -0.3323  1.3300
 8823TIP3   OH247959   4.269   6.422  15.194  0.3101  0.1814 -0.7702
 8823TIP3    H147960   4.340   6.359  15.179  1.3056  1.2450 -0.6194
 8823TIP3    H247961   4.305   6.506  15.168 -1.0436  0.6952 -1.0600
 8824TIP3   OH247962   5.263   1.712  15.878  0.2708  0.2237 -0.3637
 8824TIP3    H147963   5.241   1.642  15.817 -0.2968 -1.2991  1.4894
 8824TIP3    H247964   5.352   1.691  15.907  0.4861  0.8469 -0.5795
 8825TIP3   OH247965   1.195   1.326  13.002 -0.4003 -0.7178 -0.6681
 8825TIP3    H147966   1.263   1.297  13.064 -0.0863  1.4572  0.1277
 8825TIP3    H247967   1.226   1.297  12.917  1.0379 -0.6743 -0.1917
 8826TIP3   OH247968   5.137   5.048  16.445  0.3149 -0.2729 -0.1057
 8826TIP3    H147969   5.216   5.008  16.481 -0.5285  0.6370  3.0689
 8826TIP3    H247970   5.167   5.099  16.369  2.8906  0.4594  1.3157
 8827TIP3   OH247971   4.856   5.655  16.926 -0.1553  0.5378  0.1225
 8827TIP3    H147972   4.896   5.724  16.873  0.3488 -0.1863 -0.4672
 8827TIP3    H247973   4.919   5.640  16.996 -0.4359  0.9247  0.4601
 8828TIP3   OH247974   1.234   6.546   0.932  0.2141 -0.5251 -0.9245
 8828TIP3    H147975   1.145   6.532   0.900 -0.1558 -0.2065 -0.0764
 8828TIP3    H247976   1.271   6.458   0.936 -0.9750 -1.0140  1.2025
 8829TIP3   OH247977   0.392   3.503   0.202  0.1957 -0.0208 -0.1630
 8829TIP3    H147978   0.322   3.568   0.201 -0.2281 -0.4665 -1.4533
 8829TIP3    H247979   0.378   3.451   0.123  0.6227 -1.5897  0.7379
 8830TIP3   OH247980   1.557   3.322  13.081  0.3069 -0.0943  0.2127
 8830TIP3    H147981   1.620   3.273  13.028 -0.8274 -1.0131 -0.3207
 8830TIP3    H247982   1.504   3.369  13.017 -1.1541 -1.3053  0.4871
 8831TIP3   OH247983   1.153   0.713   0.389 -0.4258  0.5495 -0.1354
 8831TIP3    H147984   1.163   0.619   0.372 -0.3738  0.2533  1.3586
 8831TIP3    H247985   1.145   0.719   0.485 -0.6657  2.0496 -0.2249
 8832TIP3   OH247986   6.743   0.359  13.036 -0.1333 -0.4311  0.5619
 8832TIP3    H147987   6.705   0.296  12.975  2.2641  0.5445 -2.1753
 8832TIP3    H247988   6.704   0.443  13.012  1.8772  0.2035 -0.7629
 8833TIP3   OH247989   3.388   5.583  13.886 -0.1318  0.0488 -0.4453
 8833TIP3    H147990   3.412   5.518  13.820  0.0108 -0.2414 -0.1129
 8833TIP3    H247991   3.293   5.574  13.895 -0.0784 -0.2954 -0.2142
 8834TIP3   OH247992   2.038   4.832   6.347  0.3171  0.2514  0.1866
 8834TIP3    H147993   1.955   4.856   6.305  0.5152 -1.7303 -1.5250
 8834TIP3    H247994   2.076   4.916   6.375 -1.1441  1.4292 -1.1522
 8835TIP3   OH247995   3.534   2.494   1.985 -0.4602  0.2656 -0.1781
 8835TIP3    H147996   3.563   2.545   2.061 -0.4269 -0.3978  0.2646
 8835TIP3    H247997   3.613   2.449   1.955 -0.9115 -1.3568  0.8813
 8836TIP3   OH247998   4.668   0.562  10.754 -0.3282  0.4641  0.3277
 8836TIP3    H147999   4.656   0.639  10.699 -0.8271  0.3126  0.2245
 8836TIP3    H248000   4.741   0.515  10.714 -2.5229 -1.2165 -2.0444
 8837TIP3   OH248001   5.382   2.806  13.825  0.1281  0.5687  0.0496
 8837TIP3    H148002   5.460   2.835  13.872 -0.1905 -1.1939  1.7728
 8837TIP3    H248003   5.333   2.755  13.889 -0.9508 -0.9115 -1.8674
 8838TIP3   OH248004   4.876   3.496   5.620 -0.2401  0.0807 -0.0432
 8838TIP3    H148005   4.817   3.467   5.690 -0.4805  0.6603 -0.0006
 8838TIP3    H248006   4.956   3.445   5.635 -0.7286 -0.7365 -0.1232
 8839TIP3   OH248007   0.178   5.562  16.730 -0.2383 -0.1795 -0.0387
 8839TIP3    H148008   0.093   5.605  16.730 -0.8387 -1.3162  0.7350
 8839TIP3    H248009   0.163   5.477  16.772  1.6969  0.4537  2.1449
 8840TIP3   OH248010   3.071   1.569   4.578  0.1828 -0.2528 -0.1364
 8840TIP3    H148011   3.137   1.598   4.641  1.7424  2.0183 -2.6184
 8840TIP3    H248012   2.988   1.576   4.625  1.1611  2.3477  1.4035
 8841TIP3   OH248013   0.595   6.515  14.406  0.4554 -0.4026  0.3873
 8841TIP3    H148014   0.683   6.482  14.422  2.2487  2.7894 -1.7204
 8841TIP3    H248015   0.587   6.591  14.464 -0.0408  0.5419 -0.8717
 8842TIP3   OH248016   2.970   2.068  10.697  0.1851  0.3971  0.2686
 8842TIP3    H148017   3.003   2.145  10.743  0.3511  1.0697 -0.9453
 8842TIP3    H248018   2.986   1.996  10.758  0.8608  1.1784  1.0560
 8843TIP3   OH248019   3.816   1.622   3.516 -0.1086 -0.5684  0.3205
 8843TIP3    H148020   3.875   1.549   3.495  1.3381  0.2735  1.2757
 8843TIP3    H248021   3.843   1.650   3.603 -0.3572  1.3519 -0.1843
 8844TIP3   OH248022   5.744   5.715   0.671 -0.0239  0.0975 -0.5164
 8844TIP3    H148023   5.814   5.657   0.641 -0.5742 -0.4588 -0.7389
 8844TIP3    H248024   5.663   5.666   0.655 -0.5038  0.9554 -0.7698
 8845TIP3   OH248025   6.149   1.342  14.906 -0.4570  0.0600  0.1598
 8845TIP3    H148026   6.079   1.370  14.847  0.8606  1.5060 -0.8147
 8845TIP3    H248027   6.221   1.403  14.888  0.7758 -0.8648  1.6908
 8846TIP3   OH248028   2.719   2.838  13.234 -0.3955  0.5864  0.3898
 8846TIP3    H148029   2.814   2.849  13.239 -0.4188  0.9402  0.1078
 8846TIP3    H248030   2.704   2.796  13.149 -0.4272 -0.2583  0.8062
 8847TIP3   OH248031   0.340   4.023  15.019  0.1797 -0.0079 -0.0170
 8847TIP3    H148032   0.252   4.006  14.985 -1.4525  0.7086  3.4481
 8847TIP3    H248033   0.362   3.946  15.070  1.2634  0.1718 -0.1833
 8848TIP3   OH248034   5.935   0.990   4.275 -0.1410  0.4380 -0.6314
 8848TIP3    H148035   5.982   1.073   4.268  0.8394  0.0740  1.0111
 8848TIP3    H248036   5.891   0.994   4.360  2.0376 -1.6896  0.7418
 8849TIP3   OH248037   0.922   4.888   4.993 -0.9129 -0.0823 -0.1630
 8849TIP3    H148038   0.847   4.928   4.950 -1.0505 -0.2774 -0.1042
 8849TIP3    H248039   0.987   4.878   4.924 -1.1394 -0.4114 -0.3305
 8850TIP3   OH248040   2.166   2.742  12.822 -0.2528 -0.1189  0.2786
 8850TIP3    H148041   2.122   2.766  12.903  1.2518  2.4552  0.4700
 8850TIP3    H248042   2.097   2.744  12.756 -0.8954  1.4677  0.9448
 8851TIP3   OH248043   5.331   3.993   6.628 -0.2640 -1.0568 -0.7803
 8851TIP3    H148044   5.297   4.010   6.540 -0.6960  0.8264 -0.2958
 8851TIP3    H248045   5.343   4.080   6.667  2.5725 -1.7123  0.0660
 8852TIP3   OH248046   3.254   4.881   1.519  0.4832  0.7306 -0.5179
 8852TIP3    H148047   3.270   4.974   1.536  0.5545  0.5333  0.5098
 8852TIP3    H248048   3.243   4.877   1.424  0.8866  1.7263 -0.6258
 8853TIP3   OH248049   3.000   0.759   0.153 -0.5776  0.8329 -0.0693
 8853TIP3    H148050   2.963   0.718   0.075 -0.6389  0.7337  0.0121
 8853TIP3    H248051   3.093   0.734   0.152 -0.6661  0.4845  0.1124
 8854TIP3   OH248052   1.466   2.588   2.208  0.1199  0.3877 -0.2573
 8854TIP3    H148053   1.446   2.541   2.127  2.0757 -1.6480  0.3371
 8854TIP3    H248054   1.544   2.639   2.187  0.1081  0.5562  0.1073
 8855TIP3   OH248055   2.861   5.382  15.658 -0.0346 -0.2141 -0.6834
 8855TIP3    H148056   2.955   5.365  15.656  0.0828  0.2943  0.2424
 8855TIP3    H248057   2.843   5.429  15.577  0.5965  0.1201 -0.6340
 8856TIP3   OH248058   3.367   6.661  16.635  0.5400  0.2412  0.9078
 8856TIP3    H148059   3.408   6.623  16.712  2.3943  1.5868  0.6526
 8856TIP3    H248060   3.322   6.739  16.668  2.7244  1.7749  0.4971
 8857TIP3   OH248061   4.589   4.423  13.325 -0.3703 -0.0643 -0.0102
 8857TIP3    H148062   4.678   4.455  13.315 -0.5900  1.3997  2.0923
 8857TIP3    H248063   4.541   4.459  13.251  0.0851  2.0453  0.6654
 8858TIP3   OH248064   5.050   3.228   5.330  0.3339  0.6545  0.5538
 8858TIP3    H148065   5.012   3.283   5.261 -0.2442 -0.4102 -0.0055
 8858TIP3    H248066   5.132   3.272   5.352  0.2250  1.3689 -0.3608
 8859TIP3   OH248067   5.670   6.504  14.684 -0.0672  0.1303  0.6790
 8859TIP3    H148068   5.754   6.540  14.657  0.2689 -0.8158  0.4226
 8859TIP3    H248069   5.650   6.548  14.767  0.2278  1.0318  0.2826
 8860TIP3   OH248070   2.818   5.628   3.583 -0.1128 -0.1808  0.3439
 8860TIP3    H148071   2.731   5.589   3.587 -1.1697  1.0735 -4.0992
 8860TIP3    H248072   2.871   5.563   3.537 -0.3261  1.1085 -1.8755
 8861TIP3   OH248073   3.714   4.820  15.046 -0.5989  0.2449 -0.3906
 8861TIP3    H148074   3.638   4.765  15.065  0.0334 -0.5353 -0.1060
 8861TIP3    H248075   3.785   4.759  15.028  0.2648  0.9536  0.4924
 8862TIP3   OH248076   4.404   2.623  14.785 -0.7200 -0.6366  0.1506
 8862TIP3    H148077   4.419   2.615  14.691  1.9289  1.3015  0.2790
 8862TIP3    H248078   4.424   2.536  14.820  0.2132 -0.8685 -0.9094
 8863TIP3   OH248079   0.719   0.511  13.947 -0.0589 -0.6517 -0.1949
 8863TIP3    H148080   0.775   0.588  13.960 -1.6694  0.4094  0.8997
 8863TIP3    H248081   0.662   0.535  13.874 -0.0610 -1.1197 -0.3469
 8864TIP3   OH248082   1.415   4.889   0.821 -0.4526 -0.5614  0.1233
 8864TIP3    H148083   1.373   4.936   0.749  0.7719 -0.4025 -0.5242
 8864TIP3    H248084   1.384   4.933   0.900 -0.1503  0.6763 -0.4182
 8865TIP3   OH248085   1.356   5.815   1.642  0.2747 -0.2750 -0.4540
 8865TIP3    H148086   1.340   5.873   1.716 -0.4128 -0.7324 -0.2278
 8865TIP3    H248087   1.317   5.861   1.567  0.6955  0.0458 -0.4787
 8866TIP3   OH248088   2.889   5.341   0.724 -0.3168 -0.4296  0.4857
 8866TIP3    H148089   2.909   5.299   0.640  2.8871 -2.2080  1.9580
 8866TIP3    H248090   2.850   5.271   0.777 -0.8804  0.2557  0.9990
 8867TIP3   OH248091   3.854   0.092  11.204 -0.2057 -0.0961  0.1129
 8867TIP3    H148092   3.846   0.169  11.147  0.0766  0.0561  0.2771
 8867TIP3    H248093   3.872   0.128  11.290  0.2626 -0.3589  0.1283
 8868TIP3   OH248094   2.146   6.334  16.716  0.6305  0.3238 -0.4122
 8868TIP3    H148095   2.138   6.388  16.794  0.7981 -2.1988  1.4933
 8868TIP3    H248096   2.058   6.299  16.701  0.4573  1.2622 -1.7901
 8869TIP3   OH248097   2.777   4.274   2.010 -0.3048 -0.3369  0.4878
 8869TIP3    H148098   2.784   4.187   1.972 -1.3074  0.4518 -1.7116
 8869TIP3    H248099   2.856   4.320   1.981 -0.7282  0.0542 -0.0795
 8870TIP3   OH248100   3.300   3.840   5.423  0.0935 -0.3911  0.1893
 8870TIP3    H148101   3.238   3.811   5.356  0.8998 -1.0500 -0.2806
 8870TIP3    H248102   3.332   3.759   5.463 -1.3987 -0.0032  2.3516
 8871TIP3   OH248103   0.806   0.598  14.419  0.6452  0.0483 -0.0848
 8871TIP3    H148104   0.731   0.593  14.360 -0.9167  0.4230  1.7989
 8871TIP3    H248105   0.821   0.508  14.447  0.1777  0.1201  0.4019
 8872TIP3   OH248106   3.855   6.711  15.217 -0.3953 -0.0697  0.3546
 8872TIP3    H148107   3.839   6.618  15.232 -0.0248 -0.1356  0.3667
 8872TIP3    H248108   3.911   6.712  15.139 -1.4016  0.2073 -0.3834
 8873TIP3   OH248109   3.410   3.112  17.016 -0.1649  0.2747 -0.5708
 8873TIP3    H148110   3.371   3.118  17.103 -0.0633 -0.0179 -0.5056
 8873TIP3    H248111   3.503   3.096  17.032  0.1472  1.8230 -0.7149
 8874TIP3   OH248112   5.645   3.154  15.293  0.3504  0.0588 -0.1758
 8874TIP3    H148113   5.711   3.126  15.230  2.4456  0.9013  1.4992
 8874TIP3    H248114   5.623   3.243  15.268 -1.6099 -0.8256 -1.8143
 8875TIP3   OH248115   5.436   3.476  12.497 -0.1876 -0.1323 -0.1473
 8875TIP3    H148116   5.395   3.409  12.550  0.7834 -0.6939 -0.0850
 8875TIP3    H248117   5.415   3.452  12.407  2.7710 -2.4234 -0.3786
 8876TIP3   OH248118   5.345   4.716   0.958  0.7494 -0.0698 -0.6686
 8876TIP3    H148119   5.398   4.770   0.899  1.1084  0.5840  0.2446
 8876TIP3    H248120   5.401   4.698   1.032 -0.1109  0.1847  0.0661
 8877TIP3   OH248121   5.849   4.513   0.514 -0.1320 -0.2881 -0.0405
 8877TIP3    H148122   5.908   4.587   0.510  1.0402 -1.2302 -0.9562
 8877TIP3    H248123   5.769   4.547   0.555  0.0955  1.6312 -1.1262
 8878TIP3   OH248124   5.018   6.546   0.698 -0.9794  0.1883  0.0053
 8878TIP3    H148125   5.105   6.530   0.663 -0.3537 -0.9544  1.9676
 8878TIP3    H248126   5.016   6.641   0.715  0.0077  0.1648  0.2704
 8879TIP3   OH248127   2.856   1.415   1.487 -0.0589  0.2613 -0.0972
 8879TIP3    H148128   2.783   1.353   1.493  0.1500  0.0554  0.4085
 8879TIP3    H248129   2.815   1.498   1.463 -0.5063  0.2292  0.5167
 8880TIP3   OH248130   6.610   4.324   2.016  0.0182  0.7116  0.3203
 8880TIP3    H148131   6.695   4.338   2.058 -0.4206 -0.1034  1.5401
 8880TIP3    H248132   6.566   4.409   2.020  0.6217  1.0395  0.0302
 8881TIP3   OH248133   4.346   1.199  11.004 -0.7844  0.5010 -0.4007
 8881TIP3    H148134   4.345   1.143  10.926  2.5919 -0.5242  0.1029
 8881TIP3    H248135   4.359   1.287  10.969 -0.5489  0.2236 -1.0459
 8882TIP3   OH248136   2.527   2.996  15.496  0.4896 -0.0148  0.9543
 8882TIP3    H148137   2.441   2.956  15.505  0.5372  0.1337  2.1520
 8882TIP3    H248138   2.570   2.945  15.427 -0.7974  0.3639 -0.1794
 8883TIP3   OH248139   1.522   2.772  11.310  0.1663 -0.1179  0.3199
 8883TIP3    H148140   1.606   2.813  11.330  0.0756  0.5939 -0.6993
 8883TIP3    H248141   1.462   2.807  11.376  0.5393 -0.1713  0.6901
 8884TIP3   OH248142   0.802   3.550   4.103  0.0620 -0.1259  0.3158
 8884TIP3    H148143   0.823   3.481   4.166 -0.2524 -1.0688 -0.5752
 8884TIP3    H248144   0.872   3.546   4.038 -0.0093  0.3314  0.2058
 8885TIP3   OH248145   4.853   6.467  14.675 -0.7144  0.1678  0.0446
 8885TIP3    H148146   4.863   6.533  14.744  0.4647 -0.4705  0.5162
 8885TIP3    H248147   4.896   6.389  14.711 -0.8003 -0.4167 -1.0934
 8886TIP3   OH248148   6.191   6.817  15.884  0.2291  0.0634 -0.0197
 8886TIP3    H148149   6.274   6.769  15.894 -0.1036 -0.6290 -0.4885
 8886TIP3    H248150   6.217   6.903  15.853  0.7055 -0.5934 -1.5462
 8887TIP3   OH248151   3.831   6.774  14.744 -1.0793  0.4138  0.1940
 8887TIP3    H148152   3.791   6.860  14.735  1.0246  1.9313  3.3746
 8887TIP3    H248153   3.911   6.780  14.692 -1.2353  0.1472 -0.0778
 8888TIP3   OH248154   3.557   1.356   5.917 -0.3808 -0.5652 -0.0680
 8888TIP3    H148155   3.518   1.417   5.979 -0.1154 -1.1334  0.6760
 8888TIP3    H248156   3.641   1.395   5.893  1.0834 -1.8634  2.5215
 8889TIP3   OH248157   2.827   6.508   2.361  0.2778 -0.8193  0.9482
 8889TIP3    H148158   2.860   6.442   2.422  0.7793 -0.1707  1.4002
 8889TIP3    H248159   2.765   6.461   2.306  0.3085 -1.5721  1.5333
 8890TIP3   OH248160   1.719   1.535  15.648 -0.1394  0.0808 -0.2879
 8890TIP3    H148161   1.808   1.537  15.611 -0.2531  2.9054 -0.6938
 8890TIP3    H248162   1.662   1.544  15.572 -0.7237 -0.4333  0.0824
 8891TIP3   OH248163   6.287   4.488   2.952 -0.1839  0.0874  0.0240
 8891TIP3    H148164   6.192   4.487   2.945 -0.1756  0.1247 -0.0949
 8891TIP3    H248165   6.307   4.560   3.011 -0.1744  0.7276 -0.7567
 8892TIP3   OH248166   5.242   5.001   2.637  0.0574  0.1785  0.0518
 8892TIP3    H148167   5.261   4.932   2.573 -2.9076 -1.7646  1.0511
 8892TIP3    H248168   5.171   5.051   2.598 -1.0034 -0.3243  1.2474
 8893TIP3   OH248169   5.712   4.656   4.250  0.5374  0.1532  0.5317
 8893TIP3    H148170   5.639   4.707   4.284  1.1248  0.1062  1.9583
 8893TIP3    H248171   5.682   4.565   4.254  1.0751  0.0177  2.3044
 8894TIP3   OH248172   5.362   0.415   3.192 -0.0854  0.2976  0.1965
 8894TIP3    H148173   5.410   0.461   3.123  1.7662 -0.7078  0.7478
 8894TIP3    H248174   5.277   0.459   3.196  0.6195  1.8721 -1.1196
 8895TIP3   OH248175   0.566   1.451   4.406  0.5809 -0.0636 -0.6977
 8895TIP3    H148176   0.534   1.363   4.385  0.7112  0.2340 -2.2292
 8895TIP3    H248177   0.537   1.505   4.333  1.2649  0.9970 -0.2063
 8896TIP3   OH248178   4.135   3.672  16.295 -0.0232  0.3287 -0.2635
 8896TIP3    H148179   4.131   3.766  16.277 -0.3351  0.5941  1.0947
 8896TIP3    H248180   4.112   3.631  16.211  0.2881  1.4471 -0.9208
 8897TIP3   OH248181   2.315   4.289  15.175 -0.5099 -0.3121 -0.2021
 8897TIP3    H148182   2.285   4.239  15.251 -0.3962 -0.0644  0.0088
 8897TIP3    H248183   2.397   4.247  15.150  0.6828  1.0081  1.2524
 8898TIP3   OH248184   0.244   5.195   4.923 -0.4190  0.8948  0.3454
 8898TIP3    H148185   0.281   5.234   5.001 -1.1801  0.4513  0.9408
 8898TIP3    H248186   0.276   5.250   4.851  1.2595  0.6144  0.8290
 8899TIP3   OH248187   3.994   2.260  16.350  0.0704  0.1154 -0.4244
 8899TIP3    H148188   4.048   2.278  16.426  0.5036  1.5390 -1.0381
 8899TIP3    H248189   3.937   2.188  16.377  1.3837 -0.5579  0.6589
 8900TIP3   OH248190   5.928   4.090   4.080 -0.1553 -0.3186 -0.7155
 8900TIP3    H148191   5.862   4.154   4.106  2.3185  1.8193  0.7450
 8900TIP3    H248192   5.954   4.116   3.991 -0.1018 -0.1440 -0.6473
 8901TIP3   OH248193   4.350   1.428  14.622  0.0947  0.1779  0.4461
 8901TIP3    H148194   4.327   1.486  14.549 -1.0517  0.6131  1.1367
 8901TIP3    H248195   4.405   1.361  14.582  0.3855  1.0183 -0.6130
 8902TIP3   OH248196   1.305   4.616  16.834  0.4778 -0.0945 -0.0630
 8902TIP3    H148197   1.238   4.680  16.813 -0.5030  0.1236  3.2054
 8902TIP3    H248198   1.384   4.650  16.793 -0.7536  1.2656 -1.4322
 8903TIP3   OH248199   3.208   1.541   4.169 -0.5960  0.0133 -0.4129
 8903TIP3    H148200   3.192   1.627   4.208 -0.3374 -0.2247  0.2335
 8903TIP3    H248201   3.204   1.480   4.243 -0.3270 -0.4740 -0.7949
 8904TIP3   OH248202   3.082   1.815   3.677  0.3188  0.0797 -0.3808
 8904TIP3    H148203   3.144   1.850   3.612  1.5238 -1.2135  0.0261
 8904TIP3    H248204   3.012   1.777   3.624 -1.0342  2.9652 -0.8384
 8905TIP3   OH248205   2.644   0.484  11.480  0.0750 -0.0034 -0.1906
 8905TIP3    H148206   2.691   0.467  11.398  4.4513  3.1065  1.3051
 8905TIP3    H248207   2.593   0.563  11.463  0.7515  0.4723 -0.0551
 8906TIP3   OH248208   2.760   2.773  12.529  0.3407 -0.3178 -0.2979
 8906TIP3    H148209   2.761   2.755  12.435 -0.3405  1.5657 -0.7026
 8906TIP3    H248210   2.781   2.866  12.536 -0.2783 -0.2689  1.3771
 8907TIP3   OH248211   3.872   2.475  14.603 -0.0095  0.4991 -0.0196
 8907TIP3    H148212   3.875   2.507  14.693  0.4926  0.3936  0.0061
 8907TIP3    H248213   3.800   2.522  14.563 -1.2073 -0.5296  0.8542
 8908TIP3   OH248214   1.799   6.387  16.291 -0.0057  0.2076  0.6072
 8908TIP3    H148215   1.885   6.398  16.250  0.7460  2.1626  2.5237
 8908TIP3    H248216   1.739   6.373  16.217  1.7785 -0.2716 -0.8405
 8909TIP3   OH248217   3.802   4.106  14.387  0.2756 -0.6471 -0.4145
 8909TIP3    H148218   3.799   4.137  14.478  0.7869 -0.5207 -0.4401
 8909TIP3    H248219   3.825   4.183  14.336 -1.6262 -0.3159 -0.8581
 8910TIP3   OH248220   6.565   1.942  15.443 -0.2195  0.4755  0.2968
 8910TIP3    H148221   6.516   1.993  15.378  0.1085  0.1117 -0.2492
 8910TIP3    H248222   6.637   1.999  15.469 -0.2235  0.5391  0.1696
 8911TIP3   OH248223   6.791   1.504   6.505 -0.1981 -0.8348 -0.3777
 8911TIP3    H148224   6.739   1.567   6.455 -1.5141 -3.3516 -2.4437
 8911TIP3    H248225   6.799   1.543   6.592 -1.2438  1.9386 -1.4089
 8912TIP3   OH248226   5.996   4.271   0.570 -0.5195  0.4223  0.5088
 8912TIP3    H148227   5.926   4.328   0.537 -0.0490 -0.9031 -3.3312
 8912TIP3    H248228   5.963   4.182   0.557  1.0717 -0.2130  0.5539
 8913TIP3   OH248229   1.367   4.247  16.533 -0.2178 -0.1346  0.3603
 8913TIP3    H148230   1.426   4.204  16.472 -1.1288 -1.0997  0.1335
 8913TIP3    H248231   1.320   4.176  16.576 -1.0490  0.5974  0.6962
 8914TIP3   OH248232   0.462   3.903   1.481  0.5857 -0.3421 -0.3178
 8914TIP3    H148233   0.389   3.862   1.434  0.4719 -0.4338 -0.0652
 8914TIP3    H248234   0.536   3.844   1.468  0.3389 -0.8138  0.3228
 8915TIP3   OH248235   5.313   3.393  13.701 -0.3268 -0.1592 -0.8927
 8915TIP3    H148236   5.373   3.322  13.677  0.6298  0.2684  0.1441
 8915TIP3    H248237   5.237   3.380  13.644 -0.6716 -2.6962  0.0351
 8916TIP3   OH248238   1.604   0.792  13.463 -0.6222 -0.0695  0.1648
 8916TIP3    H148239   1.521   0.756  13.432 -0.4451  0.0264 -0.4431
 8916TIP3    H248240   1.584   0.884  13.482 -0.9787 -0.3728  1.3436
 8917TIP3   OH248241   3.605   4.285   5.188 -0.3429 -1.1576  0.1876
 8917TIP3    H148242   3.692   4.290   5.147 -1.1068 -0.6136 -1.4588
 8917TIP3    H248243   3.586   4.191   5.191 -0.5267 -1.2055 -1.3769
 8918TIP3   OH248244   2.591   0.999   0.905  0.4061  0.4903  0.4605
 8918TIP3    H148245   2.599   1.092   0.881  0.0870  0.5613  0.6239
 8918TIP3    H248246   2.497   0.981   0.898  0.4479  0.2241  0.5990
 8919TIP3   OH248247   6.109   6.183   0.052  0.3822 -0.0855 -0.7512
 8919TIP3    H148248   6.147   6.096   0.063  3.0498  0.6880 -2.8311
 8919TIP3    H248249   6.014   6.167   0.047  0.5979 -2.5592  1.0602
 8920TIP3   OH248250   2.899   5.476   2.186 -0.1575 -0.1778 -0.0994
 8920TIP3    H148251   2.937   5.391   2.211 -1.6028 -0.7408  0.2638
 8920TIP3    H248252   2.880   5.467   2.093 -1.3161 -0.6675  0.1714
 8921TIP3   OH248253   5.515   1.128   1.262 -0.1190 -0.6771  0.1675
 8921TIP3    H148254   5.564   1.190   1.316  2.4438 -0.9060 -1.7117
 8921TIP3    H248255   5.558   1.044   1.277  0.1658 -0.8815 -1.5498
 8922TIP3   OH248256   5.937   6.498   5.471 -0.1163 -0.4278 -0.2511
 8922TIP3    H148257   5.918   6.533   5.558 -0.7310 -1.3717  0.0145
 8922TIP3    H248258   5.876   6.542   5.413 -0.9591 -1.1173  0.0946
 8923TIP3   OH248259   2.269   2.783   1.219  0.6219 -0.1286 -0.0694
 8923TIP3    H148260   2.347   2.837   1.212 -0.0387  1.0644  1.1657
 8923TIP3    H248261   2.260   2.768   1.314 -1.2746  0.7700 -0.0695
 8924TIP3   OH248262   2.927   1.381   0.734  0.0929 -0.4972  0.3130
 8924TIP3    H148263   2.999   1.333   0.775 -1.7311 -2.8639  0.9265
 8924TIP3    H248264   2.935   1.361   0.640  0.9487  0.3012  0.2030
 8925TIP3   OH248265   2.564   2.474  15.843 -0.0865 -0.1698 -0.1341
 8925TIP3    H148266   2.552   2.401  15.904 -1.9903 -1.2898 -1.7102
 8925TIP3    H248267   2.655   2.501  15.855  0.0645 -1.4311  1.9718
 8926TIP3   OH248268   5.253   4.591  16.298 -0.4237  0.6518 -0.1957
 8926TIP3    H148269   5.191   4.645  16.347  0.1090 -0.9721  2.4746
 8926TIP3    H248270   5.215   4.503  16.300  0.9823  0.0083 -0.2211
 8927TIP3   OH248271   5.612   5.782   3.154  0.2306  0.3327 -0.2944
 8927TIP3    H148272   5.688   5.763   3.209 -1.1252 -0.1453  1.5432
 8927TIP3    H248273   5.609   5.878   3.150 -0.6590  0.4876  2.1315
 8928TIP3   OH248274   4.922   0.779   3.108 -0.3433  0.4606  0.2544
 8928TIP3    H148275   4.853   0.760   3.172 -0.1607 -0.0808  0.2942
 8928TIP3    H248276   4.941   0.871   3.120 -1.9013  0.9396 -0.5656
 8929TIP3   OH248277   0.255   3.257  13.770  0.4615  0.7766 -0.3241
 8929TIP3    H148278   0.164   3.279  13.788  0.7586  0.7455  1.3553
 8929TIP3    H248279   0.281   3.318  13.701 -1.3045 -0.3684 -2.1132
 8930TIP3   OH248280   6.704   0.002  15.088  0.3267 -0.4332  0.2874
 8930TIP3    H148281   6.716   0.067  15.157 -0.1161 -0.4361  0.3674
 8930TIP3    H248282   6.792  -0.031  15.071  0.5176  0.0072  0.4208
 8931TIP3   OH248283   1.365   2.405  13.307  0.6871  0.3045 -0.1856
 8931TIP3    H148284   1.460   2.393  13.297  0.5670 -1.9661  0.7449
 8931TIP3    H248285   1.337   2.444  13.224  2.1277 -1.1568 -1.4322
 8932TIP3   OH248286   6.360   5.543  11.574  0.6146 -0.2016 -0.1403
 8932TIP3    H148287   6.343   5.481  11.503  0.5004 -0.3382  0.0066
 8932TIP3    H248288   6.402   5.491  11.643 -3.6280 -1.2920  1.9822
 8933TIP3   OH248289   2.343   4.144   1.349 -0.1327 -0.3250  0.2087
 8933TIP3    H148290   2.269   4.091   1.320  0.6478 -0.8150 -0.9960
 8933TIP3    H248291   2.325   4.231   1.313 -0.5825 -0.2054  0.7242
 8934TIP3   OH248292   5.823   3.013  14.719 -0.0230  0.5367 -0.4108
 8934TIP3    H148293   5.885   2.940  14.718 -2.0909 -1.3156  0.0574
 8934TIP3    H248294   5.737   2.972  14.710 -1.1807  3.0747 -1.9346
 8935TIP3   OH248295   5.780   2.791  11.699 -0.7294 -0.5158  0.0709
 8935TIP3    H148296   5.795   2.697  11.690 -2.1086 -0.6411 -1.4592
 8935TIP3    H248297   5.689   2.798  11.728  0.2658  0.3188  3.4347
 8936TIP3   OH248298   3.838   1.740   2.885  0.4929 -0.4718  0.5266
 8936TIP3    H148299   3.754   1.755   2.928  0.4928 -0.7683  0.6332
 8936TIP3    H248300   3.898   1.802   2.928 -0.2789  1.8803 -1.5545
 8937TIP3   OH248301   0.656   1.781  14.761  0.5518  0.6617 -0.2739
 8937TIP3    H148302   0.749   1.761  14.763  0.3079 -0.5799 -0.4127
 8937TIP3    H248303   0.617   1.720  14.823 -0.0760  1.7670  0.4482
 8938TIP3   OH248304   1.798   1.811  15.153  1.0001 -0.5746  0.1011
 8938TIP3    H148305   1.711   1.800  15.192  0.5190  0.0687 -0.7546
 8938TIP3    H248306   1.813   1.730  15.104  0.7217 -0.5417 -0.0412
 8939TIP3   OH248307   3.218   1.568   5.826 -0.1459  0.2980 -0.0625
 8939TIP3    H148308   3.195   1.476   5.837 -1.5418  0.5959 -0.2474
 8939TIP3    H248309   3.146   1.616   5.867  1.8533  1.3564  2.5106
 8940TIP3   OH248310   0.225   6.698  15.217  0.0238 -0.3183  0.1921
 8940TIP3    H148311   0.165   6.676  15.288 -1.3386  0.7148 -0.6013
 8940TIP3    H248312   0.238   6.615  15.171 -1.0663 -0.4916  0.1700
 8941TIP3   OH248313   5.723   4.243  16.754 -0.0869 -0.4667  0.0433
 8941TIP3    H148314   5.627   4.246  16.755 -0.0813 -0.0948  1.1028
 8941TIP3    H248315   5.747   4.225  16.845  0.8461 -0.8965 -0.2759
 8942TIP3   OH248316   2.020   1.156   3.527  0.1914  0.1770 -0.3705
 8942TIP3    H148317   2.064   1.131   3.446 -0.3355  0.6372 -0.8063
 8942TIP3    H248318   2.069   1.112   3.596 -0.5207 -1.8294 -1.0727
 8943TIP3   OH248319   5.535   0.245  12.924  0.0035 -0.2736  0.0771
 8943TIP3    H148320   5.501   0.222  12.838  1.5350 -3.2428  0.1169
 8943TIP3    H248321   5.525   0.164  12.975  1.0094  0.7886  2.0420
 8944TIP3   OH248322   3.211   4.001  12.777  0.2311  0.0422  0.1797
 8944TIP3    H148323   3.167   4.081  12.806  0.5770 -0.1823  1.3700
 8944TIP3    H248324   3.145   3.933  12.788 -0.4763  0.3000 -1.9805
 8945TIP3   OH248325   2.586   5.102  15.716 -0.1788  0.3482 -0.9090
 8945TIP3    H148326   2.576   5.197  15.721 -0.6534  0.3007 -0.8748
 8945TIP3    H248327   2.658   5.088  15.655  0.5533  0.7536 -0.1564
 8946TIP3   OH248328   5.692   4.406  16.496  0.2934  0.2530  0.0830
 8946TIP3    H148329   5.691   4.357  16.578 -0.4656  0.9705  0.5074
 8946TIP3    H248330   5.777   4.385  16.457  1.0940  0.6841  1.5314
 8947TIP3   OH248331   3.660   4.443   4.160  0.1509 -0.5772 -0.4689
 8947TIP3    H148332   3.574   4.414   4.128  0.1771  0.1388 -1.2281
 8947TIP3    H248333   3.679   4.522   4.108  0.7348 -0.0569  0.5161
 8948TIP3   OH248334   5.045   3.194  11.624  0.7789 -0.1595  0.0107
 8948TIP3    H148335   5.044   3.159  11.535  1.6289  2.3940 -1.0849
 8948TIP3    H248336   4.958   3.233  11.636 -0.7629 -3.6752  1.8141
 8949TIP3   OH248337   1.546   3.753   5.459  0.1158  0.1986  0.1264
 8949TIP3    H148338   1.605   3.795   5.521  0.5411  0.1768 -0.2605
 8949TIP3    H248339   1.516   3.824   5.402  0.0610  0.1455  0.0877
 8950TIP3   OH248340   4.771   4.291  13.624 -0.1346 -0.1829  0.5283
 8950TIP3    H148341   4.862   4.265  13.611 -0.1963  0.1293 -0.6285
 8950TIP3    H248342   4.776   4.377  13.666  0.1199  0.3416 -0.5603
 8951TIP3   OH248343   4.751   2.567  15.180 -0.5677 -0.7401 -0.2920
 8951TIP3    H148344   4.707   2.506  15.239 -0.8498  0.1387  0.4314
 8951TIP3    H248345   4.714   2.653  15.202 -0.2003 -0.3007 -1.3020
 8952TIP3   OH248346   0.552   1.884   0.989  0.0849  0.3677  0.1256
 8952TIP3    H148347   0.525   1.886   0.897 -0.1210  1.4815  0.1898
 8952TIP3    H248348   0.514   1.964   1.026  1.2667  0.6019  0.8649
 8953TIP3   OH248349   2.867   3.826  11.755 -0.1626  0.1962  0.3541
 8953TIP3    H148350   2.940   3.788  11.804 -0.0167 -0.0823 -0.0741
 8953TIP3    H248351   2.862   3.774  11.675 -1.7986 -0.7546  1.0375
 8954TIP3   OH248352   3.445   6.391  13.577  0.1158  0.6291  0.4493
 8954TIP3    H148353   3.530   6.399  13.535 -0.1166  1.5673  0.1383
 8954TIP3    H248354   3.383   6.378  13.505  0.1221 -1.3504  0.7430
 8955TIP3   OH248355   0.293   2.215  14.217 -0.1642 -0.5905  0.5233
 8955TIP3    H148356   0.356   2.174  14.277 -0.7611  1.4012  2.6777
 8955TIP3    H248357   0.242   2.142  14.182  1.6678 -2.0249  0.6906
 8956TIP3   OH248358   3.332   3.873   0.179 -0.2596  0.3401  0.1792
 8956TIP3    H148359   3.335   3.918   0.263  0.5211  2.4285 -0.8975
 8956TIP3    H248360   3.244   3.891   0.146 -1.0863 -1.6985  1.1182
 8957TIP3   OH248361   4.506   5.220   4.113  0.0773 -0.2127  0.0110
 8957TIP3    H148362   4.535   5.171   4.190 -0.2925 -0.5848 -0.0848
 8957TIP3    H248363   4.542   5.172   4.039  1.1998  0.6411 -0.0383
 8958TIP3   OH248364   4.616   5.442   3.133 -0.8801  0.2405 -0.5159
 8958TIP3    H148365   4.678   5.424   3.203 -2.1151 -2.0937  0.0797
 8958TIP3    H248366   4.640   5.529   3.101  1.1978  0.3708  1.2076
 8959TIP3   OH248367   5.412   3.585   0.186  0.0213  0.0621  0.2800
 8959TIP3    H148368   5.484   3.589   0.123 -1.5860  0.5535 -1.6273
 8959TIP3    H248369   5.410   3.494   0.215  0.8484 -0.1518 -0.2972
 8960TIP3   OH248370   3.881   5.579   1.690 -0.1089  0.4106 -0.6741
 8960TIP3    H148371   3.841   5.659   1.656 -1.3525 -0.0016 -0.2174
 8960TIP3    H248372   3.808   5.528   1.725  0.7704 -0.5427 -0.1701
 8961TIP3   OH248373   5.741   5.635   3.425  0.0102 -0.1319 -0.1141
 8961TIP3    H148374   5.652   5.606   3.449  0.2157  0.9159  2.1700
 8961TIP3    H248375   5.798   5.587   3.485  0.4254  3.8823  3.2154
 8962TIP3   OH248376   4.656   5.173   3.102 -0.8558  0.3091  0.4087
 8962TIP3    H148377   4.674   5.264   3.124  0.3167 -0.3217  2.3801
 8962TIP3    H248378   4.731   5.125   3.138 -0.5974 -1.2888 -2.0698
 8963TIP3   OH248379   3.116   0.628  13.482  0.0116  0.1542  0.0995
 8963TIP3    H148380   3.137   0.535  13.477  0.7552  0.3870 -2.3647
 8963TIP3    H248381   3.200   0.672  13.471 -0.7645  1.0701 -3.4547
 8964TIP3   OH248382   5.340   6.448  11.198 -0.2123  1.1806  0.5505
 8964TIP3    H148383   5.337   6.543  11.212 -1.2348  1.8876 -3.2833
 8964TIP3    H248384   5.252   6.426  11.165  0.8522 -0.4986 -1.4204
 8965TIP3   OH248385   1.071   0.771   0.627 -0.3142  0.5056  0.5850
 8965TIP3    H148386   1.049   0.864   0.633 -2.6274 -0.0602  1.7962
 8965TIP3    H248387   1.086   0.744   0.718  1.5998 -0.0797  0.1475
 8966TIP3   OH248388   1.119   4.232   6.042 -0.0843 -0.3079 -0.3277
 8966TIP3    H148389   1.085   4.253   5.955  0.8418  0.7665 -0.4676
 8966TIP3    H248390   1.140   4.139   6.038 -0.6179 -0.4034 -1.0571
 8967TIP3   OH248391   4.216   1.520   5.985  0.2138  0.7525 -0.5779
 8967TIP3    H148392   4.163   1.500   6.062 -1.5010 -0.1821 -1.9314
 8967TIP3    H248393   4.225   1.615   5.987 -1.2477  0.9103 -0.1088
 8968TIP3   OH248394   4.121   4.620  12.692 -0.1924 -0.3124 -0.1388
 8968TIP3    H148395   4.077   4.675  12.627 -3.5136 -1.8817  0.5684
 8968TIP3    H248396   4.131   4.536  12.648 -2.2455 -1.3179  1.1817
 8969TIP3   OH248397   6.814   1.606  16.212 -0.4269 -0.2452  0.6730
 8969TIP3    H148398   6.798   1.513  16.204 -0.3369 -0.2727  0.8068
 8969TIP3    H248399   6.753   1.635  16.280 -0.6468 -0.1554  0.4387
 8970TIP3   OH248400   3.510   6.013  16.751  0.1581 -0.1524 -0.2064
 8970TIP3    H148401   3.419   6.006  16.721  0.8668 -0.2432 -2.5045
 8970TIP3    H248402   3.503   6.017  16.846 -2.2120 -0.8414 -0.2809
 8971TIP3   OH248403   5.618   0.520  10.287 -0.3920 -0.0739 -0.1077
 8971TIP3    H148404   5.644   0.599  10.334 -0.9451 -0.2904  0.5827
 8971TIP3    H248405   5.583   0.462  10.355 -1.2666 -0.3770 -0.7911
 8972TIP3   OH248406   5.309   4.551   5.272 -0.1781  0.9480 -0.0837
 8972TIP3    H148407   5.227   4.507   5.292 -0.3974  1.5022  0.2525
 8972TIP3    H248408   5.366   4.532   5.347  0.8587 -1.4509 -1.3759
 8973TIP3   OH248409   3.187   5.144  12.136 -0.1333 -0.2864 -0.5544
 8973TIP3    H148410   3.266   5.101  12.169  1.6415  3.8944  1.3508
 8973TIP3    H248411   3.219   5.217  12.083 -2.6315  1.8528  0.6516
 8974TIP3   OH248412   0.042   3.387  11.766  0.0198  0.2972  0.4043
 8974TIP3    H148413  -0.033   3.338  11.733 -0.2113  0.5613  0.5324
 8974TIP3    H248414   0.027   3.392  11.860  0.3143  0.1536  0.4586
 8975TIP3   OH248415   6.530   3.624   0.336 -0.3674 -0.2486 -0.4455
 8975TIP3    H148416   6.574   3.655   0.416  0.9276 -1.9186 -0.4579
 8975TIP3    H248417   6.438   3.646   0.350 -0.2428 -0.8255  1.6897
 8976TIP3   OH248418   2.125   1.738  12.086  0.1076 -0.4568  0.3788
 8976TIP3    H148419   2.215   1.708  12.098  0.2041 -0.4748 -0.3468
 8976TIP3    H248420   2.099   1.703  12.001 -0.3267  0.1701  0.2436
 8977TIP3   OH248421   4.399   6.824   0.969  0.4262  0.1344  0.0129
 8977TIP3    H148422   4.399   6.885   0.895  0.0017 -0.7905 -0.7607
 8977TIP3    H248423   4.392   6.881   1.046 -0.7002  1.0290 -0.7158
 8978TIP3   OH248424   0.588   1.783   5.049 -0.2326  0.2726 -0.3074
 8978TIP3    H148425   0.555   1.873   5.051  0.1189  0.4040 -0.3847
 8978TIP3    H248426   0.553   1.746   4.968  0.0177  0.4905 -0.5152
 8979TIP3   OH248427   4.359   0.162  11.942 -0.0900  0.3972 -0.2221
 8979TIP3    H148428   4.327   0.193  12.027 -0.3198  1.0443 -0.5417
 8979TIP3    H248429   4.451   0.144  11.956  0.0066  1.0624  0.0175
 8980TIP3   OH248430   0.794   1.225   4.373  0.3277  0.1225 -0.1906
 8980TIP3    H148431   0.811   1.319   4.373  2.4642 -0.1846 -1.7762
 8980TIP3    H248432   0.718   1.214   4.315  1.6823  0.6990 -2.1525
 8981TIP3   OH248433   4.976   6.204   1.565  0.5500  0.2084  0.0879
 8981TIP3    H148434   4.943   6.123   1.603  0.9049 -0.3300 -0.7193
 8981TIP3    H248435   4.957   6.196   1.472 -1.6599  2.1437  0.2628
 8982TIP3   OH248436   3.311   4.389   2.590 -0.5460 -0.3251  0.2875
 8982TIP3    H148437   3.389   4.344   2.558  0.4076  1.9424 -0.8659
 8982TIP3    H248438   3.339   4.431   2.671 -0.4694  0.6672 -0.2365
 8983TIP3   OH248439   6.741   6.380  11.129  0.3431 -0.0830  0.2143
 8983TIP3    H148440   6.786   6.444  11.073  2.7338 -1.5070  0.3497
 8983TIP3    H248441   6.769   6.403  11.218 -0.4286 -0.0830  0.4586
 8984TIP3   OH248442   2.799   3.335  11.315  0.2695  0.2007 -0.2326
 8984TIP3    H148443   2.866   3.348  11.382 -2.0118  2.4530  1.7633
 8984TIP3    H248444   2.794   3.419  11.269 -0.8242 -0.1067 -0.7028
 8985TIP3   OH248445   4.852   5.222   2.045 -0.0327  0.2637 -0.1916
 8985TIP3    H148446   4.874   5.315   2.036  0.8268 -0.0728 -2.2098
 8985TIP3    H248447   4.936   5.180   2.066 -0.3659 -0.0948  0.4435
 8986TIP3   OH248448   6.361   4.404  12.082  0.3618 -0.1159 -0.1339
 8986TIP3    H148449   6.321   4.319  12.098 -1.3525  0.7108  0.1660
 8986TIP3    H248450   6.444   4.401  12.131  0.9319 -2.0157 -1.1088
 8987TIP3   OH248451   3.377   4.439   3.505  0.4697  0.0673  0.3572
 8987TIP3    H148452   3.332   4.356   3.521  0.8473 -0.0798  0.6514
 8987TIP3    H248453   3.308   4.505   3.513  0.0903 -0.2414 -0.2510
 8988TIP3   OH248454   4.995   4.537  13.356  0.6023 -0.1628 -0.3862
 8988TIP3    H148455   4.932   4.591  13.309 -0.5843 -0.2288  1.0505
 8988TIP3    H248456   4.992   4.452  13.312 -0.8082 -0.3532  0.0511
 8989TIP3   OH248457   0.056   3.889   1.453 -0.0010  0.2726  0.2806
 8989TIP3    H148458   0.135   3.892   1.400  1.5544  1.6090  2.4758
 8989TIP3    H248459   0.051   3.798   1.483  1.4873  0.4202  1.1003
 8990TIP3   OH248460   5.309   4.401   4.030 -0.5316  0.2097  0.2795
 8990TIP3    H148461   5.315   4.333   4.098 -0.8331 -2.0983 -1.8699
 8990TIP3    H248462   5.400   4.424   4.011 -0.4495  1.1891  1.6783
 8991TIP3   OH248463   0.115   3.640   1.090 -0.4163 -0.7451  0.2331
 8991TIP3    H148464   0.052   3.616   1.158  0.1770 -1.0543  0.6969
 8991TIP3    H248465   0.063   3.680   1.021 -0.9957 -0.0969  1.0312
 8992TIP3   OH248466   5.032   3.460   4.239 -0.1836  0.0444  0.5673
 8992TIP3    H148467   4.938   3.467   4.255  0.0907 -1.4312  3.5082
 8992TIP3    H248468   5.068   3.542   4.272 -0.3003 -0.0052  0.8155
 8993TIP3   OH248469   6.425   5.157  13.599  0.5210  0.0054  0.3578
 8993TIP3    H148470   6.516   5.173  13.621  0.7549 -0.2009 -0.4288
 8993TIP3    H248471   6.416   5.062  13.599 -0.1630  0.0230  2.2288
 8994TIP3   OH248472   5.223   0.456  14.058 -0.0881  0.1061  0.0027
 8994TIP3    H148473   5.251   0.398  13.988  0.2822 -0.0134  0.2468
 8994TIP3    H248474   5.292   0.522  14.064 -0.7762  0.9036 -0.6413
 8995TIP3   OH248475   2.541   4.917  15.223 -0.2222  0.6587 -0.0275
 8995TIP3    H148476   2.583   4.912  15.138  1.3040  0.4462  0.7050
 8995TIP3    H248477   2.612   4.903  15.286 -1.0665  2.1059  1.3143
 8996TIP3   OH248478   0.979   0.815  12.551  1.1094  0.1260 -0.4136
 8996TIP3    H148479   0.896   0.768  12.547  1.8211 -1.0733 -1.8192
 8996TIP3    H248480   0.954   0.906  12.566 -0.3382 -0.5204  1.6115
 8997TIP3   OH248481   4.316   2.456  13.464  0.6051  0.2306  0.1162
 8997TIP3    H148482   4.253   2.385  13.450  1.2333 -0.3403  0.1171
 8997TIP3    H248483   4.310   2.510  13.385 -0.0206  0.2924  0.2012
 8998TIP3   OH248484   6.492   6.450   4.556 -0.3541  0.3539  0.0459
 8998TIP3    H148485   6.486   6.383   4.488  0.6771 -1.3150  1.5101
 8998TIP3    H248486   6.585   6.471   4.560 -0.4643  0.7343  0.6582
 8999TIP3   OH248487   5.109   6.598  14.554 -0.3031  0.2765  0.1706
 8999TIP3    H148488   5.027   6.647  14.564 -0.9588 -0.4549 -1.3148
 8999TIP3    H248489   5.153   6.639  14.480 -0.0581 -0.2890 -0.0055
 9000TIP3   OH248490   1.201   3.596  13.115 -0.2574  0.5199 -0.0201
 9000TIP3    H148491   1.202   3.529  13.046 -1.0410  0.7852 -0.3011
 9000TIP3    H248492   1.289   3.594  13.152 -0.0186 -0.0711 -0.6024
 9001TIP3   OH248493   0.573   3.424   0.384  0.3573  0.4167  0.9215
 9001TIP3    H148494   0.505   3.449   0.322  0.9480  0.4353  0.2726
 9001TIP3    H248495   0.537   3.349   0.431  0.0073  0.2423  0.3760
 9002TIP3   OH248496   6.741   6.675   5.811 -0.3379  0.2898 -0.0839
 9002TIP3    H148497   6.696   6.616   5.873 -2.8352  1.3579 -0.7392
 9002TIP3    H248498   6.805   6.619   5.767 -1.5319 -1.5624  0.4047
 9003TIP3   OH248499   4.599   6.612   2.417  0.4017 -0.3465 -0.0119
 9003TIP3    H148500   4.606   6.669   2.494 -1.5550  0.5703 -0.4543
 9003TIP3    H248501   4.663   6.648   2.355  1.8133 -0.9408  1.0321
 9004TIP3   OH248502   6.788   0.553   0.827 -0.2364  0.2570 -0.5448
 9004TIP3    H148503   6.761   0.592   0.911 -1.5561  0.3413 -0.9839
 9004TIP3    H248504   6.812   0.463   0.849 -0.9904  0.1484 -0.1388
 9005TIP3   OH248505   0.413   2.345   2.633  0.3190  0.9535 -0.7572
 9005TIP3    H148506   0.349   2.312   2.570 -0.1381  1.7638 -0.7253
 9005TIP3    H248507   0.390   2.437   2.646 -0.8305  0.3845  2.0481
 9006TIP3   OH248508   3.206   3.221  16.859  0.0599  0.4812 -0.1096
 9006TIP3    H148509   3.285   3.223  16.913 -0.9459  0.1163  1.4457
 9006TIP3    H248510   3.226   3.160  16.789  1.7406  1.6749 -0.7282
 9007TIP3   OH248511   5.525   5.832  13.278 -0.4684  0.1587  0.3218
 9007TIP3    H148512   5.612   5.819  13.316  0.3776 -1.7529 -2.0091
 9007TIP3    H248513   5.465   5.796  13.343  0.8223 -1.9047  0.4726
 9008TIP3   OH248514   5.258   3.794   5.128  0.7501 -0.4475 -0.1818
 9008TIP3    H148515   5.210   3.726   5.176  1.3312 -0.9339 -0.2654
 9008TIP3    H248516   5.350   3.771   5.142  0.9988  1.0449  0.8211
 9009TIP3   OH248517   4.815   3.145  12.387  0.2895 -0.3261  0.4263
 9009TIP3    H148518   4.736   3.099  12.412  0.2193  0.4085  1.6215
 9009TIP3    H248519   4.789   3.236  12.379  0.8032 -0.2205 -0.1897
 9010TIP3   OH248520   5.612   5.355   1.142  0.2757  0.2219  0.1275
 9010TIP3    H148521   5.547   5.322   1.080 -2.0463  0.6765  2.1713
 9010TIP3    H248522   5.619   5.286   1.207  2.6778 -0.2447 -0.5251
 9011TIP3   OH248523   6.460   2.754  13.459  0.2216 -0.0346  0.0606
 9011TIP3    H148524   6.386   2.745  13.400 -0.2945  1.0993  0.5152
 9011TIP3    H248525   6.532   2.711  13.413 -0.3844  0.0345 -0.9876
 9012TIP3   OH248526   2.897   3.519   0.636  0.0643  0.3072 -0.0175
 9012TIP3    H148527   2.969   3.501   0.696  1.6027  0.8604 -1.6419
 9012TIP3    H248528   2.830   3.454   0.659  1.7273 -1.3331  0.4383
 9013TIP3   OH248529   3.765   6.349   3.542  0.0274 -1.0056 -0.3712
 9013TIP3    H148530   3.752   6.295   3.620 -0.8366 -0.9619 -0.4749
 9013TIP3    H248531   3.792   6.286   3.474 -1.4035 -1.3911 -0.6044
 9014TIP3   OH248532   6.631   5.110  15.828  0.1623  0.2147 -0.1096
 9014TIP3    H148533   6.665   5.152  15.749  1.0872  2.1000  1.2243
 9014TIP3    H248534   6.595   5.182  15.880 -2.0445 -1.1798  0.4689
 9015TIP3   OH248535   2.932   3.031   0.118  0.0853  0.0944 -0.0594
 9015TIP3    H148536   2.937   3.123   0.092 -0.0996 -0.0815 -0.7587
 9015TIP3    H248537   3.017   2.995   0.093 -0.5212 -0.3550 -1.5974
 9016TIP3   OH248538   6.123   3.614   1.824 -0.4287  0.2673 -1.0531
 9016TIP3    H148539   6.113   3.702   1.788  1.5362 -0.2472 -2.9948
 9016TIP3    H248540   6.195   3.622   1.886  0.3024 -0.1156 -1.8386
 9017TIP3   OH248541   3.486   5.595   0.928  0.0203  0.0178 -0.0310
 9017TIP3    H148542   3.451   5.590   0.839 -0.8795  1.9470  0.1581
 9017TIP3    H248543   3.569   5.641   0.918 -0.4212  0.8834  0.1791
 9018TIP3   OH248544   0.108   5.203  16.499  0.1732 -0.2698 -0.5820
 9018TIP3    H148545   0.040   5.136  16.491 -0.1209  0.1445 -1.7626
 9018TIP3    H248546   0.190   5.156  16.486  0.0608 -0.6275 -0.0136
 9019TIP3   OH248547   0.216   0.650  11.153  0.1736  0.6215 -0.0075
 9019TIP3    H148548   0.201   0.670  11.246  0.4363  0.1316  0.1473
 9019TIP3    H248549   0.228   0.735  11.111  2.7865  0.8053  0.8887
 9020TIP3   OH248550   0.366   0.801  14.759 -0.0895  0.2366  0.1641
 9020TIP3    H148551   0.424   0.875  14.776  1.2799 -0.7447 -0.0326
 9020TIP3    H248552   0.305   0.800  14.833  1.2390  0.2947  1.2996
 9021TIP3   OH248553   2.572   1.358  12.696  0.3581 -0.3433  0.2674
 9021TIP3    H148554   2.574   1.301  12.773 -1.8057 -1.5068 -0.4421
 9021TIP3    H248555   2.480   1.384  12.688  0.6516  0.2752 -1.5189
 9022TIP3   OH248556   1.778   1.946  12.016 -0.2444  0.3704  0.0861
 9022TIP3    H148557   1.764   1.992  12.098  0.5031  0.4048  0.2087
 9022TIP3    H248558   1.704   1.887  12.007  0.6471 -1.0986  1.7999
 9023TIP3   OH248559   4.900   4.419  16.164 -0.1270  0.2866  0.3848
 9023TIP3    H148560   4.821   4.366  16.160 -0.4645  0.8437 -0.9362
 9023TIP3    H248561   4.952   4.380  16.235 -1.3657 -0.3664  0.9638
 9024TIP3   OH248562   2.595   1.871   2.843 -0.1532 -0.2419  0.4050
 9024TIP3    H148563   2.549   1.888   2.925  1.5887 -0.2627  1.4431
 9024TIP3    H248564   2.526   1.868   2.777 -1.5527  0.3574  1.7683
 9025TIP3   OH248565   1.239   0.243   6.465  0.0895  1.0747  0.0191
 9025TIP3    H148566   1.268   0.197   6.544 -0.3801  0.1008 -0.3700
 9025TIP3    H248567   1.159   0.198   6.438 -0.2509  1.9607 -0.5199
 9026TIP3   OH248568   5.176   0.611   2.909 -0.0237  0.2077 -0.2825
 9026TIP3    H148569   5.147   0.521   2.896 -0.3716  0.4320 -1.1218
 9026TIP3    H248570   5.140   0.636   2.994 -3.0012  0.7239 -1.5648
 9027TIP3   OH248571   4.947   2.392   0.087  0.3570  0.4950  0.0217
 9027TIP3    H148572   5.020   2.452   0.106  1.4902 -0.8330  0.0423
 9027TIP3    H248573   4.972   2.310   0.130 -0.8894 -0.1686 -0.4633
 9028TIP3   OH248574   4.940   2.521   1.518 -0.3914 -0.7425  0.1938
 9028TIP3    H148575   5.015   2.522   1.577  1.7078 -2.0176 -2.2349
 9028TIP3    H248576   4.898   2.436   1.534  1.8421 -2.3695 -1.9021
 9029TIP3   OH248577   0.729   6.151  14.202 -0.2138  0.2825 -0.2767
 9029TIP3    H148578   0.678   6.140  14.121  0.0187 -4.4750 -0.0448
 9029TIP3    H248579   0.664   6.145  14.272  0.0391 -0.1869 -0.0769
 9030TIP3   OH248580   1.112   4.272   2.596  0.0870  0.2147  0.2258
 9030TIP3    H148581   1.136   4.358   2.561  1.5390  0.1280  0.9433
 9030TIP3    H248582   1.051   4.290   2.667 -0.0156  0.6112  0.0374
 9031TIP3   OH248583   4.892   5.073   0.392 -1.0504  0.1051 -0.2517
 9031TIP3    H148584   4.963   5.022   0.353 -1.1731 -0.0059 -0.3291
 9031TIP3    H248585   4.839   5.009   0.438 -0.4152  0.3468  0.8550
 9032TIP3   OH248586   2.625   4.494   6.034  0.3075 -0.4829  0.0349
 9032TIP3    H148587   2.578   4.570   6.069 -0.1617 -0.6477 -0.2290
 9032TIP3    H248588   2.710   4.529   6.007 -0.6645  0.4342 -2.0995
 9033TIP3   OH248589   4.758   5.309   5.894  0.3645  0.0252  0.5136
 9033TIP3    H148590   4.758   5.258   5.974  0.3501  1.2621  1.3204
 9033TIP3    H248591   4.718   5.393   5.918  2.5603  1.3413 -0.1441
 9034TIP3   OH248592   1.398   4.911   4.024  0.3781  0.3504  0.4155
 9034TIP3    H148593   1.461   4.877   4.087 -0.4887 -0.6178  0.7723
 9034TIP3    H248594   1.313   4.879   4.053 -0.3805  2.0434  0.2332
 9035TIP3   OH248595   0.400   1.801  12.505 -0.1341 -0.4712  0.4340
 9035TIP3    H148596   0.424   1.892  12.491 -1.1882 -0.2433 -0.0148
 9035TIP3    H248597   0.304   1.800  12.498 -0.0501 -1.9848 -2.2653
 9036TIP3   OH248598   4.663   4.617   0.601  0.3617 -0.5570 -0.7550
 9036TIP3    H148599   4.569   4.626   0.584  0.3083 -0.5279 -0.4352
 9036TIP3    H248600   4.669   4.588   0.692  0.6268 -1.5302 -1.0704
 9037TIP3   OH248601   5.318   0.666  11.621  0.1543  0.2358  0.0478
 9037TIP3    H148602   5.228   0.683  11.649 -0.1416 -0.3747 -0.5128
 9037TIP3    H248603   5.333   0.728  11.550  0.2328  0.4495  0.2508
 9038TIP3   OH248604   6.594   4.461  14.580  0.0551 -0.5537 -0.3059
 9038TIP3    H148605   6.641   4.388  14.539 -1.9850 -1.3058 -1.4593
 9038TIP3    H248606   6.608   4.534  14.520 -2.0928 -1.3954 -1.9729
 9039TIP3   OH248607   5.855   3.377  13.317  0.5185 -0.0259 -0.0246
 9039TIP3    H148608   5.935   3.422  13.291  0.7658  0.3145  1.2592
 9039TIP3    H248609   5.829   3.328  13.239  0.8802  1.4074 -1.0895
 9040TIP3   OH248610   2.042   3.473   1.804  0.0830  0.2523  0.4706
 9040TIP3    H148611   2.003   3.388   1.782 -1.4788  1.0200  0.1778
 9040TIP3    H248612   2.127   3.451   1.842  0.9645 -1.3307 -2.1719
 9041TIP3   OH248613   0.751   5.114  12.347  0.3794 -0.0075 -0.2436
 9041TIP3    H148614   0.766   5.124  12.253 -1.4490  1.9537 -0.3909
 9041TIP3    H248615   0.827   5.156  12.388 -0.0592  1.5092 -0.9023
 9042TIP3   OH248616   0.589   4.435  14.479  0.4364 -0.5238 -0.2785
 9042TIP3    H148617   0.550   4.375  14.543  0.4186 -0.1956  0.0210
 9042TIP3    H248618   0.679   4.404  14.469  0.0602 -1.3966 -1.1097
 9043TIP3   OH248619   5.680   5.368  11.953  0.1040  0.0736  0.5617
 9043TIP3    H148620   5.668   5.412  12.037 -0.3764  0.0656  0.5022
 9043TIP3    H248621   5.709   5.280  11.975 -1.0900 -0.2803  0.7616
 9044TIP3   OH248622   2.387   4.230  17.140  0.2567  0.3918 -0.0966
 9044TIP3    H148623   2.420   4.156  17.089  1.7893  0.7176  0.3541
 9044TIP3    H248624   2.430   4.222  17.225  1.7509  2.6269 -0.5313
 9045TIP3   OH248625   3.136   4.301   2.059 -0.0062  0.0209  0.2084
 9045TIP3    H148626   3.223   4.262   2.069  0.8929  1.5163 -1.2268
 9045TIP3    H248627   3.076   4.235   2.094  1.6453 -1.2904  0.7200
 9046TIP3   OH248628   5.049   0.576  11.904  0.6645 -0.2085  0.0231
 9046TIP3    H148629   4.988   0.597  11.975 -1.1282 -0.2068 -1.4416
 9046TIP3    H248630   5.042   0.649  11.843  2.5589  0.0376  0.0432
 9047TIP3   OH248631   3.997   3.873   3.959  0.0809 -0.5523  0.4338
 9047TIP3    H148632   4.078   3.829   3.986  0.1295 -0.1815  0.8922
 9047TIP3    H248633   3.944   3.876   4.038 -0.3927 -0.8101  0.1286
 9048TIP3   OH248634   0.166   5.408   2.559 -0.0464  0.7788  0.1701
 9048TIP3    H148635   0.249   5.361   2.569 -0.0823  0.2473 -1.6379
 9048TIP3    H248636   0.103   5.357   2.611  0.1987 -0.4454 -0.6801
 9049TIP3   OH248637   5.602   2.535  13.552  0.0424 -0.0938 -0.9915
 9049TIP3    H148638   5.570   2.587  13.478  0.3340  1.5918 -0.0001
 9049TIP3    H248639   5.657   2.596  13.601 -0.4879 -1.0323  0.8399
 9050TIP3   OH248640   4.685   3.960  13.232 -0.5717  0.2973 -0.0743
 9050TIP3    H148641   4.654   4.036  13.281  1.8507  0.9288  0.6293
 9050TIP3    H248642   4.617   3.893  13.245 -1.0317  1.1336  2.4042
 9051TIP3   OH248643   5.941   4.835  14.507  0.3882  0.4837  0.1242
 9051TIP3    H148644   5.909   4.790  14.429  0.8461  0.5994 -0.1286
 9051TIP3    H248645   6.004   4.774  14.546  1.5752  1.1989 -0.6228
 9052TIP3   OH248646   6.175   3.979   1.146 -0.6946  0.0144 -0.1140
 9052TIP3    H148647   6.090   3.949   1.115 -0.9915 -0.9976  1.5493
 9052TIP3    H248648   6.160   4.069   1.174 -1.1617 -0.0786 -0.0633
 9053TIP3   OH248649   0.229   1.095  15.413 -0.0472  0.4332 -0.2121
 9053TIP3    H148650   0.312   1.048  15.407 -0.1197  0.3607 -0.6749
 9053TIP3    H248651   0.250   1.176  15.460  0.3994  0.6870 -0.8452
 9054TIP3   OH248652   1.585   1.917   6.630  0.2665 -0.0342 -0.6751
 9054TIP3    H148653   1.631   1.924   6.546  0.4168 -1.2449 -0.7048
 9054TIP3    H248654   1.493   1.906   6.605  0.3572 -0.7781 -0.7009
 9055TIP3   OH248655   2.796   0.133  14.673 -0.4286  0.8319 -0.0096
 9055TIP3    H148656   2.831   0.098  14.591 -0.2357 -0.8246  0.7275
 9055TIP3    H248657   2.701   0.127  14.664 -0.4004  0.3616  0.0079
 9056TIP3   OH248658   4.856   4.475   0.759  0.1523 -0.2189  0.6511
 9056TIP3    H148659   4.857   4.548   0.698 -2.1599 -1.1635 -0.6453
 9056TIP3    H248660   4.849   4.516   0.845 -0.6177  1.0979 -0.0108
 9057TIP3   OH248661   2.677   5.032  13.899 -0.1337 -0.1706  0.0303
 9057TIP3    H148662   2.632   5.116  13.893 -0.7108 -0.4660  0.2236
 9057TIP3    H248663   2.628   4.974  13.841  1.0691 -0.0254 -1.1635
 9058TIP3   OH248664   3.622   4.832  14.743  0.1259  0.4121  0.0531
 9058TIP3    H148665   3.699   4.790  14.781 -0.9395 -1.0003  0.7568
 9058TIP3    H248666   3.570   4.859  14.819 -0.7831 -0.0412 -0.3926
 9059TIP3   OH248667   0.523   6.385  10.856  0.3411 -0.2754  0.5972
 9059TIP3    H148668   0.528   6.403  10.950  1.5141 -1.9609  0.8987
 9059TIP3    H248669   0.475   6.303  10.850 -1.2844  0.6873 -0.4445
 9060TIP3   OH248670   0.643   2.377   5.618 -0.1721  0.6926 -0.3263
 9060TIP3    H148671   0.737   2.361   5.602 -0.4478 -0.6282 -0.7964
 9060TIP3    H248672   0.603   2.369   5.531 -0.6511  1.9227 -0.2324
 9061TIP3   OH248673   0.617   0.746  12.822  0.1477  0.3988 -0.1159
 9061TIP3    H148674   0.540   0.715  12.869 -0.5060  0.9375 -0.7991
 9061TIP3    H248675   0.622   0.840  12.842  1.2085  0.1830  0.7060
 9062TIP3   OH248676   3.571   5.498   4.448  0.6055  0.2290  0.6517
 9062TIP3    H148677   3.569   5.564   4.518  2.8892  0.2377  0.7674
 9062TIP3    H248678   3.650   5.518   4.398  0.5819 -1.5661 -0.1736
 9063TIP3   OH248679   4.389   0.270  14.427 -0.3145 -0.2174  0.0406
 9063TIP3    H148680   4.417   0.290  14.337 -0.7999  0.5566  0.0474
 9063TIP3    H248681   4.414   0.179  14.440  1.8757  0.3158 -0.0667
 9064TIP3   OH248682   2.285   1.361  15.269 -0.6738 -0.2304 -0.3866
 9064TIP3    H148683   2.294   1.347  15.363  0.0492  2.8655  0.1152
 9064TIP3    H248684   2.370   1.337  15.233  0.0618  1.3474  0.2177
 9065TIP3   OH248685   5.022   0.553  12.990 -0.0480 -0.1961 -0.1007
 9065TIP3    H148686   5.089   0.520  13.049 -0.5337 -0.7607  0.1350
 9065TIP3    H248687   4.944   0.502  13.009 -0.2317 -0.3566 -1.1923
 9066TIP3   OH248688   0.106   4.934   1.725  0.3089 -0.1410  0.3351
 9066TIP3    H148689   0.183   4.907   1.674 -0.0709 -0.3314 -0.1515
 9066TIP3    H248690   0.031   4.906   1.671 -0.1194 -1.2498  1.4659
 9067TIP3   OH248691   1.601   5.677   3.381 -0.7259 -0.0669  0.6837
 9067TIP3    H148692   1.512   5.648   3.398 -0.3990 -1.2986  0.3427
 9067TIP3    H248693   1.604   5.691   3.286 -0.4081 -0.5359  0.6245
 9068TIP3   OH248694   2.651   4.597   0.418 -0.4332 -0.8176  0.4054
 9068TIP3    H148695   2.706   4.645   0.357  2.4366 -0.3020  3.1555
 9068TIP3    H248696   2.671   4.505   0.401  0.8515 -0.6568  0.9243
 9069TIP3   OH248697   6.565   5.729  17.187 -0.0286 -0.0835 -0.3808
 9069TIP3    H148698   6.601   5.641  17.181  0.5960  0.2508 -2.8831
 9069TIP3    H248699   6.473   5.716  17.211  0.2547 -1.3301  0.1129
 9070TIP3   OH248700   6.326   2.429  12.844  0.5005  0.3370  0.0961
 9070TIP3    H148701   6.308   2.521  12.828 -1.6064  0.1217  0.8989
 9070TIP3    H248702   6.351   2.394  12.758  0.2461  1.4077 -0.4285
 9071TIP3   OH248703   4.161   0.001   5.089  0.6488 -0.1809  0.2335
 9071TIP3    H148704   4.240  -0.012   5.143 -0.4401  0.3869  2.0454
 9071TIP3    H248705   4.092  -0.044   5.137 -0.0595 -1.2306 -1.6667
 9072TIP3   OH248706   6.553   0.803  13.265  0.1508 -0.1191  0.0481
 9072TIP3    H148707   6.461   0.829  13.275  0.1684  0.5023 -1.2042
 9072TIP3    H248708   6.550   0.710  13.243 -0.0386 -0.6711  2.1492
 9073TIP3   OH248709   3.713   2.862  15.646  0.3024 -0.2041 -0.1274
 9073TIP3    H148710   3.714   2.768  15.663 -1.8774 -0.1461  0.6366
 9073TIP3    H248711   3.622   2.888  15.658  0.9152  2.0954  0.0950
 9074TIP3   OH248712   0.456   2.616   5.047  0.3242 -0.1301  0.6432
 9074TIP3    H148713   0.365   2.641   5.055 -0.0069 -0.9959 -0.1466
 9074TIP3    H248714   0.497   2.688   4.999 -0.0703  0.0097  0.5132
 9075TIP3   OH248715   0.678   2.901   1.819  0.3701  0.4341  0.1981
 9075TIP3    H148716   0.740   2.828   1.823 -0.4961 -0.3782 -0.6656
 9075TIP3    H248717   0.612   2.880   1.885 -1.6529 -1.3106 -2.2237
 9076TIP3   OH248718   3.681   2.849   2.201 -0.3091  1.0241  0.1616
 9076TIP3    H148719   3.604   2.792   2.201  0.8917 -0.6964 -0.6522
 9076TIP3    H248720   3.649   2.933   2.170 -1.6605  0.0315 -1.2867
 9077TIP3   OH248721   2.681   3.284  12.033  0.1993  0.0406 -0.4055
 9077TIP3    H148722   2.672   3.262  12.125 -0.8231  0.7705 -0.3111
 9077TIP3    H248723   2.619   3.227  11.988  0.6648 -0.2862 -0.6385
 9078TIP3   OH248724   5.913   6.557   1.062  0.2319 -0.6181 -0.7654
 9078TIP3    H148725   5.942   6.596   1.145  1.8111  0.3022 -1.6991
 9078TIP3    H248726   5.916   6.463   1.078 -1.3425 -0.4624  0.7949
 9079TIP3   OH248727   6.455   0.154   5.902 -0.4692  0.1091 -0.1915
 9079TIP3    H148728   6.510   0.108   5.966  2.1600  1.2852 -1.4539
 9079TIP3    H248729   6.441   0.240   5.940 -1.8956 -0.3077  0.3062
 9080TIP3   OH248730   6.445   1.235  16.045  0.2586  0.1507 -0.3054
 9080TIP3    H148731   6.515   1.279  15.996  0.5241 -1.2304 -1.2463
 9080TIP3    H248732   6.413   1.168  15.984  1.2357 -2.3146  1.6793
 9081TIP3   OH248733   1.198   2.488   1.569 -0.0517  0.0477  0.2637
 9081TIP3    H148734   1.212   2.432   1.646 -0.8152 -0.2425  0.2023
 9081TIP3    H248735   1.109   2.521   1.580 -1.1032 -1.8985 -1.6688
 9082TIP3   OH248736   0.183   5.950  10.836  0.3913 -0.4761  0.0989
 9082TIP3    H148737   0.217   5.967  10.923 -0.6933 -0.4950  0.5331
 9082TIP3    H248738   0.260   5.954  10.779  1.3319 -1.8124  1.2177
 9083TIP3   OH248739   3.283   6.621  15.601 -0.0839  0.0335 -0.5574
 9083TIP3    H148740   3.293   6.571  15.682 -2.6873  0.8939  0.3708
 9083TIP3    H248741   3.226   6.568  15.546 -1.1961  0.9912 -0.3783
 9084TIP3   OH248742   5.239   4.566   6.270  0.1354  0.1209  0.0013
 9084TIP3    H148743   5.293   4.488   6.254 -0.3473 -0.1628 -0.2621
 9084TIP3    H248744   5.155   4.531   6.299 -0.3968  0.5167 -1.0247
 9085TIP3   OH248745   1.317   0.310   2.325 -0.1891 -0.0915 -0.1360
 9085TIP3    H148746   1.389   0.256   2.357 -0.3086 -0.4294 -0.4348
 9085TIP3    H248747   1.251   0.304   2.393 -0.6906 -1.3058 -0.7040
 9086TIP3   OH248748   1.505   6.490  11.520  0.1063 -0.0100  0.6879
 9086TIP3    H148749   1.599   6.469  11.519  0.0033 -0.6400  1.9074
 9086TIP3    H248750   1.494   6.541  11.601 -0.4315  0.9989  0.0026
 9087TIP3   OH248751   1.256   2.380  14.777 -0.4228  0.2568 -0.5781
 9087TIP3    H148752   1.322   2.354  14.714 -0.2614  0.8787 -0.6727
 9087TIP3    H248753   1.261   2.476  14.779 -2.0821  0.3998 -1.4122
 9088TIP3   OH248754   6.599   6.508   1.230 -0.7902  0.1589  0.0480
 9088TIP3    H148755   6.555   6.507   1.145  0.4455  2.0053 -0.7024
 9088TIP3    H248756   6.562   6.584   1.275 -0.6757 -0.1840  0.7232
 9089TIP3   OH248757   3.005   2.265  16.500  0.3305 -0.1837 -0.3751
 9089TIP3    H148758   3.078   2.308  16.456  0.2160 -0.5793 -0.9604
 9089TIP3    H248759   3.025   2.171  16.495  0.4538 -0.2231  0.6651
 9090TIP3   OH248760   5.249   2.262  11.165 -0.1145  0.2172  0.1061
 9090TIP3    H148761   5.254   2.297  11.076 -1.4270 -0.6459 -0.3471
 9090TIP3    H248762   5.275   2.170  11.156  0.5383  0.3281  0.7716
 9091TIP3   OH248763   5.647   5.378   2.737  0.0815 -0.6548 -0.1575
 9091TIP3    H148764   5.571   5.324   2.716  0.1708 -0.9464  0.2587
 9091TIP3    H248765   5.720   5.317   2.740 -0.1065 -0.8662  2.1665
 9092TIP3   OH248766   6.371   0.204  12.510 -0.2739 -0.1227 -0.1630
 9092TIP3    H148767   6.288   0.224  12.554  1.3225  0.2503  2.9684
 9092TIP3    H248768   6.409   0.290  12.491  1.2744 -0.1239  2.4800
 9093TIP3   OH248769   5.470   2.678  12.688 -0.2768 -0.1806 -0.1024
 9093TIP3    H148770   5.528   2.731  12.634 -0.6448  0.2978 -0.0385
 9093TIP3    H248771   5.496   2.698  12.778 -0.9766  0.5771 -0.0458
 9094TIP3   OH248772   1.133   6.113  16.918 -0.5611 -0.4616  0.4737
 9094TIP3    H148773   1.225   6.097  16.938 -1.1605 -1.7063  2.4788
 9094TIP3    H248774   1.126   6.209  16.915  0.8333 -0.3546  0.0147
 9095TIP3   OH248775   3.769   1.630   4.322  0.1175 -0.2279  0.2030
 9095TIP3    H148776   3.705   1.664   4.259  0.9217  1.0189  0.0418
 9095TIP3    H248777   3.853   1.641   4.278  0.3923 -3.5325 -0.3781
 9096TIP3   OH248778   5.789   0.134  14.191  0.5714  0.6104 -0.4885
 9096TIP3    H148779   5.695   0.119  14.196  0.7548 -0.4830 -0.0271
 9096TIP3    H248780   5.798   0.228  14.175 -0.5824  0.8287  0.0807
 9097TIP3   OH248781   5.575   5.561  11.776  0.4976 -0.1978 -0.1513
 9097TIP3    H148782   5.534   5.524  11.698 -0.1137 -1.2255  0.6298
 9097TIP3    H248783   5.589   5.486  11.834  0.9841  0.5354  0.7083
 9098TIP3   OH248784   2.031   0.700   3.310  0.0849  0.2789  0.1570
 9098TIP3    H148785   2.016   0.742   3.395 -1.5624  0.8447 -0.3523
 9098TIP3    H248786   2.124   0.714   3.292  0.0032  2.0793  0.8907
 9099TIP3   OH248787   3.811   4.258   0.776  0.0719 -0.0430 -0.3698
 9099TIP3    H148788   3.782   4.239   0.865 -0.1064  1.6011 -0.0396
 9099TIP3    H248789   3.898   4.220   0.770  1.3032  2.1708  1.5016
 9100TIP3   OH248790   1.246   4.242  13.727  0.1344 -0.5228 -0.2099
 9100TIP3    H148791   1.320   4.288  13.766 -0.4260 -1.2999  1.9091
 9100TIP3    H248792   1.186   4.312  13.701 -0.0393  0.0531  1.5875
 9101TIP3   OH248793   5.278   1.854  13.348  0.1336 -0.4469  0.0036
 9101TIP3    H148794   5.228   1.933  13.326  1.2783  0.6010  1.0214
 9101TIP3    H248795   5.214   1.783  13.344 -0.2994 -0.0920 -4.2943
 9102TIP3   OH248796   2.590   5.913   4.900  1.0702 -0.0202  0.0042
 9102TIP3    H148797   2.532   5.989   4.897 -0.1974 -0.9321 -2.7579
 9102TIP3    H248798   2.636   5.915   4.816  1.0425 -2.2303 -0.1352
 9103TIP3   OH248799   1.739   5.412   1.988 -0.5552 -0.1089  0.6638
 9103TIP3    H148800   1.718   5.363   2.067 -1.4904  0.2721  0.6646
 9103TIP3    H248801   1.670   5.388   1.926 -0.9310  1.0755  0.6090
 9104TIP3   OH248802   3.933   4.488  13.601  0.2051  0.5881  0.6973
 9104TIP3    H148803   3.905   4.553  13.665 -2.4841 -0.5116  0.7574
 9104TIP3    H248804   3.880   4.410  13.620  1.7081 -0.8857 -0.7769
 9105TIP3   OH248805   2.777   3.031  11.887 -0.0264  0.1145 -0.4217
 9105TIP3    H148806   2.782   2.999  11.797  0.3924  2.0107 -1.0977
 9105TIP3    H248807   2.691   3.001  11.917  0.9550 -3.0922 -0.3711
 9106TIP3   OH248808   3.594   5.028   0.559  0.4376  0.2897  0.4423
 9106TIP3    H148809   3.602   5.117   0.593  0.2011  0.2755  0.5399
 9106TIP3    H248810   3.539   5.037   0.481  0.7209  0.2792  0.2388
 9107TIP3   OH248811   2.693   4.556   1.978 -0.8602  0.1014  0.6203
 9107TIP3    H148812   2.786   4.539   1.962 -0.9951 -0.6899  0.6587
 9107TIP3    H248813   2.648   4.508   1.909 -1.1801  2.1219 -0.6570
 9108TIP3   OH248814   5.679   2.221   5.463  0.2549  0.4531  0.5202
 9108TIP3    H148815   5.601   2.277   5.467 -1.2022 -1.4201  0.3305
 9108TIP3    H248816   5.713   2.232   5.375 -0.1456  0.8759  0.4158
 9109TIP3   OH248817   3.770   5.005   3.736  0.0913  0.4427  0.9801
 9109TIP3    H148818   3.838   4.964   3.789  0.3166 -0.5288 -0.0207
 9109TIP3    H248819   3.744   4.937   3.674 -1.5264  0.9115  1.0962
 9110TIP3   OH248820   0.123   2.914  13.569  0.0892  0.5619 -0.0423
 9110TIP3    H148821   0.206   2.961  13.570 -0.0755  1.0813 -2.7689
 9110TIP3    H248822   0.127   2.859  13.491 -1.2400 -1.1447  1.0168
 9111TIP3   OH248823   3.379   5.252   4.787 -0.1133  0.5914  0.0912
 9111TIP3    H148824   3.313   5.205   4.837  0.9804 -2.2091 -0.9252
 9111TIP3    H248825   3.332   5.326   4.749 -2.5810 -1.0396 -0.2566
 9112TIP3   OH248826   1.530   1.334  12.534 -0.2776 -0.4046 -0.2027
 9112TIP3    H148827   1.531   1.335  12.630 -1.3316 -0.1716 -0.1823
 9112TIP3    H248828   1.489   1.417  12.510 -2.4137 -1.5540 -0.7832
 9113TIP3   OH248829   0.739   1.197   0.568 -0.4414 -0.1506  0.1878
 9113TIP3    H148830   0.815   1.229   0.518 -0.8322  0.2412 -0.1759
 9113TIP3    H248831   0.727   1.262   0.637  2.3740 -2.5695  3.2190
 9114TIP3   OH248832   0.025   2.232   3.878  0.4966 -0.1806  0.0285
 9114TIP3    H148833  -0.057   2.273   3.905  1.2779  1.1350  0.4810
 9114TIP3    H248834   0.008   2.138   3.883 -0.4839  0.0518  1.7076
 9115TIP3   OH248835   4.946   5.235  12.756  0.1047 -0.1309  0.2353
 9115TIP3    H148836   4.920   5.173  12.687 -1.1736  0.0958  0.4806
 9115TIP3    H248837   4.880   5.222  12.825 -0.8597  2.2309 -0.1434
 9116TIP3   OH248838   4.515   1.221   1.771  0.2880 -0.3095 -0.4127
 9116TIP3    H148839   4.545   1.148   1.716  1.6830 -2.2448  2.6290
 9116TIP3    H248840   4.438   1.187   1.817 -0.3717  0.9574 -0.5441
 9117TIP3   OH248841   3.442   3.753  17.129  0.1326  0.2165  0.1670
 9117TIP3    H148842   3.400   3.806  17.060  0.4383 -0.2025 -0.3537
 9117TIP3    H248843   3.416   3.795  17.211  0.2512  1.0785 -0.2281
 9118TIP3   OH248844   3.701   0.418  13.033 -0.1625 -0.6106 -0.0317
 9118TIP3    H148845   3.782   0.412  12.982  1.0411  0.6383  1.6104
 9118TIP3    H248846   3.650   0.486  12.990  0.5517 -0.0303  0.0097
 9119TIP3   OH248847   4.895   2.970   1.951  0.5062  0.3123 -0.2734
 9119TIP3    H148848   4.810   3.000   1.982 -0.0598 -2.5924  1.3544
 9119TIP3    H248849   4.874   2.902   1.886  1.5865  0.0899 -0.4130
 9120TIP3   OH248850   0.653   0.283   0.623 -0.3647  0.1510  0.5376
 9120TIP3    H148851   0.607   0.239   0.552  0.8834 -0.2792 -0.0424
 9120TIP3    H248852   0.591   0.348   0.656 -0.4356  1.5627 -2.0791
 9121TIP3   OH248853   6.520   6.428  12.025 -0.3586  0.9963 -0.6896
 9121TIP3    H148854   6.452   6.429  11.958  0.1982 -2.6517 -1.5599
 9121TIP3    H248855   6.474   6.448  12.107 -2.4887 -1.0328 -1.2865
 9122TIP3   OH248856   1.820   0.958  15.670 -0.2197 -0.2706  0.1252
 9122TIP3    H148857   1.830   0.953  15.765  0.6513 -0.4153  0.0364
 9122TIP3    H248858   1.833   1.051  15.650 -0.4366 -0.2346  0.1489
 9123TIP3   OH248859   5.122   3.885  12.578  0.3712 -0.0049  0.0062
 9123TIP3    H148860   5.152   3.799  12.547  2.8581  1.4478 -1.9423
 9123TIP3    H248861   5.090   3.928  12.499 -3.4684  0.0126  1.3791
 9124TIP3   OH248862   1.579   2.387   0.657 -0.3825  0.0278 -0.2183
 9124TIP3    H148863   1.505   2.418   0.606  0.0004 -0.4091 -1.0489
 9124TIP3    H248864   1.653   2.385   0.596  0.0993 -0.4394  0.3590
 9125TIP3   OH248865   4.777   0.604  12.656  0.0839 -0.9975  0.5304
 9125TIP3    H148866   4.689   0.586  12.623 -0.8769  0.8350  1.9152
 9125TIP3    H248867   4.835   0.563  12.592 -1.7411 -1.0062 -1.2376
 9126TIP3   OH248868   5.609   0.573  14.686  0.1178  0.0441  0.0356
 9126TIP3    H148869   5.592   0.492  14.636  1.2194  0.8768 -1.8085
 9126TIP3    H248870   5.681   0.550  14.745 -0.2077 -0.5703  0.2054
 9127TIP3   OH248871   0.095   6.111   6.481  0.4361 -0.1337  0.0608
 9127TIP3    H148872   0.075   6.018   6.491  1.4332 -0.4469 -0.6590
 9127TIP3    H248873   0.067   6.151   6.563  1.8197 -1.4014  1.2070
 9128TIP3   OH248874   0.455   4.331  16.787 -0.0190 -0.2884 -0.3133
 9128TIP3    H148875   0.401   4.350  16.710 -0.0083 -1.2876 -0.5731
 9128TIP3    H248876   0.541   4.367  16.766 -0.6973  1.9312  0.3704
 9129TIP3   OH248877   3.271   0.309   1.633  0.2514 -0.3403  0.6893
 9129TIP3    H148878   3.331   0.237   1.650 -0.7494 -1.2956  0.2811
 9129TIP3    H248879   3.311   0.385   1.675  2.6590 -0.5332 -1.0509
 9130TIP3   OH248880   2.817   0.688  15.699 -0.3472  0.2063 -0.0516
 9130TIP3    H148881   2.807   0.778  15.731 -0.1451  0.6268 -1.1294
 9130TIP3    H248882   2.790   0.692  15.608 -2.4578 -1.2947  0.4257
 9131TIP3   OH248883   3.071   2.230  12.881 -0.3234  0.4153 -0.0680
 9131TIP3    H148884   3.032   2.175  12.949 -0.0290 -0.2409 -0.4176
 9131TIP3    H248885   3.165   2.214  12.888 -0.1512  1.5963  0.4323
 9132TIP3   OH248886   5.602   3.570  13.649  0.3529 -0.7292 -0.3792
 9132TIP3    H148887   5.614   3.487  13.695  2.2994  1.6395  4.0297
 9132TIP3    H248888   5.690   3.593  13.617  0.0124 -0.0075 -0.8346
 9133TIP3   OH248889   2.800   0.128   5.360  0.3554  0.0030 -0.5601
 9133TIP3    H148890   2.843   0.209   5.334 -0.5681  1.7319  2.6614
 9133TIP3    H248891   2.709   0.139   5.331  0.1420  0.3603  0.1979
 9134TIP3   OH248892   1.366   3.789   3.721  0.2039 -0.1654 -0.2334
 9134TIP3    H148893   1.394   3.700   3.743  1.2941  0.3162  0.3842
 9134TIP3    H248894   1.446   3.835   3.697 -0.0463  1.1728  1.3039
 9135TIP3   OH248895   4.068   5.620  15.002  1.1325 -0.1330  0.6021
 9135TIP3    H148896   4.132   5.598  14.935  2.0780  1.3609  0.9668
 9135TIP3    H248897   4.054   5.538  15.049  2.9421 -0.4654  0.6375
 9136TIP3   OH248898   2.868   6.533  11.176 -0.6338  0.0071  0.4304
 9136TIP3    H148899   2.809   6.506  11.105 -0.8345  0.1411  0.5440
 9136TIP3    H248900   2.953   6.495  11.153 -0.0579  2.0709 -1.1980
 9137TIP3   OH248901   4.887   5.947  12.232 -0.0629  0.2993 -0.4863
 9137TIP3    H148902   4.821   5.981  12.171  0.1516  0.0688 -0.8495
 9137TIP3    H248903   4.945   5.895  12.177 -0.1727 -0.3496  0.0073
 9138TIP3   OH248904   6.450   5.741  15.809  0.2690  0.7328 -0.1442
 9138TIP3    H148905   6.454   5.690  15.728  0.4208 -1.2876  1.0503
 9138TIP3    H248906   6.379   5.803  15.795 -2.0436 -1.8294 -0.6582
 9139TIP3   OH248907   1.008   2.082   0.111  0.8644 -0.4692  0.0427
 9139TIP3    H148908   1.103   2.076   0.123  1.0296  1.4070 -0.1092
 9139TIP3    H248909   0.974   2.093   0.200  0.7544 -1.2965  0.1124
 9140TIP3   OH248910   4.489   4.135  11.586  0.2315 -0.0584  0.8689
 9140TIP3    H148911   4.422   4.171  11.528  2.1659  1.5328 -0.5063
 9140TIP3    H248912   4.572   4.157  11.544  1.6621 -1.9958  2.4768
 9141TIP3   OH248913   2.182   5.220   5.294  0.2323 -0.1768 -0.4954
 9141TIP3    H148914   2.258   5.247   5.346  0.0965  0.9384 -0.8499
 9141TIP3    H248915   2.108   5.229   5.354  0.2025  0.0971 -0.5755
 9142TIP3   OH248916   4.195   4.102   4.838 -0.4562  0.2413 -0.0902
 9142TIP3    H148917   4.218   4.019   4.795  0.2200  1.0011 -1.2198
 9142TIP3    H248918   4.277   4.131   4.878 -0.3635  1.0504 -0.8634
 9143TIP3   OH248919   1.003   2.301   0.367 -0.5606 -0.1959 -0.3899
 9143TIP3    H148920   1.049   2.218   0.363 -0.7494 -0.2644 -2.3634
 9143TIP3    H248921   1.033   2.342   0.448  0.6577 -1.5329 -0.1300
 9144TIP3   OH248922   4.886   0.611   2.377 -0.2094 -0.6256 -0.5054
 9144TIP3    H148923   4.945   0.592   2.449  3.1387  0.2629 -2.7381
 9144TIP3    H248924   4.898   0.539   2.315 -4.3235 -2.3244  0.3165
 9145TIP3   OH248925   0.528   2.052  12.477 -0.2110  0.2709  0.2931
 9145TIP3    H148926   0.610   2.028  12.519 -0.6400 -0.3588  0.8034
 9145TIP3    H248927   0.536   2.146  12.460  2.4342 -0.4334 -3.8025
 9146TIP3   OH248928   0.675   6.790  15.439 -0.2210  0.0338  0.9050
 9146TIP3    H148929   0.761   6.794  15.481  0.1090 -0.8037  0.3425
 9146TIP3    H248930   0.688   6.829  15.353 -0.4976  0.2597  0.9640
 9147TIP3   OH248931   1.789   0.600  16.782 -0.2206 -0.1926 -0.5897
 9147TIP3    H148932   1.715   0.619  16.725  0.0830 -1.4872 -1.4455
 9147TIP3    H248933   1.862   0.583  16.723  0.3842 -0.4604  0.2109
 9148TIP3   OH248934   2.949   4.965  16.626  0.8189  0.0656 -0.3575
 9148TIP3    H148935   3.025   5.007  16.666  1.0446 -0.6923  0.0407
 9148TIP3    H248936   2.976   4.874  16.614 -0.1837 -0.3315  0.2524
 9149TIP3   OH248937   2.964   0.345   3.483  0.2589  0.2896  0.5761
 9149TIP3    H148938   2.922   0.430   3.497 -0.1198 -0.1461  2.3576
 9149TIP3    H248939   2.893   0.287   3.457  0.5583  0.5467 -0.8817
 9150TIP3   OH248940   2.007   5.131  11.063 -0.0081  0.1315  0.2073
 9150TIP3    H148941   1.929   5.093  11.104  0.2293 -1.2219 -0.5204
 9150TIP3    H248942   2.072   5.061  11.066  0.2907  0.2728 -1.6649
 9151TIP3   OH248943   5.960   3.839   0.752 -0.4937 -0.1857  0.1898
 9151TIP3    H148944   5.938   3.867   0.841 -0.0350 -2.1280  0.9844
 9151TIP3    H248945   5.920   3.904   0.695 -1.0125  0.9743  1.8101
 9152TIP3   OH248946   1.105   3.817  14.806 -0.0162  0.3683  0.0161
 9152TIP3    H148947   1.091   3.737  14.755 -0.3003  0.0409  0.5946
 9152TIP3    H248948   1.102   3.887  14.741 -0.4991 -0.0288 -0.4055
 9153TIP3   OH248949   5.428   1.681  16.940  0.3524 -0.1453  0.2702
 9153TIP3    H148950   5.367   1.689  16.866 -0.7184  0.5294  1.1919
 9153TIP3    H248951   5.466   1.769  16.948  0.8301 -0.3463  0.2252
 9154TIP3   OH248952   4.307   2.404  16.752 -0.0488 -0.3495 -0.3221
 9154TIP3    H148953   4.375   2.366  16.807 -1.2392 -0.1938  1.3354
 9154TIP3    H248954   4.310   2.498  16.771 -0.4254 -0.2813 -0.5727
 9155TIP3   OH248955   6.033   0.611  12.140  0.3727 -0.0370  0.0596
 9155TIP3    H148956   6.068   0.543  12.198  0.8891 -1.1614 -1.4816
 9155TIP3    H248957   5.945   0.582  12.119 -0.1214  0.7989  0.8922
 9156TIP3   OH248958   5.542   4.116   2.956  0.2976 -0.0772  0.3873
 9156TIP3    H148959   5.522   4.026   2.984  1.8069 -0.8620 -0.8958
 9156TIP3    H248960   5.613   4.144   3.014  0.5258 -0.1041  0.1227
 9157TIP3   OH248961   4.081   1.512   1.015  0.4042 -0.3051 -0.7519
 9157TIP3    H148962   4.047   1.550   0.935  0.3459  0.7222 -0.2467
 9157TIP3    H248963   4.106   1.586   1.069 -0.1631 -0.9635  0.4560
 9158TIP3   OH248964   6.810   1.565   0.246  0.1875 -0.5805  0.1669
 9158TIP3    H148965   6.728   1.517   0.262  0.2447 -1.0145 -0.7755
 9158TIP3    H248966   6.872   1.528   0.308 -0.5563  0.4091  1.5568
 9159TIP3   OH248967   0.569   4.005  16.729  0.2381  0.1418 -0.2201
 9159TIP3    H148968   0.568   3.928  16.786 -1.1928  2.5463  3.3388
 9159TIP3    H248969   0.477   4.023  16.712  0.5270  1.2524 -0.7146
 9160TIP3   OH248970   3.036   6.640   2.733  0.2976 -0.2725 -0.2636
 9160TIP3    H148971   3.006   6.730   2.748 -0.5783 -0.3411 -1.4656
 9160TIP3    H248972   3.130   6.644   2.750  0.2830  0.8799 -0.3186
 9161TIP3   OH248973   4.576   4.223   6.578  0.0246 -0.6042  0.3260
 9161TIP3    H148974   4.622   4.282   6.638 -1.2918  0.3736  0.4173
 9161TIP3    H248975   4.531   4.282   6.517  0.0678 -1.5613 -0.6525
 9162TIP3   OH248976   6.811   4.316  12.158  0.1909 -0.3355 -0.3746
 9162TIP3    H148977   6.904   4.297  12.144  0.0012 -1.6554  0.0264
 9162TIP3    H248978   6.797   4.301  12.252 -0.2165  0.8479 -0.2322
 9163TIP3   OH248979   4.715   0.752  15.411 -0.5859  0.0913 -0.5936
 9163TIP3    H148980   4.735   0.844  15.395 -1.4255  0.4110  0.1315
 9163TIP3    H248981   4.705   0.714  15.323 -0.5998  0.7734 -0.8896
 9164TIP3   OH248982   1.396   3.881   1.633  0.4064 -0.1965  0.0235
 9164TIP3    H148983   1.459   3.925   1.690 -0.6443  0.5455  0.6526
 9164TIP3    H248984   1.311   3.901   1.672 -0.1828 -1.9076 -0.2841
 9165TIP3   OH248985   2.648   6.436  14.310  0.6316  0.3555 -0.1974
 9165TIP3    H148986   2.679   6.346  14.317  1.5962  0.6616 -0.3720
 9165TIP3    H248987   2.626   6.461  14.400  1.7647  0.4216  0.0746
 9166TIP3   OH248988   4.202   5.408   0.386 -0.3873 -0.2252 -0.0562
 9166TIP3    H148989   4.178   5.486   0.335 -2.5310 -1.1237 -0.5271
 9166TIP3    H248990   4.252   5.354   0.325  0.6161  0.5064  0.0968
 9167TIP3   OH248991   3.031   5.146   5.403 -0.3144  0.0286 -0.3986
 9167TIP3    H148992   3.004   5.069   5.453 -0.1406  0.1489 -0.1189
 9167TIP3    H248993   3.108   5.179   5.449  0.2720 -0.2659 -1.1489
 9168TIP3   OH248994   2.905   1.654   4.376 -0.1735 -0.2442 -0.0127
 9168TIP3    H148995   2.886   1.578   4.432  0.2888 -0.5405 -0.2497
 9168TIP3    H248996   2.899   1.619   4.287 -0.8264  0.2043 -0.1531
 9169TIP3   OH248997   0.048   4.548   6.770 -0.1712 -0.2360 -0.0573
 9169TIP3    H148998   0.050   4.621   6.709 -0.2407 -0.6699 -0.5858
 9169TIP3    H248999   0.135   4.508   6.764 -0.5698 -1.0282 -0.8089
 9170TIP3   OH249000   1.171   1.726   4.939  0.0133  0.0564 -0.1627
 9170TIP3    H149001   1.233   1.797   4.953 -0.0221  0.0778 -0.1118
 9170TIP3    H249002   1.091   1.770   4.909  0.3236 -0.0529 -1.1779
 9171TIP3   OH249003   6.243   6.344  14.267  0.0486  0.1587 -0.0885
 9171TIP3    H149004   6.254   6.351  14.362 -1.0489 -0.7722  0.1307
 9171TIP3    H249005   6.293   6.418  14.232  0.4118  0.5656  1.2112
 9172TIP3   OH249006   1.262   0.530   0.825 -0.2833  0.1901  0.5828
 9172TIP3    H149007   1.348   0.566   0.843  0.2422 -0.4904 -0.4493
 9172TIP3    H249008   1.278   0.439   0.802 -1.2136  0.1896 -0.1494
 9173TIP3   OH249009   3.352   3.851   4.312 -0.8661  0.4063 -0.0123
 9173TIP3    H149010   3.369   3.932   4.358  0.8522 -0.4474  0.9491
 9173TIP3    H249011   3.366   3.782   4.377 -2.9125 -0.6806 -0.6164
 9174TIP3   OH249012   0.704   6.217  16.788  0.1202  0.2711  0.4063
 9174TIP3    H149013   0.686   6.261  16.871  0.4771 -0.9638  1.1614
 9174TIP3    H249014   0.661   6.272  16.722 -0.9224  0.8033  1.4913
 9175TIP3   OH249015   5.861   1.833   2.039  0.3122  0.3113  0.6821
 9175TIP3    H149016   5.895   1.883   1.965  2.0189 -1.7005 -0.0174
 9175TIP3    H249017   5.844   1.746   2.003  1.2796 -0.7654  2.6383
 9176TIP3   OH249018   3.455   3.289   1.139 -0.0460  0.9003 -0.3760
 9176TIP3    H149019   3.412   3.206   1.163 -2.2120  1.9363 -0.4112
 9176TIP3    H249020   3.463   3.286   1.044 -0.9210  1.0772 -0.4609
 9177TIP3   OH249021   3.098   2.271   3.733  0.3107  0.2691 -0.2597
 9177TIP3    H149022   3.160   2.254   3.804 -0.0310  0.3976  0.0691
 9177TIP3    H249023   3.026   2.210   3.749  0.1551  0.4156 -0.4025
 9178TIP3   OH249024   3.559   0.575   2.990  0.3696 -0.5379 -0.0198
 9178TIP3    H149025   3.617   0.500   2.975 -1.2172 -1.9114  0.3716
 9178TIP3    H249026   3.593   0.617   3.068  0.6990 -1.4725  0.3448
 9179TIP3   OH249027   6.589   1.358   2.895  0.5321 -0.6609 -0.4586
 9179TIP3    H149028   6.666   1.372   2.949  2.4527 -2.2721 -2.5885
 9179TIP3    H249029   6.550   1.277   2.929  0.4283 -0.4580 -0.0920
 9180TIP3   OH249030   6.776   4.975   2.678  0.0165 -0.2297  0.2803
 9180TIP3    H149031   6.733   5.030   2.612  2.4874  0.9705 -0.4640
 9180TIP3    H249032   6.813   4.902   2.629  2.3918  0.9842  0.1173
 9181TIP3   OH249033   2.674   2.531   3.482  0.2756  0.3468  0.6349
 9181TIP3    H149034   2.651   2.623   3.477 -3.3937 -0.3100  2.1926
 9181TIP3    H249035   2.666   2.499   3.392  0.7865  1.3568  0.2151
 9182TIP3   OH249036   6.788   5.395  13.448 -0.1652  0.0139  0.1523
 9182TIP3    H149037   6.784   5.301  13.466  0.1968 -0.2331 -0.9783
 9182TIP3    H249038   6.827   5.401  13.361 -0.5495  1.2008  0.0482
 9183TIP3   OH249039   2.341   4.230  13.987  0.3441 -0.3155 -0.2448
 9183TIP3    H149040   2.262   4.186  14.018 -0.7273  0.9125 -1.1350
 9183TIP3    H249041   2.321   4.255  13.897  1.6080  0.3789 -0.3608
 9184TIP3   OH249042   6.496   0.969   0.336  0.1683  0.6054  0.0939
 9184TIP3    H149043   6.445   0.938   0.411 -0.3139  0.3259 -0.3436
 9184TIP3    H249044   6.565   0.905   0.325  0.7685  1.1116  0.8384
 9185TIP3   OH249045   6.398   1.067   0.095 -0.4116 -0.2596  0.6374
 9185TIP3    H149046   6.413   1.042   0.186 -1.1814 -0.9232  0.5914
 9185TIP3    H249047   6.333   1.138   0.100 -0.3626 -0.2135  0.6147
 9186TIP3   OH249048   1.387   3.107   4.834 -0.0966 -0.3734 -0.0219
 9186TIP3    H149049   1.446   3.118   4.908 -0.1676  0.7740 -0.1123
 9186TIP3    H249050   1.369   3.013   4.831  1.7414 -0.7598 -0.0276
 9187TIP3   OH249051   4.997   1.250  10.582 -0.0676  0.1610 -0.3655
 9187TIP3    H149052   4.936   1.322  10.566  0.8725  0.5491 -2.6221
 9187TIP3    H249053   4.952   1.172  10.550  0.3805  0.3726 -1.5639
 9188TIP3   OH249054   2.548   0.288  13.609  0.4570  0.5248  0.0057
 9188TIP3    H149055   2.467   0.327  13.577  0.4763  0.1588 -0.5033
 9188TIP3    H249056   2.537   0.194  13.596  1.5175  0.5661 -1.4179
 9189TIP3   OH249057   3.888   4.472  11.184 -0.0031 -0.1151  0.0545
 9189TIP3    H149058   3.858   4.420  11.109  0.2219 -1.5723  0.9364
 9189TIP3    H249059   3.928   4.550  11.145 -1.2979 -0.0681 -1.2743
 9190TIP3   OH249060   2.165   2.647   3.372  0.1277  0.9376 -0.2024
 9190TIP3    H149061   2.194   2.671   3.460 -3.0308 -1.5678  1.7248
 9190TIP3    H249062   2.082   2.693   3.361 -0.0512  0.3466 -1.4218
 9191TIP3   OH249063   5.186   2.264  10.817  0.1613  0.0729 -0.3530
 9191TIP3    H149064   5.233   2.345  10.797 -0.3057  0.6170  0.6480
 9191TIP3    H249065   5.252   2.207  10.856  0.0412  0.8324  1.0429
 9192TIP3   OH249066   4.202   5.929   0.802  0.0950 -0.8237  0.1264
 9192TIP3    H149067   4.133   5.894   0.858 -0.3659 -0.8709 -0.4627
 9192TIP3    H249068   4.194   6.024   0.812  0.2228 -0.8393  0.3863
 9193TIP3   OH249069   5.881   4.918   3.274 -0.0924  0.0564  0.3120
 9193TIP3    H149070   5.790   4.896   3.292 -0.4093  2.0797  1.4512
 9193TIP3    H249071   5.932   4.864   3.335 -0.8014  1.8215  2.6051
 9194TIP3   OH249072   0.626   4.048  14.643  0.1017  0.7798 -0.1206
 9194TIP3    H149073   0.677   4.108  14.590 -2.4311  3.5712  0.3158
 9194TIP3    H249074   0.639   4.078  14.733  0.2763 -0.5798  0.3352
 9195TIP3   OH249075   2.009   4.108  15.444 -0.6853 -0.7693 -0.5814
 9195TIP3    H149076   2.062   4.142  15.372 -0.4863  0.1509 -0.0156
 9195TIP3    H249077   1.981   4.186  15.492  0.5393 -1.4146  1.3034
 9196TIP3   OH249078   4.223   0.997   0.508  0.2010  0.5343  0.2763
 9196TIP3    H149079   4.181   1.005   0.423  0.8330  1.2953  0.0260
 9196TIP3    H249080   4.196   0.911   0.540  0.6607 -0.1265 -1.0685
 9197TIP3   OH249081   2.609   0.398  10.604  0.7178  0.0589 -0.0964
 9197TIP3    H149082   2.645   0.455  10.672 -1.1739 -1.6397  2.5348
 9197TIP3    H249083   2.515   0.415  10.606 -0.0813 -3.6652  1.5035
 9198TIP3   OH249084   1.854   4.016   5.881 -0.3769  0.3933  0.3498
 9198TIP3    H149085   1.829   4.018   5.973 -3.9829 -0.9315 -0.4360
 9198TIP3    H249086   1.791   4.075   5.838  1.4050  1.2114 -1.3007
 9199TIP3   OH249087   2.921   5.916   2.378  0.5240  0.0703  0.0259
 9199TIP3    H149088   2.883   5.832   2.353  1.0688 -0.2657  0.2999
 9199TIP3    H249089   2.853   5.959   2.429  0.2396 -0.2039 -0.1204
 9200TIP3   OH249090   0.720   5.085  15.604 -0.9386  0.5577  0.0557
 9200TIP3    H149091   0.752   5.175  15.598 -0.3531  0.4181  0.8352
 9200TIP3    H249092   0.744   5.057  15.693 -0.1986 -0.6966 -0.5079
 9201TIP3   OH249093   5.905   3.138  16.589  0.3071  0.2541  0.0243
 9201TIP3    H149094   5.987   3.135  16.540 -0.5571 -2.6029 -1.5086
 9201TIP3    H249095   5.839   3.157  16.523 -0.3625  2.3729  1.2104
 9202TIP3   OH249096   1.236   1.392   5.761 -0.3335  0.0663 -0.0587
 9202TIP3    H149097   1.312   1.369   5.707 -0.2572 -1.1567  0.5385
 9202TIP3    H249098   1.264   1.374   5.851 -1.8511 -2.1183  0.0660
 9203TIP3   OH249099   5.917   0.397  13.914  0.3115  0.7768 -0.1275
 9203TIP3    H149100   6.011   0.407  13.927  1.1530 -2.8908 -2.0976
 9203TIP3    H249101   5.899   0.446  13.834  0.4237  1.7056  0.3954
 9204TIP3   OH249102   0.856   0.186  10.815  0.1313 -0.3061 -0.0048
 9204TIP3    H149103   0.929   0.230  10.860  0.6222 -0.8780 -0.2227
 9204TIP3    H249104   0.782   0.197  10.874  0.6280 -0.5306  0.6827
 9205TIP3   OH249105   5.731   2.960   4.546 -0.5376 -0.0074  0.5341
 9205TIP3    H149106   5.809   2.906   4.543 -0.3509  0.2578 -2.2937
 9205TIP3    H249107   5.680   2.925   4.619  1.8015 -0.7076  1.9212
 9206TIP3   OH249108   4.121   0.490  16.640 -0.2287 -0.2118 -0.0574
 9206TIP3    H149109   4.089   0.568  16.596  0.9852  1.1994  1.4359
 9206TIP3    H249110   4.101   0.418  16.580  0.7701  1.5169 -2.5956
 9207TIP3   OH249111   4.572   6.264   0.949  0.7600  0.2657  0.0801
 9207TIP3    H149112   4.648   6.270   1.006  0.1980 -2.2139  1.2585
 9207TIP3    H249113   4.497   6.272   1.008  0.1322  0.0143 -0.6623
 9208TIP3   OH249114   2.902   0.743   1.292 -0.6306  0.2987 -0.1912
 9208TIP3    H149115   2.918   0.823   1.243  0.7354  1.3880  1.8638
 9208TIP3    H249116   2.988   0.715   1.322 -1.4401  0.3712  2.5051
 9209TIP3   OH249117   1.636   5.663  14.866 -0.1714  0.2196 -0.0477
 9209TIP3    H149118   1.712   5.700  14.820  0.1174  0.3723  0.5415
 9209TIP3    H249119   1.588   5.739  14.899  0.4290  0.0886  1.1752
 9210TIP3   OH249120   4.601   2.516  11.778 -0.0993 -0.2469 -0.5700
 9210TIP3    H149121   4.651   2.472  11.710 -1.4962 -0.9770 -1.1605
 9210TIP3    H249122   4.509   2.507  11.751 -0.6221  0.2998  0.8994
 9211TIP3   OH249123   5.781   0.578   4.023  0.5380  0.1920 -0.1970
 9211TIP3    H149124   5.808   0.667   4.046 -0.6396  0.3178  0.7327
 9211TIP3    H249125   5.727   0.589   3.944 -2.2887  0.7297  1.6785
 9212TIP3   OH249126   1.150   5.086  11.116 -0.6349  0.0071  0.7967
 9212TIP3    H149127   1.133   5.170  11.158 -0.7738  0.6191 -0.4390
 9212TIP3    H249128   1.201   5.107  11.038 -0.2577 -1.1059  0.7175
 9213TIP3   OH249129   2.201   6.772   2.030  0.1680 -0.0680  0.0441
 9213TIP3    H149130   2.116   6.813   2.015 -0.1721 -0.6794  0.2442
 9213TIP3    H249131   2.209   6.708   1.959 -0.2043 -1.0329  0.8548
 9214TIP3   OH249132   6.070   5.076  12.631 -0.2962 -0.0603  0.1680
 9214TIP3    H149133   6.052   5.002  12.573 -0.6997 -0.3369  0.6335
 9214TIP3    H249134   6.154   5.055  12.672 -0.7868 -0.6688  0.9044
 9215TIP3   OH249135   1.769   5.520   2.679 -0.1113 -0.2464  0.4975
 9215TIP3    H149136   1.685   5.498   2.639 -0.7135 -0.3199  1.7560
 9215TIP3    H249137   1.834   5.474   2.625 -0.7649  0.6118 -1.0960
 9216TIP3   OH249138   6.670   1.635  16.668 -0.3772 -0.4163  0.2492
 9216TIP3    H149139   6.703   1.690  16.739  1.3751 -1.2468  0.1247
 9216TIP3    H249140   6.582   1.609  16.697 -0.9492  1.7482  0.6657
 9217TIP3   OH249141   5.941   4.150  15.800  0.3828 -0.2917 -0.3756
 9217TIP3    H149142   5.854   4.167  15.835  0.7002 -0.1457  0.3563
 9217TIP3    H249143   5.988   4.106  15.871  0.2624 -2.3399 -1.4824
 9218TIP3   OH249144   0.512   6.031   1.305 -0.2031  0.4838  0.1014
 9218TIP3    H149145   0.445   5.979   1.348 -0.5165  0.7858 -0.0196
 9218TIP3    H249146   0.497   6.018   1.212 -0.4773  1.0298  0.0638
 9219TIP3   OH249147   1.452   0.152  14.952 -0.1370  0.6569 -0.9319
 9219TIP3    H149148   1.536   0.136  14.909 -0.3619 -2.1006 -0.5791
 9219TIP3    H249149   1.400   0.199  14.887  1.7074  2.6579 -1.0621
 9220TIP3   OH249150   5.441   3.395  16.458 -0.2226  0.1908 -0.2944
 9220TIP3    H149151   5.378   3.438  16.401 -0.7087  0.5183  0.4753
 9220TIP3    H249152   5.426   3.434  16.544 -0.1335 -0.9574  0.2595
 9221TIP3   OH249153   1.258   3.090   6.463  0.2050  0.3888  0.4923
 9221TIP3    H149154   1.345   3.124   6.485  0.5029 -0.0139 -0.0401
 9221TIP3    H249155   1.225   3.151   6.397 -0.2666  1.0114  1.2805
 9222TIP3   OH249156   0.064   5.451  16.402  0.2520 -0.1909  0.0509
 9222TIP3    H149157   0.042   5.503  16.479 -1.5954 -0.0317 -0.5466
 9222TIP3    H249158   0.073   5.361  16.435  0.9568  0.0983  0.6747
 9223TIP3   OH249159   5.921   3.918   1.029  0.1328  0.0732  0.0742
 9223TIP3    H149160   5.846   3.964   0.991 -0.3293  0.0340  0.9126
 9223TIP3    H249161   5.882   3.853   1.088  0.7988  1.1986  1.8685
 9224TIP3   OH249162   0.570   3.822  14.798  0.3286 -0.1808 -0.9212
 9224TIP3    H149163   0.478   3.810  14.774 -0.4442  3.2227 -0.1593
 9224TIP3    H249164   0.602   3.888  14.737  1.2816  1.0851  0.8556
 9225TIP3   OH249165   2.555   0.283   3.484  0.1496 -0.4140 -0.3597
 9225TIP3    H149166   2.493   0.341   3.441 -0.6900 -0.8837  0.1954
 9225TIP3    H249167   2.626   0.272   3.420 -0.3055  0.1748 -0.9764
 9226TIP3   OH249168   3.451   5.875  12.750 -0.2649  0.5232 -0.2277
 9226TIP3    H149169   3.504   5.819  12.807  0.3721 -0.4973 -1.7233
 9226TIP3    H249170   3.369   5.887  12.796  0.5435  0.4964  1.2846
 9227TIP3   OH249171   1.580   4.744   2.448 -0.0706 -0.5585  0.0940
 9227TIP3    H149172   1.652   4.687   2.473  0.6755  0.3783  0.1614
 9227TIP3    H249173   1.552   4.785   2.530 -0.6106 -0.8289  0.0501
 9228TIP3   OH249174   4.298   0.023  11.305 -0.3197 -0.1055 -0.5498
 9228TIP3    H149175   4.214   0.011  11.261 -0.4894 -0.8332 -0.0448
 9228TIP3    H249176   4.350  -0.053  11.278  0.2800  0.4817 -1.0799
 9229TIP3   OH249177   3.198   0.373  16.807 -0.6424  0.1822  0.4724
 9229TIP3    H149178   3.118   0.320  16.813  0.1250 -0.8441  2.6895
 9229TIP3    H249179   3.255   0.323  16.747 -1.8377  1.2803 -1.6962
 9230TIP3   OH249180   0.411   0.976   4.274  0.2235  0.1238  0.7117
 9230TIP3    H149181   0.378   0.894   4.236 -0.3640  0.7100 -0.0797
 9230TIP3    H249182   0.411   0.961   4.368 -0.8892 -0.4197  0.6351
 9231TIP3   OH249183   1.992   3.929   0.488 -0.0413 -0.4344 -0.3342
 9231TIP3    H149184   2.048   3.951   0.414 -0.2618  1.2103 -0.0537
 9231TIP3    H249185   2.052   3.915   0.562  0.0404  1.4795  0.0057
 9232TIP3   OH249186   2.296   2.728   5.908  0.4053 -0.0483  0.0910
 9232TIP3    H149187   2.281   2.758   5.998 -0.5644 -1.0098  0.2685
 9232TIP3    H249188   2.254   2.642   5.904 -1.3212  0.7774 -1.8249
 9233TIP3   OH249189   0.901   3.209   2.380 -0.2062  0.5658  0.1523
 9233TIP3    H149190   0.976   3.234   2.326  0.3532 -0.1507  0.5856
 9233TIP3    H249191   0.847   3.289   2.385  0.1802  0.8861 -0.7192
 9234TIP3   OH249192   3.066   5.507  12.773 -0.3751  0.1295 -0.0278
 9234TIP3    H149193   3.097   5.490  12.684 -2.4147  0.4204 -0.8534
 9234TIP3    H249194   3.037   5.422  12.805 -0.3346  0.1536  0.0723
 9235TIP3   OH249195   4.042   3.942   2.446 -0.8542 -0.3809  0.2497
 9235TIP3    H149196   4.126   3.981   2.471 -0.5191  0.1483 -1.5118
 9235TIP3    H249197   4.065   3.859   2.405 -1.2394 -0.5658  0.4086
 9236TIP3   OH249198   0.131   1.912  11.732  0.4321 -0.2445 -0.4802
 9236TIP3    H149199   0.042   1.910  11.697  1.0994 -0.6168 -2.2657
 9236TIP3    H249200   0.143   2.001  11.763 -0.4780 -0.1142 -0.4958
 9237TIP3   OH249201   6.109   2.455  16.095 -0.0543  0.2541  0.5275
 9237TIP3    H149202   6.192   2.493  16.123  1.0874 -0.9331 -1.0586
 9237TIP3    H249203   6.058   2.447  16.176  1.1363  1.5295  1.4483
 9238TIP3   OH249204   4.811   0.605  16.630 -0.2328 -0.0689 -0.3202
 9238TIP3    H149205   4.750   0.538  16.600 -0.8623 -0.3764  1.5285
 9238TIP3    H249206   4.805   0.674  16.563  1.0985 -2.1289 -2.7668
 9239TIP3   OH249207   1.802   2.223  13.901  0.1776 -0.5341 -0.1544
 9239TIP3    H149208   1.740   2.242  13.971 -0.1389  0.6017 -0.7201
 9239TIP3    H249209   1.855   2.150  13.935 -0.1716 -0.2188  1.1237
 9240TIP3   OH249210   2.897   4.431   0.281 -0.4633  0.4390 -0.2741
 9240TIP3    H149211   2.856   4.457   0.198  1.4967 -1.0436 -1.8116
 9240TIP3    H249212   2.984   4.470   0.278  1.8002 -3.9848 -1.6878
 9241TIP3   OH249213   2.697   0.555  10.793  0.5258 -0.4330 -0.2265
 9241TIP3    H149214   2.687   0.648  10.772 -1.9243 -1.0142 -2.0450
 9241TIP3    H249215   2.739   0.554  10.879 -0.5616  2.3716  0.4364
 9242TIP3   OH249216   2.382   4.408  11.358  0.3069  0.4167  0.5365
 9242TIP3    H149217   2.323   4.422  11.433  1.3870  0.8301  1.3358
 9242TIP3    H249218   2.345   4.333  11.312 -0.2510  0.0016  1.6266
 9243TIP3   OH249219   2.254   0.266  13.589  0.3261 -0.0145 -0.2167
 9243TIP3    H149220   2.218   0.219  13.664  1.2745  1.4120  1.1790
 9243TIP3    H249221   2.228   0.357  13.603 -0.7523  0.0858 -2.4189
 9244TIP3   OH249222   5.308   4.550  11.101  0.0252  0.6455 -0.3587
 9244TIP3    H149223   5.353   4.632  11.079  0.5700  0.4222 -0.0946
 9244TIP3    H249224   5.237   4.544  11.036  1.4856  0.0976 -1.9697
 9245TIP3   OH249225   3.881   4.359   2.037 -0.4358  0.1399 -0.3617
 9245TIP3    H149226   3.924   4.287   1.992 -1.3787 -0.2185 -0.7229
 9245TIP3    H249227   3.862   4.326   2.124  2.0784  1.0918  0.6224
 9246TIP3   OH249228   0.957   5.212   4.682 -0.3362  0.6630  0.0049
 9246TIP3    H149229   1.029   5.150   4.668 -0.3734  0.5656  0.2456
 9246TIP3    H249230   0.999   5.288   4.721 -0.3039  0.7567 -0.2122
 9247TIP3   OH249231   2.223   5.042   0.169 -0.0176  0.0773  0.3773
 9247TIP3    H149232   2.176   4.958   0.169 -1.3324  0.7640 -1.2347
 9247TIP3    H249233   2.224   5.068   0.261 -1.9521 -0.4597  0.5961
 9248TIP3   OH249234   6.088   5.875   5.185 -0.1828  0.1965 -0.9474
 9248TIP3    H149235   6.132   5.958   5.200  5.1083 -2.2448 -0.4722
 9248TIP3    H249236   6.101   5.857   5.092  0.7080 -0.9416 -0.6334
 9249TIP3   OH249237   2.788   5.694   5.553 -0.3685 -0.2779  0.5908
 9249TIP3    H149238   2.867   5.686   5.607 -0.2223  0.2878  0.4722
 9249TIP3    H249239   2.811   5.761   5.488 -0.7267 -0.5730  0.1538
 9250TIP3   OH249240   3.119   0.140   0.040  0.3196 -0.8016  0.0223
 9250TIP3    H149241   3.053   0.197   0.001  2.8120  1.7310 -0.8558
 9250TIP3    H249242   3.186   0.131  -0.028  1.8298 -1.5851  1.5339
 9251TIP3   OH249243   2.455   1.785   1.818  0.2754  0.0062  0.0794
 9251TIP3    H149244   2.439   1.692   1.832  1.4356 -0.4010 -1.0672
 9251TIP3    H249245   2.542   1.789   1.778  0.9083  1.6981  1.4781
 9252TIP3   OH249246   1.719   5.937  11.679  0.1734  0.3189 -0.5104
 9252TIP3    H149247   1.641   5.980  11.642  0.6688  2.0107  0.2756
 9252TIP3    H249248   1.720   5.850  11.639 -1.3041  0.7738 -1.6492
 9253TIP3   OH249249   4.416   2.102  10.991 -0.1281  0.9122  0.0121
 9253TIP3    H149250   4.320   2.110  10.990 -0.0673  1.9051  0.2622
 9253TIP3    H249251   4.439   2.101  11.084  0.0727  0.0526 -0.0390
 9254TIP3   OH249252   0.738   3.843  13.942 -0.3726  0.1456  0.0320
 9254TIP3    H149253   0.823   3.874  13.973 -0.4125 -1.1556  1.5335
 9254TIP3    H249254   0.681   3.920  13.950  0.3060  0.6229  0.4254
 9255TIP3   OH249255   3.578   4.787  14.465  0.1861 -0.5665  0.6775
 9255TIP3    H149256   3.610   4.809  14.552 -0.2623  1.9533  0.2634
 9255TIP3    H249257   3.657   4.766  14.414  0.6090 -0.2466  1.2034
 9256TIP3   OH249258   6.406   3.701   5.693 -0.0838 -0.7362  0.1386
 9256TIP3    H149259   6.454   3.784   5.690 -0.0450 -0.7729 -0.5154
 9256TIP3    H249260   6.355   3.705   5.774  0.8502 -0.5981  0.7327
 9257TIP3   OH249261   0.134   5.256   4.236 -0.5604  0.8782  0.0579
 9257TIP3    H149262   0.230   5.258   4.240 -0.4689  0.5474 -1.4231
 9257TIP3    H249263   0.114   5.252   4.142 -1.9626 -1.5531  0.3955
 9258TIP3   OH249264   2.364   0.956  14.005  0.1815  0.5569  0.3784
 9258TIP3    H149265   2.413   0.932  13.927  0.9402 -1.0484  1.2999
 9258TIP3    H249266   2.401   1.040  14.032  0.1171  0.9804 -0.7808
 9259TIP3   OH249267   4.342   2.853  15.869 -0.2835 -0.1303 -0.4714
 9259TIP3    H149268   4.307   2.937  15.838  1.2682  0.9252  0.4918
 9259TIP3    H249269   4.266   2.794  15.870 -1.3678  1.1856 -1.3739
 9260TIP3   OH249270   3.294   5.827  16.988  0.5132 -0.3470 -0.9172
 9260TIP3    H149271   3.290   5.749  16.932  1.1127  0.6830 -2.4497
 9260TIP3    H249272   3.237   5.890  16.945 -0.9336 -0.2643  0.9538
 9261TIP3   OH249273   3.453   0.027   1.881  0.5392  0.1927  0.2752
 9261TIP3    H149274   3.418  -0.032   1.814  0.9754  0.7469 -0.4606
 9261TIP3    H249275   3.384   0.091   1.896  0.5874  0.2937  0.0684
 9262TIP3   OH249276   5.745   2.844  11.420 -0.0581  0.3247  0.0972
 9262TIP3    H149277   5.662   2.842  11.373 -1.3660  1.4941  2.2060
 9262TIP3    H249278   5.725   2.806  11.506  2.1609 -1.4913 -0.0952
 9263TIP3   OH249279   5.315   3.701  15.016 -0.0958  0.5624 -0.0671
 9263TIP3    H149280   5.355   3.743  15.092  3.0172  0.2500 -1.3977
 9263TIP3    H249281   5.326   3.763  14.945  0.0033 -0.4635 -0.9712
 9264TIP3   OH249282   6.453   4.366  16.935 -0.0352 -0.3141 -0.4748
 9264TIP3    H149283   6.454   4.389  16.842 -0.5681 -1.3400 -0.7398
 9264TIP3    H249284   6.530   4.310  16.947  0.4676  0.4293 -0.1210
 9265TIP3   OH249285   6.592   5.311  15.109 -0.0255 -0.0408  0.6198
 9265TIP3    H149286   6.631   5.360  15.037  0.0218  0.2841  0.8631
 9265TIP3    H249287   6.596   5.219  15.081 -0.4312  0.1197  0.0127
 9266TIP3   OH249288   6.167   5.055   5.482 -0.0667  0.0663 -0.4789
 9266TIP3    H149289   6.241   5.080   5.426 -0.5075  1.6026 -0.4155
 9266TIP3    H249290   6.208   5.024   5.563  0.5321  0.8097 -0.4808
 9267TIP3   OH249291   2.372   6.364   5.672  0.0733 -0.5630 -0.1209
 9267TIP3    H149292   2.303   6.307   5.639 -0.3135 -0.2099  0.0788
 9267TIP3    H249293   2.452   6.310   5.665  0.0693 -0.4106 -1.9135
 9268TIP3   OH249294   1.679   0.880   4.009  0.1853  0.2653 -0.2192
 9268TIP3    H149295   1.689   0.813   4.077 -0.8860  0.6578  0.3489
 9268TIP3    H249296   1.618   0.944   4.047  1.2080  1.5941 -0.7348
 9269TIP3   OH249297   6.263   6.771   2.787  0.5854 -0.8889  0.1919
 9269TIP3    H149298   6.200   6.740   2.852 -0.8127 -1.6038 -1.4471
 9269TIP3    H249299   6.214   6.776   2.705  1.4752  2.8408 -0.3075
 9270TIP3   OH249300   4.455   3.801   0.404  0.0634 -0.0408 -0.1111
 9270TIP3    H149301   4.429   3.789   0.313  0.3103  0.8969 -0.3222
 9270TIP3    H249302   4.501   3.720   0.427  0.3505 -0.1297 -0.9476
 9271TIP3   OH249303   1.472   4.275  11.545  0.1543 -0.9789 -0.0914
 9271TIP3    H149304   1.406   4.233  11.601 -3.2656  1.5074 -1.9692
 9271TIP3    H249305   1.455   4.241  11.458 -0.1897  1.3301 -0.9882
 9272TIP3   OH249306   5.388   1.001   4.667  0.5996 -0.2099 -0.4515
 9272TIP3    H149307   5.411   0.916   4.630 -0.5721 -0.8050  0.1348
 9272TIP3    H249308   5.449   1.013   4.740  0.7079 -0.5933 -0.4779
 9273TIP3   OH249309   6.133   0.330   1.712 -0.0358 -0.3676 -0.0066
 9273TIP3    H149310   6.196   0.310   1.782 -1.8937 -1.2375  1.5179
 9273TIP3    H249311   6.153   0.420   1.687 -0.4502  0.7200  3.0564
 9274TIP3   OH249312   3.475   4.583  16.277 -0.3485 -0.5902 -0.2092
 9274TIP3    H149313   3.566   4.600  16.303 -0.4220 -2.2644  1.4034
 9274TIP3    H249314   3.472   4.606  16.184  0.9753  2.1178  0.3069
 9275TIP3   OH249315   2.090   4.149  16.829  0.7840  0.3464 -0.9317
 9275TIP3    H149316   2.122   4.236  16.806  0.3668  0.4806 -1.0202
 9275TIP3    H249317   2.021   4.165  16.893  0.8154  0.0709 -0.8280
 9276TIP3   OH249318   2.174   0.538   6.099  0.3425 -0.0164 -0.1012
 9276TIP3    H149319   2.253   0.585   6.125 -1.3125  2.4191  0.9184
 9276TIP3    H249320   2.149   0.489   6.178 -1.2365  2.4125  1.0554
 9277TIP3   OH249321   5.770   6.666   4.433 -0.3995  0.5394  0.2262
 9277TIP3    H149322   5.793   6.700   4.520  0.9874 -0.8308  0.4464
 9277TIP3    H249323   5.726   6.583   4.451  0.3150  0.0198 -0.3923
 9278TIP3   OH249324   5.755   1.359   5.644 -0.1422  0.0886  0.0338
 9278TIP3    H149325   5.814   1.284   5.654 -0.7663 -0.2919  1.0330
 9278TIP3    H249326   5.668   1.319   5.637 -0.3828  0.6878 -0.4765
 9279TIP3   OH249327   0.182   4.827  14.023  0.2094 -0.5634  0.4600
 9279TIP3    H149328   0.220   4.774  14.093  1.2090 -0.2100  0.2008
 9279TIP3    H249329   0.233   4.907  14.022  0.2976 -0.6044 -0.7414
 9280TIP3   OH249330   5.934   3.512  16.184  0.2752 -0.0311  0.1986
 9280TIP3    H149331   5.883   3.581  16.227 -0.3115 -0.9158  0.9489
 9280TIP3    H249332   5.995   3.482  16.251  1.5900  0.7715 -0.5852
 9281TIP3   OH249333   5.289   4.592  14.238  0.1784 -0.5270 -0.4440
 9281TIP3    H149334   5.212   4.580  14.294 -0.7059 -0.0976 -1.5199
 9281TIP3    H249335   5.357   4.538  14.277 -0.6060 -0.7269  0.6685
 9282TIP3   OH249336   1.690   3.296   3.355  0.2352  0.5558  0.0020
 9282TIP3    H149337   1.710   3.262   3.268 -0.5512 -0.0039  0.0340
 9282TIP3    H249338   1.741   3.378   3.361  0.1256  0.7148 -1.0562
 9283TIP3   OH249339   4.164   5.754  13.550 -0.3041  0.3781 -0.0509
 9283TIP3    H149340   4.135   5.729  13.638  1.0193 -1.7450 -0.1348
 9283TIP3    H249341   4.112   5.700  13.491  0.8655 -0.4548 -0.3732
 9284TIP3   OH249342   0.879   1.484   4.313 -0.1874  0.2160 -0.0229
 9284TIP3    H149343   0.972   1.478   4.335 -0.2551  1.2898  0.6674
 9284TIP3    H249344   0.875   1.547   4.241 -0.2582 -0.9682 -1.0814
 9285TIP3   OH249345   4.350   4.184   5.327  0.1702 -0.1303  0.1875
 9285TIP3    H149346   4.430   4.142   5.294 -1.4528 -2.7891 -0.7282
 9285TIP3    H249347   4.378   4.230   5.406  3.0196  1.1139 -1.3926
 9286TIP3   OH249348   2.858   3.432  12.654 -0.0460  0.0640  0.4354
 9286TIP3    H149349   2.848   3.525  12.676 -0.7467  0.3127 -0.8215
 9286TIP3    H249350   2.886   3.391  12.735  2.4802  1.7241  0.5101
 9287TIP3   OH249351   0.345   3.914   3.626 -0.0123  0.2379  0.0993
 9287TIP3    H149352   0.391   3.935   3.707  1.7553  0.5177 -0.9091
 9287TIP3    H249353   0.414   3.915   3.559 -1.4036 -0.0108 -1.3993
 9288TIP3   OH249354   2.329   0.461   4.355 -0.0966 -1.1418 -0.2104
 9288TIP3    H149355   2.336   0.555   4.371 -1.3906 -0.8378 -1.2025
 9288TIP3    H249356   2.356   0.420   4.437  2.1348  0.0249 -0.3135
 9289TIP3   OH249357   4.467   3.241   2.453 -0.1608  0.0509 -0.5694
 9289TIP3    H149358   4.476   3.155   2.494  0.5128 -0.2045 -1.2499
 9289TIP3    H249359   4.507   3.301   2.515  0.8759 -0.3393 -0.8451
 9290TIP3   OH249360   4.571   2.106  15.046  0.2240 -0.0059  0.2211
 9290TIP3    H149361   4.501   2.125  15.109 -1.4352  0.4943 -1.6744
 9290TIP3    H249362   4.645   2.158  15.076 -1.2634  2.0644  0.5067
 9291TIP3   OH249363   4.752   0.258   4.581  0.0288 -0.1352  0.4034
 9291TIP3    H149364   4.672   0.214   4.609 -0.5987  2.1317  2.5658
 9291TIP3    H249365   4.721   0.330   4.525  0.2334  1.9042  2.7331
 9292TIP3   OH249366   2.940   3.682  16.702  0.0591 -0.5295 -0.2087
 9292TIP3    H149367   2.884   3.711  16.775  0.7497 -1.4113  0.6955
 9292TIP3    H249368   2.968   3.594  16.727 -0.2676 -1.1566 -1.8968
 9293TIP3   OH249369   6.223   1.370  12.036 -0.4631  0.1350 -0.3695
 9293TIP3    H149370   6.204   1.376  11.942  1.6483  1.0585 -0.8048
 9293TIP3    H249371   6.243   1.277  12.050 -1.3672 -0.1208 -0.6828
 9294TIP3   OH249372   1.162   3.494   2.836 -0.0766  0.4797 -0.5541
 9294TIP3    H149373   1.153   3.428   2.905  1.2084  0.5642 -0.2742
 9294TIP3    H249374   1.108   3.567   2.866  0.4629  0.5158  0.3983
 9295TIP3   OH249375   4.128   6.494  12.473 -0.7328  0.4927  0.2523
 9295TIP3    H149376   4.102   6.444  12.395 -1.4964  1.4264 -0.1122
 9295TIP3    H249377   4.204   6.544  12.444 -0.8882  0.6800  0.1649
 9296TIP3   OH249378   5.691   0.410  11.355  0.4937  0.3890  0.2308
 9296TIP3    H149379   5.753   0.473  11.394 -0.1733  1.9012 -1.0389
 9296TIP3    H249380   5.605   0.450  11.368  0.0138 -0.4239 -0.3363
 9297TIP3   OH249381   5.952   2.783   4.542 -0.0372  0.1381 -0.2581
 9297TIP3    H149382   5.980   2.815   4.628 -1.1495 -1.5581  0.7855
 9297TIP3    H249383   5.929   2.692   4.556 -2.3227  0.3701 -1.8878
 9298TIP3   OH249384   1.697   2.738   5.639 -0.1844 -0.9000 -0.2971
 9298TIP3    H149385   1.668   2.827   5.620  0.9538 -0.5420 -0.4573
 9298TIP3    H249386   1.617   2.690   5.660 -0.8319  0.1108 -0.4013
 9299TIP3   OH249387   6.348   1.273  14.674 -0.6479 -0.5383 -0.4698
 9299TIP3    H149388   6.268   1.325  14.662  1.8300  3.7705 -0.3570
 9299TIP3    H249389   6.377   1.294  14.763  1.3904 -0.7711 -1.0465
 9300TIP3   OH249390   0.869   3.621  12.832  0.1645  0.0426  0.1364
 9300TIP3    H149391   0.930   3.646  12.763 -1.6951  0.3682 -1.4583
 9300TIP3    H249392   0.839   3.704  12.869 -0.7406 -0.0448 -0.3907
 9301TIP3   OH249393   1.963   1.147   3.914  0.1009  0.2954  0.3632
 9301TIP3    H149394   1.953   1.241   3.903  0.7140  0.3613  0.3545
 9301TIP3    H249395   1.906   1.125   3.988  0.6378  0.8156  0.9394
 9302TIP3   OH249396   5.893   6.187   6.171  0.0361 -0.0672  0.4798
 9302TIP3    H149397   5.944   6.232   6.238  2.4244 -2.8386  0.7201
 9302TIP3    H249398   5.813   6.161   6.215 -0.1313  1.4176  1.1071
 9303TIP3   OH249399   4.157   5.483   0.798 -0.1943  0.7632 -0.0951
 9303TIP3    H149400   4.062   5.471   0.797 -0.0703 -0.3257 -0.2216
 9303TIP3    H249401   4.171   5.566   0.754 -1.0914  0.9134 -0.1135
 9304TIP3   OH249402   4.576   2.274   3.545 -0.0890  0.1390  0.6812
 9304TIP3    H149403   4.584   2.364   3.512 -0.0214  0.5227  1.7028
 9304TIP3    H249404   4.562   2.285   3.639  0.6140 -0.9422  0.9254
 9305TIP3   OH249405   5.523   3.246  13.205 -0.2836  0.0329 -0.0711
 9305TIP3    H149406   5.442   3.270  13.160  0.3075  1.5244 -0.4006
 9305TIP3    H249407   5.540   3.319  13.265  1.2116  0.1140 -0.5561
 9306TIP3   OH249408   5.322   6.354  12.893 -0.7664  0.3285  0.6259
 9306TIP3    H149409   5.379   6.430  12.881 -1.1640  0.9016  2.1034
 9306TIP3    H249410   5.382   6.281  12.907 -0.3616  0.7667  1.2770
 9307TIP3   OH249411   1.150   0.165   2.622  0.1791  0.0189  0.4632
 9307TIP3    H149412   1.108   0.182   2.537 -3.2625  2.0830  2.3618
 9307TIP3    H249413   1.228   0.219   2.621 -0.6492  1.2750 -0.8167
 9308TIP3   OH249414   2.900   0.161   0.422  0.3000 -0.2722 -0.1562
 9308TIP3    H149415   2.823   0.108   0.440  0.1440  0.0259  0.0690
 9308TIP3    H249416   2.958   0.146   0.497  1.3296 -2.0182 -1.2235
 9309TIP3   OH249417   3.818   4.720   3.242  0.2895 -0.0948 -0.5045
 9309TIP3    H149418   3.874   4.710   3.165 -0.2781 -2.6709 -0.6670
 9309TIP3    H249419   3.733   4.748   3.206  0.8736  1.8906 -0.4429
 9310TIP3   OH249420   5.774   3.858   1.489 -0.3954  0.7180 -0.1174
 9310TIP3    H149421   5.788   3.790   1.423  0.7131  1.4172 -0.6273
 9310TIP3    H249422   5.861   3.880   1.521 -0.6715  2.2851 -0.3556
 9311TIP3   OH249423   4.462   6.764   3.325  0.3802  0.5354 -0.3086
 9311TIP3    H149424   4.377   6.769   3.280  0.1654 -0.5002 -0.0416
 9311TIP3    H249425   4.494   6.854   3.325 -0.9776  1.0432  0.0761
 9312TIP3   OH249426   2.588   2.569   4.078 -0.2052 -1.0189  0.3959
 9312TIP3    H149427   2.660   2.512   4.102  2.0176  1.6557  0.6349
 9312TIP3    H249428   2.571   2.549   3.986  0.9974 -1.5528  0.2807
 9313TIP3   OH249429   6.628   4.421   5.485  0.2057 -0.4710  0.1293
 9313TIP3    H149430   6.621   4.464   5.400 -0.7219 -0.7793  0.0380
 9313TIP3    H249431   6.644   4.329   5.465  0.5323 -0.4511  0.2968
 9314TIP3   OH249432   3.222   2.482  12.596 -0.2887  0.4740 -0.2094
 9314TIP3    H149433   3.175   2.400  12.610 -0.6130  0.6247 -0.4200
 9314TIP3    H249434   3.169   2.531  12.533  0.1482  0.6448 -0.4525
 9315TIP3   OH249435   2.306   3.315   4.269  0.6686 -0.4144  0.4392
 9315TIP3    H149436   2.351   3.369   4.334  1.3740 -1.0710  0.5148
 9315TIP3    H249437   2.373   3.253   4.238  1.4259  2.0173 -3.4818
 9316TIP3   OH249438   3.157   1.971  16.384  0.6988  0.5674 -0.4006
 9316TIP3    H149439   3.155   1.939  16.474  2.1335 -0.1120 -0.5839
 9316TIP3    H249440   3.206   2.053  16.388  1.9574 -0.1453 -0.7334
 9317TIP3   OH249441   5.200   3.608  10.905 -0.1906 -0.2987 -0.1947
 9317TIP3    H149442   5.225   3.621  10.814  0.7414 -0.6522 -0.0053
 9317TIP3    H249443   5.199   3.513  10.917 -1.0719 -0.2793 -0.0298
 9318TIP3   OH249444   0.443   5.108  11.089  0.2450  0.3152 -0.1927
 9318TIP3    H149445   0.461   5.201  11.105 -0.9939  0.2112  2.2440
 9318TIP3    H249446   0.390   5.107  11.009  0.6739  1.6348 -0.5227
 9319TIP3   OH249447   1.424   3.676   4.335 -0.0279 -0.1571 -0.0760
 9319TIP3    H149448   1.437   3.685   4.430 -1.5437  0.3368  0.1036
 9319TIP3    H249449   1.342   3.721   4.318 -0.7098 -1.8010 -1.3499
 9320TIP3   OH249450   3.120   1.137   3.379 -0.1773  0.1486  0.1176
 9320TIP3    H149451   3.099   1.186   3.458  0.3770 -0.2816  0.5432
 9320TIP3    H249452   3.214   1.152   3.365  0.6471 -2.7246  1.6980
 9321TIP3   OH249453   3.421   1.341  11.303 -0.1087 -0.5491  0.0452
 9321TIP3    H149454   3.408   1.398  11.227 -1.1920  0.5823  1.0200
 9321TIP3    H249455   3.433   1.402  11.376  0.6707 -1.6094  0.8233
 9322TIP3   OH249456   5.245   5.533   2.755 -0.3266 -0.2119  0.1553
 9322TIP3    H149457   5.302   5.579   2.817 -0.6117  0.1220  0.1691
 9322TIP3    H249458   5.212   5.601   2.697 -0.2297 -0.4963 -0.2348
 9323TIP3   OH249459   2.810   6.098  11.376  0.0191  0.3914 -0.7270
 9323TIP3    H149460   2.785   6.008  11.357 -0.4964 -0.3395  2.8615
 9323TIP3    H249461   2.899   6.105  11.342  0.8385 -2.1552  0.6245
 9324TIP3   OH249462   1.109   4.288  12.657 -0.2045  0.0109 -0.5714
 9324TIP3    H149463   1.126   4.348  12.730  0.0741  1.2932 -1.6529
 9324TIP3    H249464   1.045   4.225  12.691 -0.7949  1.1538  0.4816
 9325TIP3   OH249465   0.955   5.984   5.115  0.1145  0.5256 -0.4832
 9325TIP3    H149466   0.890   6.036   5.068 -0.2476 -0.3352 -0.9710
 9325TIP3    H249467   0.954   6.018   5.204 -0.7727  0.7501 -0.5695
 9326TIP3   OH249468   5.657   1.699   0.379  0.0058 -0.6913  0.6038
 9326TIP3    H149469   5.726   1.651   0.335 -2.5352 -1.8604 -2.4732
 9326TIP3    H249470   5.648   1.781   0.330 -0.2478 -0.1687  1.4911
 9327TIP3   OH249471   0.475   6.037  16.710  0.3107  0.3285  0.1565
 9327TIP3    H149472   0.425   5.956  16.702  1.1524 -0.1189 -0.6939
 9327TIP3    H249473   0.530   6.024  16.787  1.2045 -0.3331 -0.5857
 9328TIP3   OH249474   4.285   3.958   1.894 -0.1021 -0.2866 -0.1983
 9328TIP3    H149475   4.255   3.994   1.977  0.4216  0.2415 -0.2351
 9328TIP3    H249476   4.302   3.865   1.912 -1.8286 -0.6495 -0.1969
 9329TIP3   OH249477   2.867   1.547   2.429 -0.0254 -0.0487  0.3313
 9329TIP3    H149478   2.954   1.536   2.391  0.8599  1.6019  1.7269
 9329TIP3    H249479   2.878   1.525   2.522 -0.6755  1.6636  0.8665
 9330TIP3   OH249480   4.291   5.561  12.534  0.5587  0.5479 -0.2954
 9330TIP3    H149481   4.332   5.479  12.505  1.2900  0.9750 -0.5051
 9330TIP3    H249482   4.350   5.629  12.502 -0.0257  1.1554 -0.0889
 9331TIP3   OH249483   0.930   4.364   1.622 -0.4837  0.0986  0.0284
 9331TIP3    H149484   1.004   4.399   1.671 -1.6968  1.8758  0.7160
 9331TIP3    H249485   0.903   4.435   1.564 -2.3648  0.0092  0.6862
 9332TIP3   OH249486   5.495   0.466   5.488  0.7878 -0.2076 -0.1774
 9332TIP3    H149487   5.452   0.461   5.403  0.4132 -1.7999  0.0805
 9332TIP3    H249488   5.561   0.397   5.487  3.4641  2.1288 -0.5569
 9333TIP3   OH249489   0.137   3.465   0.814 -0.2767 -0.4891 -0.4903
 9333TIP3    H149490   0.134   3.502   0.902 -0.1846  0.6355 -0.9345
 9333TIP3    H249491   0.195   3.390   0.821  0.2782 -0.0095  0.2717
 9334TIP3   OH249492   0.854   4.971   2.080  0.4429  0.1707  0.5352
 9334TIP3    H149493   0.873   5.025   2.157  0.1574  1.3319 -0.1714
 9334TIP3    H249494   0.796   5.026   2.027  0.4514 -0.6984 -0.4023
 9335TIP3   OH249495   1.803   6.700   0.098  0.0531 -0.0624 -0.0174
 9335TIP3    H149496   1.868   6.767   0.120  0.2433 -0.0120 -0.7020
 9335TIP3    H249497   1.725   6.749   0.074 -1.0638 -0.1344  3.0653
 9336TIP3   OH249498   4.909   0.159  13.869 -0.0519  0.5569  0.0972
 9336TIP3    H149499   4.870   0.097  13.806  0.9999  0.0303 -0.0617
 9336TIP3    H249500   4.987   0.192  13.825  0.1501  0.9441  0.7341
 9337TIP3   OH249501   0.902   0.521  12.947  0.3200  0.9717  0.0243
 9337TIP3    H149502   0.902   0.595  13.007 -1.6121 -0.9889  2.6937
 9337TIP3    H249503   0.810   0.507  12.926  0.8595  0.9550 -2.7147
 9338TIP3   OH249504   3.654   4.486  15.446  0.0871 -0.0298 -0.2558
 9338TIP3    H149505   3.667   4.394  15.422  0.8602  0.0589 -0.2032
 9338TIP3    H249506   3.693   4.493  15.533 -0.4957  0.2144 -0.0149
 9339TIP3   OH249507   2.056   2.849   4.323 -0.4269  0.2188 -0.2592
 9339TIP3    H149508   2.069   2.905   4.399  0.5705 -1.6648  1.0632
 9339TIP3    H249509   1.965   2.862   4.298 -1.6873 -1.0514  3.0251
 9340TIP3   OH249510   1.361   1.066  16.557  0.5022 -0.6719  0.7767
 9340TIP3    H149511   1.448   1.069  16.597  0.3999  1.7797  1.0170
 9340TIP3    H249512   1.301   1.056  16.630  0.3658  2.9582  1.3441
 9341TIP3   OH249513   4.760   3.922   2.460 -0.3201  0.0184 -0.0501
 9341TIP3    H149514   4.806   4.006   2.467 -2.5376  1.3036 -0.0203
 9341TIP3    H249515   4.826   3.857   2.485  1.7766  1.6145 -1.0530
 9342TIP3   OH249516   6.573   5.575  12.993  1.4504 -0.1777  0.1730
 9342TIP3    H149517   6.631   5.650  13.007 -0.7423  1.4398  1.2431
 9342TIP3    H249518   6.488   5.605  13.026 -0.0903 -2.2868 -1.6214
 9343TIP3   OH249519   6.785   2.875  16.420 -0.2864 -0.1050 -0.1315
 9343TIP3    H149520   6.874   2.886  16.387  0.4514 -0.7308  1.5401
 9343TIP3    H249521   6.748   2.805  16.366  0.1433  0.2999 -0.9756
 9344TIP3   OH249522   4.128   0.808   1.661 -0.0308  0.5848  0.1527
 9344TIP3    H149523   4.147   0.715   1.675 -0.8144  0.4885  0.6398
 9344TIP3    H249524   4.209   0.843   1.624  0.2243 -0.3236 -0.2050
 9345TIP3   OH249525   1.273   0.534   3.513 -0.3007  0.4007 -0.6470
 9345TIP3    H149526   1.286   0.477   3.437  1.4517  0.5738 -0.5103
 9345TIP3    H249527   1.295   0.621   3.481  1.8970  0.2887  0.3695
 9346TIP3   OH249528   0.501   2.740   4.335 -0.1882  0.2406  0.3126
 9346TIP3    H149529   0.526   2.675   4.400 -2.2606  1.8259  2.8434
 9346TIP3    H249530   0.554   2.817   4.356 -0.6397  0.6727 -0.1009
 9347TIP3   OH249531   1.053   0.285  15.844  0.4068  0.2497 -0.1646
 9347TIP3    H149532   1.083   0.199  15.815  1.4286  0.8876 -1.0958
 9347TIP3    H249533   0.960   0.274  15.860  0.3869 -0.8628 -0.9465
 9348TIP3   OH249534   5.865   3.837  11.636  0.2320  0.7494 -0.2443
 9348TIP3    H149535   5.860   3.761  11.578 -0.1167 -0.0014  0.7401
 9348TIP3    H249536   5.806   3.901  11.596 -0.3375  0.0900 -0.4934
 9349TIP3   OH249537   2.470   0.077   3.627  0.4600 -0.0550  0.4068
 9349TIP3    H149538   2.496   0.158   3.583  1.4556 -0.2583  0.5825
 9349TIP3    H249539   2.442   0.105   3.714  1.1317  0.0717  0.5859
 9350TIP3   OH249540   6.567   4.545   5.259  0.2279 -0.2066  0.3001
 9350TIP3    H149541   6.619   4.500   5.192  0.6112  1.6860 -0.7633
 9350TIP3    H249542   6.486   4.569   5.213 -0.8119 -1.4996  1.4080
 9351TIP3   OH249543   1.262   0.133   6.188  0.3266  0.1061 -0.0730
 9351TIP3    H149544   1.274   0.160   6.279 -0.1160  1.4723 -0.3985
 9351TIP3    H249545   1.169   0.144   6.171  0.5274  0.6432 -0.9204
 9352TIP3   OH249546   3.540   6.506   4.846 -0.5435  0.4710 -0.2454
 9352TIP3    H149547   3.535   6.412   4.830 -0.8116  0.4032  0.1973
 9352TIP3    H249548   3.630   6.521   4.878 -1.1241  0.0080  1.7411
 9353TIP3   OH249549   5.767   0.579   3.063 -0.2421 -0.2427  0.3319
 9353TIP3    H149550   5.814   0.497   3.051 -0.1286 -0.7716  3.6025
 9353TIP3    H249551   5.830   0.646   3.035  1.5002 -1.0805  1.9941
 9354TIP3   OH249552   2.354   2.138   3.584  0.5773 -0.0438  0.0526
 9354TIP3    H149553   2.294   2.158   3.513 -1.0874  0.0724  1.4170
 9354TIP3    H249554   2.426   2.201   3.573  0.5720 -0.3121 -1.7278
 9355TIP3   OH249555   4.478   2.491  12.352  0.0904  0.5963 -0.7601
 9355TIP3    H149556   4.521   2.502  12.267  1.7968  2.2790  0.2296
 9355TIP3    H249557   4.533   2.540  12.412 -0.8107 -0.9222  1.4224
 9356TIP3   OH249558   4.932   5.318   5.305 -0.0255 -0.0051  0.0897
 9356TIP3    H149559   4.846   5.308   5.263 -0.0790  1.8144 -0.3164
 9356TIP3    H249560   4.923   5.396   5.360  1.0226 -0.4808  0.9585
 9357TIP3   OH249561   3.685   0.575   3.684 -0.4082 -0.6210 -0.0349
 9357TIP3    H149562   3.696   0.480   3.680 -1.1553 -0.6950 -0.4476
 9357TIP3    H249563   3.591   0.588   3.692 -0.2260  0.0600  1.3107
 9358TIP3   OH249564   5.217   5.200   0.034  0.2234  0.1040 -0.3258
 9358TIP3    H149565   5.261   5.285   0.027 -1.5101  1.0533 -0.3565
 9358TIP3    H249566   5.130   5.222   0.069 -0.5680 -1.5683 -1.1716
 9359TIP3   OH249567   0.642   1.694   0.012 -0.6805  0.5377 -0.5343
 9359TIP3    H149568   0.659   1.623   0.073  1.1701 -0.4124 -2.0631
 9359TIP3    H249569   0.708   1.684  -0.057 -1.9899  2.1872 -2.1476
 9360TIP3   OH249570   5.322   4.686  13.245 -0.3055  0.3205 -0.2830
 9360TIP3    H149571   5.285   4.686  13.333 -0.2136 -0.1021 -0.2425
 9360TIP3    H249572   5.394   4.748  13.248  0.8196 -0.9777  0.4132
 9361TIP3   OH249573   0.864   1.985  16.224  0.5504 -0.4458 -0.3748
 9361TIP3    H149574   0.772   1.964  16.238  0.8306 -1.4441  0.0080
 9361TIP3    H249575   0.911   1.908  16.254  1.3529 -1.3529 -3.5701
 9362TIP3   OH249576   5.216   1.596  11.393 -0.0771 -0.5726  0.1136
 9362TIP3    H149577   5.233   1.506  11.363  3.6360 -0.5789  1.6732
 9362TIP3    H249578   5.236   1.651  11.318 -3.5560 -0.9264 -1.2499
 9363TIP3   OH249579   3.057   0.007   1.171 -0.1733  0.0966 -0.4934
 9363TIP3    H149580   3.117   0.017   1.096  0.7105  0.9436  0.3018
 9363TIP3    H249581   3.001   0.085   1.167  1.4640  1.4368  1.0824
 9364TIP3   OH249582   2.642   4.051   1.272 -0.0269  0.0409 -0.5637
 9364TIP3    H149583   2.547   4.063   1.267 -0.2023 -0.7076  0.6551
 9364TIP3    H249584   2.672   4.060   1.181 -1.2295  0.4537 -0.9392
 9365TIP3   OH249585   2.625   5.809  16.392  0.2375  0.0748 -0.4764
 9365TIP3    H149586   2.612   5.718  16.416  0.6329  0.5258  1.5963
 9365TIP3    H249587   2.551   5.829  16.333  0.3146 -1.6228 -1.2097
 9366TIP3   OH249588   2.511   5.018   1.759  0.3267  0.1912 -0.1673
 9366TIP3    H149589   2.531   4.924   1.755 -1.4387 -0.1894 -0.9458
 9366TIP3    H249590   2.591   5.058   1.793  1.3320 -1.5242 -0.4030
 9367TIP3   OH249591   1.630   6.381   0.711  0.0429  0.4094  0.6337
 9367TIP3    H149592   1.641   6.371   0.617 -0.0472  1.4233  0.5069
 9367TIP3    H249593   1.582   6.302   0.738  1.4401 -0.6617  0.0956
 9368TIP3   OH249594   5.120   1.516  12.824 -0.3708  0.1854 -0.5621
 9368TIP3    H149595   5.194   1.552  12.874 -0.2109  1.5326 -1.7060
 9368TIP3    H249596   5.044   1.531  12.880 -0.1688  1.5332 -0.6234
 9369TIP3   OH249597   5.058   1.824   0.757 -0.4184 -0.1537  0.3164
 9369TIP3    H149598   4.968   1.798   0.739 -1.6126  2.4588  1.7957
 9369TIP3    H249599   5.058   1.919   0.742  2.4825 -0.2488 -0.9138
 9370TIP3   OH249600   5.314   3.121   4.915  0.6822  0.7242 -0.2520
 9370TIP3    H149601   5.219   3.121   4.907  0.5077  1.0726  1.3860
 9370TIP3    H249602   5.330   3.099   5.007  2.2012  0.1737 -0.6138
 9371TIP3   OH249603   2.174   2.426   0.923  0.0066 -0.4092  0.7242
 9371TIP3    H149604   2.262   2.396   0.900 -0.0368 -0.0212  0.0374
 9371TIP3    H249605   2.173   2.424   1.019  1.2435  0.8997  0.7911
 9372TIP3   OH249606   0.477   4.530   6.158 -0.0725 -0.0049  0.1671
 9372TIP3    H149607   0.539   4.599   6.181 -0.2176 -0.2377  1.3306
 9372TIP3    H249608   0.531   4.454   6.138  0.0283 -0.0962  0.7889
 9373TIP3   OH249609   5.597   1.814   4.723  0.4519 -0.3668 -0.1846
 9373TIP3    H149610   5.503   1.803   4.709  0.5160 -1.9810  0.4769
 9373TIP3    H249611   5.638   1.758   4.658  1.0168  0.9976 -1.0511
 9374TIP3   OH249612   5.716   4.958   5.346 -0.2652 -0.1346  0.0978
 9374TIP3    H149613   5.727   4.978   5.253  1.7040 -1.1578  0.0653
 9374TIP3    H249614   5.803   4.969   5.384 -0.7928 -0.8437  1.5850
 9375TIP3   OH249615   3.432   2.393  15.390  0.0846  0.3862 -0.2385
 9375TIP3    H149616   3.360   2.454  15.404 -1.4543 -1.4579  0.3412
 9375TIP3    H249617   3.392   2.317  15.348  1.1670 -1.6400  2.1284
 9376TIP3   OH249618   0.433   4.897  14.141  0.3975  0.3857  0.6414
 9376TIP3    H149619   0.436   4.817  14.195  2.1159  0.9876  1.5155
 9376TIP3    H249620   0.438   4.865  14.051 -1.0211 -0.5701  0.8593
 9377TIP3   OH249621   5.069   1.876   0.166  0.5928 -0.0291 -0.2519
 9377TIP3    H149622   5.055   1.785   0.191 -2.0915  0.7402  1.4956
 9377TIP3    H249623   5.120   1.913   0.238  0.2706  0.2038 -0.1396
 9378TIP3   OH249624   4.792   5.310   0.463  0.3563 -0.4161 -0.4765
 9378TIP3    H149625   4.823   5.221   0.450  0.5493 -0.4784  0.3863
 9378TIP3    H249626   4.862   5.354   0.511  0.5035  0.3661 -1.3704
 9379TIP3   OH249627   5.405   5.516   3.199 -0.1385 -0.0696  0.5525
 9379TIP3    H149628   5.446   5.509   3.113  0.0444 -1.3487  0.7280
 9379TIP3    H249629   5.346   5.442   3.204  1.5859 -1.4182  2.4171
 9380TIP3   OH249630   0.808   4.255  14.590 -0.6579 -0.7622 -0.1514
 9380TIP3    H149631   0.867   4.226  14.520  0.5707 -0.1590  0.5997
 9380TIP3    H249632   0.860   4.317  14.641 -1.1429 -1.9560  1.9181
 9381TIP3   OH249633   3.361   2.598  11.226 -0.0248 -0.3987  0.1451
 9381TIP3    H149634   3.378   2.663  11.158 -1.6926 -2.0215 -1.9261
 9381TIP3    H249635   3.410   2.521  11.199 -0.1349 -0.8565  1.1926
 9382TIP3   OH249636   1.353   1.298  14.145  0.3185 -0.4873 -0.3845
 9382TIP3    H149637   1.320   1.366  14.204 -0.6754 -0.8213 -0.5366
 9382TIP3    H249638   1.432   1.336  14.107 -0.0476  0.4566 -0.2303
 9383TIP3   OH249639   3.817   5.330   4.269 -0.0184 -0.6156  0.1856
 9383TIP3    H149640   3.794   5.319   4.361 -1.2822 -0.0237 -0.0369
 9383TIP3    H249641   3.815   5.425   4.254  0.3955 -0.6902 -0.3978
 9384TIP3   OH249642   1.389   3.331  16.311 -0.5982  0.2296  0.3862
 9384TIP3    H149643   1.396   3.396  16.381  1.8314  1.7097 -1.0456
 9384TIP3    H249644   1.479   3.321  16.279 -1.0616 -3.1206 -0.1659
 9385TIP3   OH249645   2.688   4.309   0.443 -0.4891 -0.2545 -0.0622
 9385TIP3    H149646   2.757   4.332   0.381 -1.5581 -0.3661 -1.3357
 9385TIP3    H249647   2.732   4.260   0.512  1.1147  1.7778  0.4548
 9386TIP3   OH249648   1.348   3.596   1.829  0.2241 -0.2585 -0.4915
 9386TIP3    H149649   1.341   3.654   1.754 -0.1604  0.7013  0.2650
 9386TIP3    H249650   1.428   3.623   1.874  0.7415 -1.1805 -0.8346
 9387TIP3   OH249651   3.774   2.699  14.276  0.2238 -0.1483 -0.2910
 9387TIP3    H149652   3.792   2.608  14.298  0.6937  0.1881  0.8179
 9387TIP3    H249653   3.813   2.712  14.190 -0.3951 -1.1476 -0.7389
 9388TIP3   OH249654   2.482   6.596  12.877 -0.2034  0.6993  0.1769
 9388TIP3    H149655   2.559   6.543  12.897  0.0693  1.2039  0.4795
 9388TIP3    H249656   2.420   6.575  12.946  0.7295  2.4262  1.6384
 9389TIP3   OH249657   5.860   6.329   2.138  0.4715  0.5836 -1.0560
 9389TIP3    H149658   5.820   6.414   2.157  1.6856  1.0166 -0.2841
 9389TIP3    H249659   5.835   6.274   2.212  1.4765  0.9319 -0.4384
 9390TIP3   OH249660   4.161   4.964   1.977 -0.3315  0.0471 -0.2752
 9390TIP3    H149661   4.078   4.917   1.986  0.3798 -1.6589 -1.8574
 9390TIP3    H249662   4.226   4.906   2.019  0.2571  0.6663 -0.3139
 9391TIP3   OH249663   2.869   4.198  10.197  0.2822  0.5512 -0.4587
 9391TIP3    H149664   2.929   4.129  10.171  1.7959  0.4540  2.8693
 9391TIP3    H249665   2.925   4.274  10.215 -1.0315  1.6916 -0.9414
 9392TIP3   OH249666   5.449   6.237  15.922  0.3176 -0.3501  0.2391
 9392TIP3    H149667   5.524   6.230  15.862  0.9723 -2.8183  1.2073
 9392TIP3    H249668   5.478   6.299  15.989  1.0503 -0.3841 -0.0278
 9393TIP3   OH249669   3.651   2.806   6.312  0.3333  0.2426 -0.3926
 9393TIP3    H149670   3.665   2.718   6.346 -0.0256  0.5031  0.4637
 9393TIP3    H249671   3.593   2.847   6.376  1.4899  1.5156 -0.1191
 9394TIP3   OH249672   4.189   2.781  12.768  0.0856 -0.1175  0.1837
 9394TIP3    H149673   4.170   2.693  12.737  0.6065  0.0059 -0.5174
 9394TIP3    H249674   4.280   2.796  12.743 -0.5184  1.2891 -1.3914
 9395TIP3   OH249675   0.843   6.208   2.791  0.2229 -0.3107 -0.2132
 9395TIP3    H149676   0.824   6.260   2.869  2.0838  0.1668 -0.0146
 9395TIP3    H249677   0.814   6.119   2.813  1.6737 -0.4138  1.4819
 9396TIP3   OH249678   5.031   5.811   0.210 -0.3952  0.2853  0.6739
 9396TIP3    H149679   4.973   5.739   0.238 -1.5943  0.4661 -1.1709
 9396TIP3    H249680   4.971   5.880   0.181  0.6723  0.2493 -1.8891
 9397TIP3   OH249681   6.269   4.808   2.261  0.0475 -0.0767 -0.1274
 9397TIP3    H149682   6.276   4.713   2.266  2.0092  0.0973  1.7953
 9397TIP3    H249683   6.212   4.832   2.334  0.2235  0.2807 -0.1045
 9398TIP3   OH249684   3.705   6.520  12.267 -0.6731 -0.0998 -0.3636
 9398TIP3    H149685   3.705   6.457  12.195 -0.8733  0.9234 -1.2795
 9398TIP3    H249686   3.754   6.595  12.234 -0.4720  0.2583  0.6910
 9399TIP3   OH249687   4.465   5.088  13.160  0.0755 -0.6489  0.0624
 9399TIP3    H149688   4.415   5.073  13.240  1.8242 -0.4913  1.2552
 9399TIP3    H249689   4.403   5.072  13.089 -1.8422  0.2702  1.4343
 9400TIP3   OH249690   0.606   3.882   3.899  0.1382  0.0978 -0.1818
 9400TIP3    H149691   0.515   3.898   3.921  0.3024 -0.4649  0.9545
 9400TIP3    H249692   0.637   3.965   3.864 -0.9689  0.1144 -1.1797
 9401TIP3   OH249693   5.788   2.764  12.411 -0.0863  0.5285 -0.5885
 9401TIP3    H149694   5.788   2.827  12.482  1.3282  0.1186 -0.1901
 9401TIP3    H249695   5.696   2.752  12.388 -0.5298  0.9484  0.9148
 9402TIP3   OH249696   3.333   4.156  14.394  0.3739  0.2748  0.3907
 9402TIP3    H149697   3.351   4.193  14.480 -0.6803 -1.7267  1.5696
 9402TIP3    H249698   3.415   4.114  14.368  1.1757  2.2328 -0.3624
 9403TIP3   OH249699   6.036   4.112  16.223 -0.6710 -0.2065  0.2651
 9403TIP3    H149700   6.064   4.020  16.229 -1.8000 -0.6802 -1.2034
 9403TIP3    H249701   6.083   4.146  16.148 -0.9316  0.1694  0.2719
 9404TIP3   OH249702   6.735   1.545  15.005 -0.4076  0.3353 -0.0231
 9404TIP3    H149703   6.815   1.587  15.038 -0.7371  0.3782  0.7211
 9404TIP3    H249704   6.683   1.526  15.083 -1.1471  0.3359 -0.5043
 9405TIP3   OH249705   3.040   1.950  15.601  0.6322 -0.1975 -0.1775
 9405TIP3    H149706   3.089   2.030  15.581  1.0922 -0.6405 -0.8681
 9405TIP3    H249707   3.102   1.879  15.581  0.9520 -0.7148  2.2753
 9406TIP3   OH249708   2.832   1.131  13.509  0.3684  0.1515 -0.0975
 9406TIP3    H149709   2.796   1.067  13.447  1.7158 -0.7998  0.0570
 9406TIP3    H249710   2.925   1.110  13.514  0.2151 -0.2710  2.7652
 9407TIP3   OH249711   1.355   5.904  14.886  0.2519  0.1361 -0.0027
 9407TIP3    H149712   1.438   5.942  14.913  0.1132  0.4775 -0.0500
 9407TIP3    H249713   1.299   5.911  14.964  0.6843 -1.3488  0.4772
 9408TIP3   OH249714   6.081   3.636   0.899 -0.5532  0.2743  0.1610
 9408TIP3    H149715   6.039   3.706   0.851 -0.2589 -0.2038 -0.8127
 9408TIP3    H249716   6.017   3.564   0.899 -0.5377  0.2575  0.4584
 9409TIP3   OH249717   1.982   2.907  14.837  0.2214  0.2348 -0.0114
 9409TIP3    H149718   1.941   2.827  14.871  0.8720 -0.4860 -0.8855
 9409TIP3    H249719   2.010   2.884  14.749  0.2407  1.5040 -0.3544
 9410TIP3   OH249720   4.675   2.553   0.352 -0.5160  0.0045 -0.9283
 9410TIP3    H149721   4.634   2.466   0.356 -2.7980  0.9120 -2.4918
 9410TIP3    H249722   4.618   2.604   0.295  0.6461  2.6223  0.0725
 9411TIP3   OH249723   6.146   2.011  16.635 -0.1288 -0.6780 -0.2856
 9411TIP3    H149724   6.084   1.947  16.599 -1.2485  0.0182  0.3281
 9411TIP3    H249725   6.094   2.091  16.644  1.6481  0.8863 -2.6567
 9412TIP3   OH249726   5.348   1.451  10.712 -0.0560 -0.1068 -0.5459
 9412TIP3    H149727   5.291   1.478  10.640  0.2252 -0.8663 -1.0692
 9412TIP3    H249728   5.419   1.515  10.711 -0.1341 -0.0203 -0.8473
 9413TIP3   OH249729   2.994   3.394   1.668  0.4544 -0.1889 -0.6954
 9413TIP3    H149730   3.039   3.419   1.587 -0.5978  1.6268 -0.7562
 9413TIP3    H249731   3.064   3.388   1.733  0.9298  2.0184 -0.9194
 9414TIP3   OH249732   4.686   2.276  14.557  0.5613  0.2177 -0.0248
 9414TIP3    H149733   4.597   2.246  14.540  1.1777 -2.5086  1.0148
 9414TIP3    H249734   4.676   2.369  14.576 -1.9700  0.1269 -0.4885
 9415TIP3   OH249735   4.159   1.121   2.352  0.2278 -0.4136  0.2411
 9415TIP3    H149736   4.189   1.211   2.338  1.4083 -0.6962  0.8249
 9415TIP3    H249737   4.159   1.111   2.447  0.5088 -1.1573  0.1678
 9416TIP3   OH249738   2.807   2.958   1.145 -0.5095  0.1079 -0.3216
 9416TIP3    H149739   2.753   2.975   1.068 -0.6927 -1.1202 -0.4710
 9416TIP3    H249740   2.790   2.867   1.168  2.6489 -0.8937 -1.3488
 9417TIP3   OH249741   6.130   4.786  14.200  0.2461 -0.3733 -0.7537
 9417TIP3    H149742   6.075   4.721  14.243  1.9362 -0.3861  1.5878
 9417TIP3    H249743   6.070   4.837  14.146 -1.6028 -1.9540 -0.2889
 9418TIP3   OH249744   4.598   1.169  11.123 -0.1500 -0.3196  0.2015
 9418TIP3    H149745   4.574   1.159  11.215 -0.7279  3.2108  0.5789
 9418TIP3    H249746   4.517   1.194  11.080  0.5612  0.3722 -0.7892
 9419TIP3   OH249747   2.012   3.779   6.718  0.4832  0.2345  0.0070
 9419TIP3    H149748   1.965   3.761   6.636  0.9756  0.6283 -0.3738
 9419TIP3    H249749   2.064   3.700   6.733 -1.0060 -0.6064  0.9533
 9420TIP3   OH249750   4.963   3.374   5.114 -0.6981  0.1753 -0.2964
 9420TIP3    H149751   4.870   3.377   5.094 -0.8539 -0.7557  0.2584
 9420TIP3    H249752   4.996   3.297   5.068 -0.3728  0.0240  0.1753
 9421TIP3   OH249753   2.494   3.240  16.493  0.4145  0.1244  0.5980
 9421TIP3    H149754   2.402   3.214  16.488  0.5092 -0.2217  0.6103
 9421TIP3    H249755   2.542   3.163  16.464  0.7822 -0.3001  2.2471
 9422TIP3   OH249756   6.136   3.393  16.853 -0.3751 -0.2184  0.4667
 9422TIP3    H149757   6.153   3.474  16.901 -0.2101  0.9678 -1.5058
 9422TIP3    H249758   6.214   3.381  16.799  0.8223 -3.1744  2.5670
 9423TIP3   OH249759   2.035   0.030  13.843 -0.4991 -0.0987 -0.6162
 9423TIP3    H149760   2.125   0.009  13.870 -0.9727 -1.9671 -0.3384
 9423TIP3    H249761   2.002   0.085  13.914  0.5594  1.0143 -0.9554
 9424TIP3   OH249762   6.234   4.526  16.107 -0.2806  0.2124  0.2803
 9424TIP3    H149763   6.200   4.592  16.047  0.2392 -2.0604 -2.7484
 9424TIP3    H249764   6.175   4.530  16.183 -1.5815  2.5616 -0.7351
 9425TIP3   OH249765   3.869   3.137  14.363 -0.2788  0.0035 -0.2222
 9425TIP3    H149766   3.820   3.066  14.321  0.0286  0.0525 -0.6736
 9425TIP3    H249767   3.892   3.196  14.291  0.4023  0.0034 -0.0110
 9426TIP3   OH249768   1.865   6.426   0.551 -0.0629  0.1955  0.0232
 9426TIP3    H149769   1.952   6.467   0.553 -0.0272  0.1009  0.5315
 9426TIP3    H249770   1.823   6.464   0.474 -0.3797  1.9066  0.9984
 9427TIP3   OH249771   4.191   4.102   2.122 -0.2238 -0.0616  0.3257
 9427TIP3    H149772   4.235   4.105   2.208 -0.2664 -3.0801  0.5562
 9427TIP3    H249773   4.098   4.102   2.143 -0.2366 -0.6365  0.2640
 9428TIP3   OH249774   6.601   4.824   4.640  0.2900 -0.3999 -0.1533
 9428TIP3    H149775   6.650   4.779   4.708  1.6924 -0.6813 -1.2975
 9428TIP3    H249776   6.669   4.857   4.580 -0.9021 -0.3218 -1.4982
 9429TIP3   OH249777   3.982   1.662   2.555  0.2410 -0.0804 -0.0814
 9429TIP3    H149778   3.969   1.599   2.626 -0.4512 -0.3433 -0.4275
 9429TIP3    H249779   3.998   1.746   2.599  0.8897 -0.4342  0.3825
 9430TIP3   OH249780   2.353   4.776  15.602 -0.0335 -0.2747 -0.1496
 9430TIP3    H149781   2.381   4.701  15.549 -2.3578 -1.0638 -0.3995
 9430TIP3    H249782   2.333   4.845  15.539  0.9243  0.1546  0.0001
 9431TIP3   OH249783   0.192   0.908  11.115  0.1103  0.5011 -0.0097
 9431TIP3    H149784   0.147   0.966  11.054 -1.4697 -0.3023  0.3494
 9431TIP3    H249785   0.170   0.942  11.202 -1.1632 -0.7904  0.2250
 9432TIP3   OH249786   3.344   5.305  13.687 -0.2722 -0.0160 -0.1628
 9432TIP3    H149787   3.327   5.320  13.594 -3.1446  1.0686  0.4469
 9432TIP3    H249788   3.284   5.235  13.711  0.7568 -0.5883  0.8195
 9433TIP3   OH249789   1.868   4.496   2.205 -0.2196 -0.6379  0.3482
 9433TIP3    H149790   1.881   4.451   2.121 -1.3419  0.7038 -0.5842
 9433TIP3    H249791   1.920   4.576   2.197  1.0689 -1.2998  1.6495
 9434TIP3   OH249792   2.093   5.554  10.352 -0.4848  0.9520  0.2457
 9434TIP3    H149793   2.006   5.580  10.321 -0.2140  1.2121 -0.2997
 9434TIP3    H249794   2.128   5.634  10.392 -0.4680  0.8625  0.4112
 9435TIP3   OH249795   1.503   1.798   4.957  0.3274 -0.0957 -0.2852
 9435TIP3    H149796   1.450   1.875   4.976  1.5391  1.0033 -1.2549
 9435TIP3    H249797   1.517   1.757   5.043 -0.7804  0.4211  0.1678
 9436TIP3   OH249798   5.877   4.632  15.479 -0.3788 -0.0602 -0.2427
 9436TIP3    H149799   5.830   4.555  15.510 -0.6232 -0.3783 -1.3479
 9436TIP3    H249800   5.965   4.600  15.458 -0.5698 -0.1158 -0.9880
 9437TIP3   OH249801   6.161   1.222  17.032 -0.5740  0.1062  0.7447
 9437TIP3    H149802   6.241   1.272  17.049  0.1928 -1.3554  1.6122
 9437TIP3    H249803   6.090   1.287  17.039  0.5403  1.5905 -0.8321
 9438TIP3   OH249804   5.848   5.569  13.719 -0.0160 -0.3037 -0.2214
 9438TIP3    H149805   5.920   5.587  13.779 -0.6582 -0.4621  0.6212
 9438TIP3    H249806   5.821   5.655  13.688  0.7748 -0.2707 -0.8382
 9439TIP3   OH249807   4.573   2.539   3.582 -0.1348  0.2798 -0.0165
 9439TIP3    H149808   4.511   2.527   3.653 -0.1210 -1.3737 -0.2530
 9439TIP3    H249809   4.523   2.585   3.514 -1.1696 -1.0842 -0.2295
 9440TIP3   OH249810   6.430   1.020  14.898  0.6444  0.0116  0.4062
 9440TIP3    H149811   6.344   1.031  14.857  1.2488 -0.2290 -0.9953
 9440TIP3    H249812   6.431   1.082  14.970 -0.7331 -0.0347  0.4757
 9441TIP3   OH249813   6.769   3.515   3.715 -0.1155  0.3455  0.0755
 9441TIP3    H149814   6.715   3.460   3.771  0.1736  1.5551  1.5917
 9441TIP3    H249815   6.859   3.484   3.729 -0.0039  0.8821  0.5718
 9442TIP3   OH249816   6.295   1.969   6.374  0.1869  0.4710 -0.1557
 9442TIP3    H149817   6.389   1.981   6.361  0.2643  1.1372  0.9348
 9442TIP3    H249818   6.259   2.057   6.375 -0.3390  0.2564  0.2526
 9443TIP3   OH249819   6.547   0.153   1.713  0.0886  0.3738  0.1632
 9443TIP3    H149820   6.599   0.221   1.755  0.5116  0.0097  0.2313
 9443TIP3    H249821   6.610   0.099   1.667 -0.3254  0.4971 -0.5674
 9444TIP3   OH249822   6.165   1.806   4.894 -0.4239  0.3083 -0.3754
 9444TIP3    H149823   6.082   1.837   4.859 -0.0127  1.3618 -0.4726
 9444TIP3    H249824   6.216   1.780   4.817 -0.7877 -0.6879 -0.2900
 9445TIP3   OH249825   0.768   5.779  16.907  0.2156  0.4132 -0.0109
 9445TIP3    H149826   0.769   5.832  16.828 -1.6262 -1.5361 -1.4467
 9445TIP3    H249827   0.760   5.842  16.978  0.4505  2.1494 -1.4550
 9446TIP3   OH249828   0.888   1.461  12.053 -0.0462  0.0123  0.3226
 9446TIP3    H149829   0.921   1.513  11.980  0.0537  0.3555  0.6097
 9446TIP3    H249830   0.951   1.475  12.124 -0.9142  0.8605  0.9588
 9447TIP3   OH249831   2.583   2.548   0.154  0.1318  0.2884  0.4441
 9447TIP3    H149832   2.561   2.615   0.090 -0.5609 -1.2755 -1.0399
 9447TIP3    H249833   2.541   2.578   0.235 -2.3331  0.4455 -0.8075
 9448TIP3   OH249834   6.412   2.773  12.881 -0.3668  0.0056 -0.4563
 9448TIP3    H149835   6.461   2.855  12.871 -0.9591  0.3107 -0.9083
 9448TIP3    H249836   6.463   2.723  12.944  0.0057  0.7238 -0.1707
 9449TIP3   OH249837   5.389   4.857  14.266  0.1865  0.3920 -0.1441
 9449TIP3    H149838   5.346   4.782  14.225 -1.9780  0.5681  1.6581
 9449TIP3    H249839   5.434   4.821  14.342  1.0515  0.6191 -0.5325
 9450TIP3   OH249840   2.771   3.691  14.749 -0.7387  0.6758 -0.5414
 9450TIP3    H149841   2.811   3.712  14.833  0.9510 -1.6761 -0.6475
 9450TIP3    H249842   2.688   3.650  14.771 -1.0915  1.5811 -0.1253
 9451TIP3   OH249843   2.112   1.364   6.392  0.6852 -0.3097  0.0637
 9451TIP3    H149844   2.070   1.346   6.477 -0.0906  0.7620 -0.0697
 9451TIP3    H249845   2.202   1.334   6.403  0.3276 -1.1184  0.9290
 9452TIP3   OH249846   2.801   0.863   3.180  0.1953  0.6288  0.4246
 9452TIP3    H149847   2.829   0.896   3.265  0.8322 -0.6514  0.7279
 9452TIP3    H249848   2.739   0.929   3.148  0.8727  1.7240  1.3240
 9453TIP3   OH249849   2.193   1.456   0.565 -0.2266 -0.1045 -0.1229
 9453TIP3    H149850   2.104   1.439   0.533 -0.0036  0.3897 -1.0426
 9453TIP3    H249851   2.185   1.538   0.615 -0.2413  0.0804 -0.4264
 9454TIP3   OH249852   1.799   6.622  15.781  0.3604  0.1966 -0.4292
 9454TIP3    H149853   1.886   6.634  15.742  0.6356  0.6101  0.3016
 9454TIP3    H249854   1.783   6.528  15.773  1.0486  0.0498 -0.2050
 9455TIP3   OH249855   2.858   1.383  12.996  0.6763  0.1071  0.8889
 9455TIP3    H149856   2.786   1.330  12.961  2.4577 -0.9738 -1.4349
 9455TIP3    H249857   2.895   1.330  13.066  0.1058  0.0047  1.1143
 9456TIP3   OH249858   3.692   4.485   3.303 -0.1109  0.5525  0.0856
 9456TIP3    H149859   3.709   4.482   3.397 -0.8401 -0.1469  0.2065
 9456TIP3    H249860   3.736   4.565   3.273 -0.0856  0.9155  1.0561
 9457TIP3   OH249861   4.571   6.468  15.459 -0.3735  0.2607  0.7991
 9457TIP3    H149862   4.583   6.428  15.545 -0.1136 -0.6205  0.3613
 9457TIP3    H249863   4.537   6.398  15.404  1.1068  0.3328 -0.2561
 9458TIP3   OH249864   4.356   0.559   6.145  0.0977  0.6751 -0.6062
 9458TIP3    H149865   4.306   0.636   6.172 -0.8028 -0.2704  0.5880
 9458TIP3    H249866   4.410   0.538   6.221  0.6192  0.3546 -1.0606
 9459TIP3   OH249867   3.109   2.643   2.644  0.4622 -1.4988 -0.3353
 9459TIP3    H149868   3.137   2.577   2.708 -2.4124 -1.7351  0.7971
 9459TIP3    H249869   3.109   2.725   2.693 -2.0930 -1.7356  0.2068
 9460TIP3   OH249870   5.210   6.151  10.974  0.7785  0.1247 -0.1890
 9460TIP3    H149871   5.303   6.150  10.950  0.5392 -0.7864 -1.1632
 9460TIP3    H249872   5.179   6.236  10.942  0.9490 -0.1961 -1.2591
 9461TIP3   OH249873   2.199   0.440   4.112  0.1816  0.3892 -0.2532
 9461TIP3    H149874   2.220   0.419   4.204 -0.4485  1.0569  0.0533
 9461TIP3    H249875   2.275   0.489   4.081  0.5211 -0.0812 -0.1799
 9462TIP3   OH249876   0.544   0.507   4.369  0.2464  0.9946  0.2336
 9462TIP3    H149877   0.585   0.576   4.317 -0.4508  1.3444  0.1420
 9462TIP3    H249878   0.450   0.517   4.353  0.1620 -0.3654 -0.2736
 9463TIP3   OH249879   6.360   1.696  16.459 -0.5153 -0.6841  0.1676
 9463TIP3    H149880   6.271   1.687  16.494 -1.4000  0.4117 -1.6400
 9463TIP3    H249881   6.381   1.610  16.423 -2.0062 -0.2785 -1.8381
 9464TIP3   OH249882   1.488   6.113  16.490 -0.2531 -0.2044 -0.2106
 9464TIP3    H149883   1.485   6.032  16.441  0.7605 -0.3838  0.0058
 9464TIP3    H249884   1.572   6.153  16.467 -0.5952  0.6273 -0.0727
 9465TIP3   OH249885   2.963   2.755   2.403 -0.3839 -0.5275  0.7231
 9465TIP3    H149886   2.970   2.695   2.478 -0.7445 -2.1571 -0.4835
 9465TIP3    H249887   2.976   2.699   2.327  0.3561  1.1594 -0.4441
 9466TIP3   OH249888   3.877   5.715   2.822 -0.6085 -0.1401 -0.1410
 9466TIP3    H149889   3.803   5.655   2.809 -0.7391 -0.4372  1.7266
 9466TIP3    H249890   3.838   5.802   2.811 -0.8136 -0.3376 -1.0474
 9467TIP3   OH249891   5.078   4.401   1.989 -0.0943  0.0881 -0.5969
 9467TIP3    H149892   5.141   4.430   2.054 -0.5685 -1.6154  0.6884
 9467TIP3    H249893   5.054   4.313   2.016 -1.0595 -0.3040 -2.5398
 9468TIP3   OH249894   2.395   0.102   0.763 -0.5233  0.0446  0.2839
 9468TIP3    H149895   2.437   0.026   0.804  0.3433  0.0005 -0.6625
 9468TIP3    H249896   2.436   0.177   0.804  1.3737  0.0225 -1.4153
 9469TIP3   OH249897   2.957   4.212  13.179  0.0006  0.2489  0.0542
 9469TIP3    H149898   2.879   4.165  13.210 -0.7000  1.6642  0.5022
 9469TIP3    H249899   2.979   4.272  13.250  0.1104  1.5020 -1.0089
 9470TIP3   OH249900   2.358   4.076   2.322  0.4665 -0.0335  0.4050
 9470TIP3    H149901   2.414   4.136   2.273 -0.0876 -0.8472 -1.3132
 9470TIP3    H249902   2.396   3.990   2.308  0.3086 -0.2841  1.4588
 9471TIP3   OH249903   0.344   3.611   5.346  0.4100 -0.4521  0.8565
 9471TIP3    H149904   0.372   3.532   5.299 -0.6874 -0.4581  0.1755
 9471TIP3    H249905   0.360   3.682   5.284 -0.3156 -0.3676  0.7547
 9472TIP3   OH249906   5.641   1.809   0.925  0.0528  0.3678  0.3092
 9472TIP3    H149907   5.566   1.780   0.873  1.4684 -0.8657 -1.1697
 9472TIP3    H249908   5.680   1.880   0.873  0.6275  0.1288  0.3997
 9473TIP3   OH249909   5.748   2.973   2.326 -0.1344  0.1596  0.2369
 9473TIP3    H149910   5.790   2.956   2.410  0.3569  0.2251  0.0082
 9473TIP3    H249911   5.778   2.902   2.269 -1.0278 -0.2828  0.3075
 9474TIP3   OH249912   5.070   1.584  16.425 -0.0948 -0.0817 -0.5757
 9474TIP3    H149913   5.126   1.660  16.441  1.4542 -1.3348  0.2566
 9474TIP3    H249914   4.981   1.617  16.439  0.6568  0.9062  2.9847
 9475TIP3   OH249915   1.385   6.008  14.474 -0.1018 -1.0099  0.0773
 9475TIP3    H149916   1.369   6.087  14.422  0.9914 -0.4750  0.5233
 9475TIP3    H249917   1.478   6.012  14.495 -0.4328 -1.3950  1.7684
 9476TIP3   OH249918   1.739   1.334  10.766 -0.3129  0.3062  0.5508
 9476TIP3    H149919   1.775   1.422  10.779 -1.0731  0.7698 -0.4007
 9476TIP3    H249920   1.699   1.313  10.850 -0.2276  0.9186  0.7527
 9477TIP3   OH249921   1.672   4.674  17.032 -0.0508  0.3131 -0.0490
 9477TIP3    H149922   1.582   4.668  17.063  0.1613  0.8688  0.6884
 9477TIP3    H249923   1.706   4.754  17.072  0.3874  0.7788 -1.3241
 9478TIP3   OH249924   5.327   1.513  13.247  0.2810  0.2503  0.0679
 9478TIP3    H149925   5.409   1.524  13.295  1.9431  1.2401 -2.7608
 9478TIP3    H249926   5.308   1.419  13.254  0.6035  0.2994  2.2691
 9479TIP3   OH249927   3.567   6.607   3.095 -0.2785  0.0064  0.6199
 9479TIP3    H149928   3.583   6.579   3.185  0.5512 -1.4739  0.0552
 9479TIP3    H249929   3.472   6.620   3.090 -0.3913 -0.3537  1.5808
 9480TIP3   OH249930   6.733   0.404   0.219  0.2861  0.4591  0.1969
 9480TIP3    H149931   6.827   0.388   0.205  1.2060  3.9830  1.3703
 9480TIP3    H249932   6.697   0.412   0.131  1.1736 -0.3228 -0.2605
 9481TIP3   OH249933   2.778   5.509  12.163 -0.2558  0.0776 -0.4622
 9481TIP3    H149934   2.747   5.451  12.093  2.8183 -2.5475  0.1022
 9481TIP3    H249935   2.838   5.454  12.215  1.1403  3.1870  1.5243
 9482TIP3   OH249936   1.396   4.363   0.370  0.4364  0.8852 -0.3849
 9482TIP3    H149937   1.430   4.392   0.285  2.6968 -1.5568 -0.4123
 9482TIP3    H249938   1.474   4.351   0.424 -0.8408  0.5968  1.4692
 9483TIP3   OH249939   1.628   4.884   3.135  0.1213  0.0061  0.4527
 9483TIP3    H149940   1.622   4.789   3.140  0.3805 -0.0118  0.4556
 9483TIP3    H249941   1.622   4.913   3.227 -0.6545  0.0401  0.3962
 9484TIP3   OH249942   1.159   5.564  15.231 -0.1840  0.8055 -0.0387
 9484TIP3    H149943   1.133   5.472  15.221  0.6001  0.5382  0.3441
 9484TIP3    H249944   1.235   5.562  15.289  0.8977  1.5319 -1.3511
 9485TIP3   OH249945   3.050   1.424  10.639 -0.6477  0.2499 -0.2295
 9485TIP3    H149946   3.001   1.422  10.558 -1.4329 -1.3835  0.2302
 9485TIP3    H249947   3.000   1.368  10.699  0.4218  0.6125  1.0641
 9486TIP3   OH249948   4.968   5.990  17.109  0.5464  0.1141 -0.3540
 9486TIP3    H149949   4.880   5.972  17.142 -0.8258  2.9945 -2.0660
 9486TIP3    H249950   4.981   5.925  17.039  0.1465 -0.7914  0.3815
 9487TIP3   OH249951   3.809   4.262  13.662 -0.2142  0.4912 -0.0216
 9487TIP3    H149952   3.810   4.167  13.671 -0.4545  0.5855  1.1712
 9487TIP3    H249953   3.716   4.284  13.652 -0.0668  0.5123 -1.7297
 9488TIP3   OH249954   4.312   6.052  15.765 -0.1047 -0.1465 -0.1269
 9488TIP3    H149955   4.398   6.076  15.801 -0.6158  0.4777  0.7243
 9488TIP3    H249956   4.266   6.136  15.755 -1.2268 -0.5981  1.0279
 9489TIP3   OH249957   0.207   0.985  12.217  0.3583  0.0746  0.3132
 9489TIP3    H149958   0.284   0.948  12.260 -0.1249 -0.7308  0.4999
 9489TIP3    H249959   0.143   0.996  12.287  0.6070  1.6468  0.3349
 9490TIP3   OH249960   0.603   4.670   1.263 -0.0597  0.3907 -0.0475
 9490TIP3    H149961   0.510   4.649   1.269 -0.2278  1.2738  0.5736
 9490TIP3    H249962   0.641   4.634   1.342  0.2174 -0.3779 -0.5217
 9491TIP3   OH249963   5.818   5.578  11.079 -0.3203  0.0517  0.0021
 9491TIP3    H149964   5.761   5.644  11.119 -0.4420 -0.1631  0.1863
 9491TIP3    H249965   5.900   5.624  11.063 -1.2563  1.0584 -2.4486
 9492TIP3   OH249966   1.641   4.439   3.433  0.1736 -0.1116 -0.6112
 9492TIP3    H149967   1.593   4.414   3.512  1.4569 -1.0224 -0.0719
 9492TIP3    H249968   1.679   4.525   3.454  1.2999 -0.7745  0.1678
 9493TIP3   OH249969   4.558   0.321   2.031 -0.2676 -0.0089  0.5532
 9493TIP3    H149970   4.619   0.309   1.957  1.2908  0.8667  1.6284
 9493TIP3    H249971   4.591   0.261   2.098 -0.2483  0.8651  1.3403
 9494TIP3   OH249972   0.664   6.100  15.359 -0.1692 -0.1053  0.3832
 9494TIP3    H149973   0.709   6.030  15.406  0.3762 -0.3848 -0.5176
 9494TIP3    H249974   0.653   6.066  15.270 -2.3083 -0.0997  0.6073
 9495TIP3   OH249975   0.932   3.331  16.069  0.4689  0.2089 -0.1312
 9495TIP3    H149976   0.945   3.252  16.017 -2.7162 -0.5908  0.0346
 9495TIP3    H249977   0.992   3.321  16.143  1.0251 -1.4407 -0.7580
 9496TIP3   OH249978   5.783   2.010  10.555  0.5052  0.5997  0.1116
 9496TIP3    H149979   5.807   2.103  10.546  1.8611  0.2095 -0.5481
 9496TIP3    H249980   5.791   1.974  10.467 -0.7288 -0.0085  0.2269
 9497TIP3   OH249981   4.077   3.623   0.174  0.0766 -0.2487 -0.0981
 9497TIP3    H149982   4.061   3.631   0.268  1.0222  1.9815 -0.0845
 9497TIP3    H249983   3.991   3.637   0.134  0.0360  0.9639  0.3759
 9498TIP3   OH249984   0.779   4.540  13.764 -0.4595 -0.3682  0.3929
 9498TIP3    H149985   0.711   4.497  13.712 -1.4299  0.2001  1.1613
 9498TIP3    H249986   0.731   4.592  13.829  0.7120 -0.2656  1.2108
 9499TIP3   OH249987   5.162   6.191  12.237  0.0707 -0.6717  0.5635
 9499TIP3    H149988   5.071   6.222  12.235  0.2547 -0.1676 -0.3057
 9499TIP3    H249989   5.193   6.202  12.147  0.9556 -0.9604  0.8270
 9500TIP3   OH249990   4.115   6.394  14.007  0.1988  0.3443 -0.3914
 9500TIP3    H149991   4.077   6.481  14.014 -1.7002 -0.5339  0.8286
 9500TIP3    H249992   4.109   6.372  13.914 -1.5544  0.5858 -0.3616
 9501TIP3   OH249993   1.106   1.017   3.751  0.0963 -0.7941 -0.4282
 9501TIP3    H149994   1.010   1.024   3.754 -0.0296 -2.1102 -0.9572
 9501TIP3    H249995   1.131   1.066   3.672  0.1300  1.7544  1.0498
 9502TIP3   OH249996   0.504   5.962  16.973  0.0171 -0.0305 -0.0350
 9502TIP3    H149997   0.562   5.937  17.045  0.1734 -1.0095 -0.4936
 9502TIP3    H249998   0.479   6.052  16.993 -1.5283 -0.8918  2.3122
 9503TIP3   OH249999   6.797   0.219  11.712 -0.2507  0.2157  0.5085
 9503TIP3    H150000   6.870   0.223  11.773  0.6089  0.5677 -0.5255
 9503TIP3    H250001   6.780   0.311  11.688  0.3790  0.0024 -0.8702
 9504TIP3   OH250002   3.759   5.528   5.760  0.6767  0.1329  0.2361
 9504TIP3    H150003   3.784   5.598   5.699 -1.5917  1.1432  0.3773
 9504TIP3    H250004   3.675   5.496   5.727  0.1487 -0.3530  1.9624
 9505TIP3   OH250005   3.226   6.156  15.025  0.2564 -0.3288 -0.1558
 9505TIP3    H150006   3.269   6.092  15.082 -0.9496  0.1880  1.4062
 9505TIP3    H250007   3.231   6.238  15.074 -1.0639  0.0735 -0.6519
 9506TIP3   OH250008   0.637   5.741   1.332  0.9512  0.4255 -0.0798
 9506TIP3    H150009   0.644   5.772   1.242 -1.1969  1.8840  0.1945
 9506TIP3    H250010   0.555   5.777   1.364  0.2066 -2.4234  1.5698
 9507TIP3   OH250011   3.918   3.371   3.602 -0.2357  0.2994 -0.3151
 9507TIP3    H150012   3.839   3.368   3.548 -0.4208 -0.4158 -0.0169
 9507TIP3    H250013   3.960   3.286   3.587 -1.2425 -0.7060  2.0881
 9508TIP3   OH250014   2.332   0.768  11.964 -0.2212 -0.4300  0.1236
 9508TIP3    H150015   2.344   0.675  11.984 -2.3712 -0.2548  2.6409
 9508TIP3    H250016   2.238   0.780  11.958 -0.0357  1.7391  0.6859
 9509TIP3   OH250017   2.570   0.153  11.548 -0.1716 -0.1061 -0.2129
 9509TIP3    H150018   2.625   0.227  11.575  0.8652 -0.4826 -1.2589
 9509TIP3    H250019   2.481   0.188  11.550  0.4013  1.6503 -2.0918
 9510TIP3   OH250020   4.956   0.521   6.078 -0.3669 -0.4483  0.1205
 9510TIP3    H150021   4.977   0.453   6.015  0.4758 -1.0740  1.0492
 9510TIP3    H250022   4.878   0.564   6.042 -0.1034 -1.0079 -1.1525
 9511TIP3   OH250023   2.678   4.675   1.287  0.0734 -0.4379 -0.2080
 9511TIP3    H150024   2.758   4.622   1.290  0.5011  0.2130  0.0648
 9511TIP3    H250025   2.705   4.760   1.321 -0.2314  0.4365 -2.0201
 9512TIP3   OH250026   1.434   5.227  11.464  0.5313  0.6804  0.1733
 9512TIP3    H150027   1.408   5.292  11.529 -2.0796 -1.3872  1.3516
 9512TIP3    H250028   1.354   5.207  11.415  1.7756 -0.0112 -1.7064
 9513TIP3   OH250029   2.963   1.838   0.914  0.1672 -0.5289 -0.0019
 9513TIP3    H150030   2.889   1.892   0.888  0.7292  0.3229  0.1216
 9513TIP3    H250031   3.029   1.853   0.846  0.4665 -0.7790  0.2259
 9514TIP3   OH250032   5.980   0.895   3.402 -0.3779 -0.3553  0.0020
 9514TIP3    H150033   5.919   0.952   3.447 -1.2117 -1.7058  0.6329
 9514TIP3    H250034   6.039   0.864   3.470  0.3523  0.0803 -0.4139
 9515TIP3   OH250035   5.573   0.141   2.043 -0.0928 -0.2318 -0.0636
 9515TIP3    H150036   5.643   0.159   2.106 -0.1716  1.1136 -0.3269
 9515TIP3    H250037   5.593   0.198   1.968 -2.2010  1.2307  0.4138
 9516TIP3   OH250038   2.656   5.875  13.105 -0.3140 -0.3277  0.9641
 9516TIP3    H150039   2.563   5.853  13.103 -0.2059 -1.0297 -2.5742
 9516TIP3    H250040   2.697   5.811  13.048  2.3818  0.0058  2.3756
 9517TIP3   OH250041   6.164   5.223   5.816 -0.6049 -0.1830 -0.5351
 9517TIP3    H150042   6.090   5.274   5.847  0.7567  0.6972  1.4840
 9517TIP3    H250043   6.209   5.281   5.754  0.2060  0.6371  0.7678
 9518TIP3   OH250044   3.149   5.703   5.013  0.0101 -0.0170  0.4852
 9518TIP3    H150045   3.110   5.617   5.025 -1.8286  1.1837  4.7356
 9518TIP3    H250046   3.240   5.692   5.041  0.7329 -1.1088 -1.9950
 9519TIP3   OH250047   2.423   2.944   2.142 -0.1118  0.8056 -0.3135
 9519TIP3    H150048   2.446   2.916   2.230  0.3569  1.3346 -0.2643
 9519TIP3    H250049   2.422   2.863   2.091  0.7788  0.6349 -0.0764
 9520TIP3   OH250050   0.300   3.343  16.931 -0.3238  0.2875  0.6323
 9520TIP3    H150051   0.307   3.438  16.928 -0.7462  0.3100  0.2985
 9520TIP3    H250052   0.375   3.315  16.983 -0.1605  0.7982  0.6741
 9521TIP3   OH250053   5.133   2.934   0.161 -0.3522 -0.1067 -0.0212
 9521TIP3    H150054   5.157   3.024   0.184 -2.7389  0.8924 -1.0592
 9521TIP3    H250055   5.110   2.939   0.068 -1.2831 -1.6217  0.0949
 9522TIP3   OH250056   2.192   5.855  13.245 -0.0657 -0.1071 -0.1410
 9522TIP3    H150057   2.230   5.856  13.332  0.5054  0.2849 -0.3863
 9522TIP3    H250058   2.165   5.946  13.230 -0.4419 -0.2349 -0.2547
 9523TIP3   OH250059   0.932   6.377  15.663 -0.0353  0.0207  0.0224
 9523TIP3    H150060   1.001   6.319  15.629  0.2239  0.7565 -0.7657
 9523TIP3    H250061   0.910   6.433  15.589 -4.1997 -2.5615 -1.0444
 9524TIP3   OH250062   4.176   4.950  13.249 -0.1541 -0.0182 -0.1646
 9524TIP3    H150063   4.266   4.921  13.234 -0.6335 -0.6679 -2.2285
 9524TIP3    H250064   4.131   4.929  13.167 -1.6871  2.2987 -0.0032
 9525TIP3   OH250065   3.179   3.546  13.684  0.4831  0.0566 -0.0301
 9525TIP3    H150066   3.216   3.480  13.625  0.1413  0.1450 -0.3469
 9525TIP3    H250067   3.181   3.627  13.633  1.5612  0.4473  0.6077
 9526TIP3   OH250068   4.596   5.717   3.997 -0.1672 -0.1358 -0.2139
 9526TIP3    H150069   4.512   5.677   3.975 -1.1175  0.4320  2.0648
 9526TIP3    H250070   4.628   5.666   4.071  0.6287  0.7473  0.0745
 9527TIP3   OH250071   0.528   1.172  12.042 -0.2103  0.0914  0.3708
 9527TIP3    H150072   0.587   1.097  12.043  2.5425  2.1153  0.5873
 9527TIP3    H250073   0.567   1.232  11.978 -1.7043  1.7905  0.9861
 9528TIP3   OH250074   3.764   4.549   3.660  0.0323 -0.1044 -0.2793
 9528TIP3    H150075   3.842   4.597   3.634 -0.5954  0.1029 -1.9165
 9528TIP3    H250076   3.797   4.463   3.688  0.8854  0.2030 -0.3091
 9529TIP3   OH250077   4.122   6.184  12.469 -0.0379  0.5201 -0.1234
 9529TIP3    H150078   4.088   6.113  12.523 -0.3041 -2.0822 -3.3418
 9529TIP3    H250079   4.044   6.227  12.433  0.1089  0.5447 -0.4191
 9530TIP3   OH250080   0.789   0.156   0.855 -0.5209 -0.1896 -0.1576
 9530TIP3    H150081   0.773   0.136   0.763  0.0590 -2.8376  0.2091
 9530TIP3    H250082   0.864   0.100   0.878 -1.0474 -0.0849  2.0538
 9531TIP3   OH250083   1.122   5.731   2.201  0.2879  0.2180  0.1815
 9531TIP3    H150084   1.175   5.801   2.160 -2.5253  1.4973 -1.5782
 9531TIP3    H250085   1.050   5.778   2.243 -3.0458 -1.4863 -3.0396
 9532TIP3   OH250086   1.855   5.954  12.081 -0.3494  0.7695  0.6375
 9532TIP3    H150087   1.928   5.940  12.021 -1.7266  0.0621 -0.9500
 9532TIP3    H250088   1.829   5.866  12.108 -1.3200  0.9279  0.2607
 9533TIP3   OH250089   5.930   6.719   4.079  0.3202  0.0697  0.0486
 9533TIP3    H150090   5.963   6.808   4.074 -1.1658  0.5897 -1.4231
 9533TIP3    H250091   5.852   6.726   4.135  1.0500 -0.6116  1.1875
 9534TIP3   OH250092   1.114   5.248  11.836  0.1904 -0.3191  0.4659
 9534TIP3    H150093   1.180   5.291  11.781 -0.2810 -0.8593 -0.5661
 9534TIP3    H250094   1.076   5.182  11.778  0.4247 -1.6593  1.7957
 9535TIP3   OH250095   2.696   2.183   5.076 -0.1665  0.3988  0.3781
 9535TIP3    H150096   2.681   2.114   5.011  1.3013  2.0878 -1.9510
 9535TIP3    H250097   2.723   2.137   5.155 -1.0235 -1.7446 -0.5052
 9536TIP3   OH250098   5.661   5.673   2.724  0.1596 -0.2311 -0.0631
 9536TIP3    H150099   5.701   5.586   2.723  1.3083  0.2767 -0.1631
 9536TIP3    H250100   5.592   5.668   2.658  0.8251 -0.7942 -0.7369
 9537TIP3   OH250101   3.115   4.362  15.642 -0.4667  0.1115  0.1797
 9537TIP3    H150102   3.065   4.387  15.563  0.6451 -1.5199 -1.1065
 9537TIP3    H250103   3.059   4.298  15.686 -0.4934 -0.0317 -0.0575
 9538TIP3   OH250104   5.981   5.198   2.260  0.1580  0.0252 -0.3734
 9538TIP3    H150105   5.998   5.202   2.166 -0.5784 -0.5548 -0.5313
 9538TIP3    H250106   5.889   5.223   2.269  0.2239  0.0685  0.1950
 9539TIP3   OH250107   5.553   6.025   5.822  0.3999 -0.4933  0.2712
 9539TIP3    H150108   5.567   5.994   5.911  0.3949  0.0311  0.4553
 9539TIP3    H250109   5.597   5.959   5.767  0.6982 -0.6328  0.6740
 9540TIP3   OH250110   5.789   3.286  14.109  0.1190  0.2595  0.0322
 9540TIP3    H150111   5.803   3.377  14.085  1.6829  0.0995  0.2312
 9540TIP3    H250112   5.866   3.240  14.075  0.2960 -0.6661  1.5627
 9541TIP3   OH250113   4.873   0.946   1.515 -0.1814 -0.1404  0.1123
 9541TIP3    H150114   4.965   0.961   1.495 -0.2700  1.2293  0.6450
 9541TIP3    H250115   4.845   0.881   1.451  1.0601 -0.3199 -0.2724
 9542TIP3   OH250116   5.188   2.274  13.437  0.3749 -0.6135 -0.2813
 9542TIP3    H150117   5.250   2.231  13.496 -1.3990 -1.2961  1.1660
 9542TIP3    H250118   5.144   2.202  13.392  0.2101 -0.1591 -0.8684
 9543TIP3   OH250119   3.431   0.959   4.054  0.2166  0.9388 -0.2085
 9543TIP3    H150120   3.446   1.016   4.129  1.7781  1.1394 -0.6289
 9543TIP3    H250121   3.376   0.889   4.088  0.2358  1.4479  0.9212
 9544TIP3   OH250122   6.322   5.650   0.037 -0.2761  0.0289 -0.1099
 9544TIP3    H150123   6.304   5.559   0.013 -1.1922  0.1769 -0.0090
 9544TIP3    H250124   6.314   5.651   0.133 -0.6778  0.3034 -0.1459
 9545TIP3   OH250125   0.386   0.469  15.178  0.1558  0.9956 -0.1339
 9545TIP3    H150126   0.311   0.475  15.238 -0.4104 -0.1486 -0.6797
 9545TIP3    H250127   0.447   0.411  15.223 -0.6954 -0.6765 -1.0272
 9546TIP3   OH250128   2.786   1.276  11.794  0.7591  0.0738 -0.4234
 9546TIP3    H150129   2.875   1.273  11.758 -0.1793 -2.8727 -3.0509
 9546TIP3    H250130   2.732   1.308  11.722 -0.4482  0.9452  0.8171
 9547TIP3   OH250131   5.425   3.031   3.476 -0.3108  0.1045  0.2060
 9547TIP3    H150132   5.484   3.087   3.425  0.6536 -0.2257  0.9273
 9547TIP3    H250133   5.422   2.949   3.427 -0.4369  0.2377 -0.0103
 9548TIP3   OH250134   2.751   1.310   4.205 -0.9050  0.0773 -0.0697
 9548TIP3    H150135   2.717   1.279   4.122  0.3702 -0.9568 -0.2467
 9548TIP3    H250136   2.811   1.380   4.182 -0.7820 -0.0053 -0.0036
 9549TIP3   OH250137   4.699   3.422   5.067  0.1813 -0.3070 -0.4092
 9549TIP3    H150138   4.673   3.333   5.093 -2.5651  1.1472  2.5238
 9549TIP3    H250139   4.616   3.470   5.061  1.6664  2.5758  0.3623
 9550TIP3   OH250140   5.562   6.321   0.623  0.5190 -0.3502  0.0957
 9550TIP3    H150141   5.525   6.338   0.710 -1.3860  0.2178 -0.7718
 9550TIP3    H250142   5.645   6.278   0.641  0.0571 -0.4978  2.2020
 9551TIP3   OH250143   5.298   5.672  16.624 -0.0630 -0.0277 -0.7402
 9551TIP3    H150144   5.213   5.666  16.669  0.2520 -0.2813 -0.1587
 9551TIP3    H250145   5.294   5.755  16.576 -0.6543 -0.0557 -0.7489
 9552TIP3   OH250146   3.213   6.570   4.044  0.2848  0.4813 -0.0724
 9552TIP3    H150147   3.193   6.507   4.114 -0.9980  0.6077 -0.2912
 9552TIP3    H250148   3.143   6.557   3.980  0.4097  1.6155 -0.4682
 9553TIP3   OH250149   3.426   0.428   6.421 -0.4461 -0.4032  0.4748
 9553TIP3    H150150   3.508   0.424   6.470 -0.8692  1.7421  1.4393
 9553TIP3    H250151   3.444   0.487   6.348 -0.7807 -0.9681 -0.0784
 9554TIP3   OH250152   6.346   2.427  15.131 -0.4224  0.4503 -0.1121
 9554TIP3    H150153   6.341   2.467  15.218 -0.0129  1.9881 -0.7561
 9554TIP3    H250154   6.311   2.494  15.073 -0.1140 -0.3208 -1.2091
 9555TIP3   OH250155   0.418   0.730   4.067  0.8024 -0.0050  0.1289
 9555TIP3    H150156   0.502   0.747   4.109  0.4493  0.9379  0.4649
 9555TIP3    H250157   0.442   0.693   3.981  1.5190 -2.3846  1.2632
 9556TIP3   OH250158   0.023   0.778   1.710 -0.2646 -0.1792  0.4828
 9556TIP3    H150159   0.010   0.871   1.695 -1.8539 -0.4982 -0.2925
 9556TIP3    H250160   0.066   0.773   1.795  0.1146  1.2640  0.3914
 9557TIP3   OH250161   0.885   6.486  11.474  0.8895  0.4314  0.4459
 9557TIP3    H150162   0.896   6.446  11.388 -0.6791 -0.5109  0.6496
 9557TIP3    H250163   0.972   6.518  11.497  1.1541  1.6537 -1.9280
 9558TIP3   OH250164   2.103   2.090  10.354  0.7086 -0.3130  0.1448
 9558TIP3    H150165   2.145   2.175  10.338 -0.6014  0.1575 -1.0512
 9558TIP3    H250166   2.068   2.065  10.269 -1.8027 -0.4470  1.1443
 9559TIP3   OH250167   1.907   3.423   5.110  0.0352  0.2203 -0.5191
 9559TIP3    H150168   1.975   3.356   5.112 -1.2253 -1.1083 -0.3734
 9559TIP3    H250169   1.892   3.440   5.017  0.5127  0.4846 -0.5518
 9560TIP3   OH250170   0.890   1.528  16.552 -0.0291  0.7005 -0.2064
 9560TIP3    H150171   0.975   1.506  16.589 -0.0468 -0.0267 -0.5830
 9560TIP3    H250172   0.847   1.580  16.620  0.1634 -0.1153  0.5523
 9561TIP3   OH250173   2.360   2.972  12.999  0.3339 -0.5475 -0.1343
 9561TIP3    H150174   2.303   2.896  12.993 -0.6317  0.0250  1.1853
 9561TIP3    H250175   2.314   3.041  12.951  0.3172 -0.3019  0.2325
 9562TIP3   OH250176   3.634   0.395  16.620  0.5831  0.2195 -0.2852
 9562TIP3    H150177   3.575   0.377  16.547 -0.3663 -0.0037  0.5050
 9562TIP3    H250178   3.705   0.446  16.582 -0.6863  1.4784 -1.0764
 9563TIP3   OH250179   3.823   1.616   5.443 -0.0221  0.2303 -0.5252
 9563TIP3    H150180   3.817   1.542   5.503 -0.7360  1.0167  0.3992
 9563TIP3    H250181   3.840   1.576   5.358  2.3839 -0.8589  0.3733
 9564TIP3   OH250182   2.119   0.121  14.875  0.0048 -0.3230 -0.1005
 9564TIP3    H150183   2.162   0.036  14.887 -1.4121 -1.0662 -0.1102
 9564TIP3    H250184   2.190   0.180  14.851  1.2033 -1.2573  0.9526
 9565TIP3   OH250185   2.460   2.357  13.557  0.1801  0.3971 -0.4296
 9565TIP3    H150186   2.388   2.355  13.495 -0.9351  1.5361  0.7528
 9565TIP3    H250187   2.444   2.436  13.609  2.3604  0.7482 -0.2065
 9566TIP3   OH250188   6.258   6.230   0.432 -0.1825  0.6236  0.1398
 9566TIP3    H150189   6.186   6.250   0.374 -1.3973  0.6018  1.5735
 9566TIP3    H250190   6.217   6.207   0.515  1.4373 -0.3190  0.7459
 9567TIP3   OH250191   0.441   1.793   0.448 -0.4306  0.0822  0.5390
 9567TIP3    H150192   0.382   1.850   0.399 -1.0345 -0.8943  0.0962
 9567TIP3    H250193   0.524   1.797   0.401 -0.4272  0.6788  0.5878
 9568TIP3   OH250194   5.220   4.528   0.789 -0.1096 -0.2064  0.7233
 9568TIP3    H150195   5.275   4.568   0.856  1.0881  0.2866 -0.5140
 9568TIP3    H250196   5.205   4.598   0.725 -0.7493 -0.8259  0.1767
 9569TIP3   OH250197   6.385   1.222   2.696  0.1677 -0.7450  0.1930
 9569TIP3    H150198   6.430   1.140   2.716  1.4040 -0.1928 -0.1964
 9569TIP3    H250199   6.436   1.289   2.743 -0.3228 -0.1071 -0.1659
 9570TIP3   OH250200   2.132   0.599   1.010  0.1885  0.4720  0.2842
 9570TIP3    H150201   2.137   0.674   0.951 -0.7250 -0.8762 -1.6403
 9570TIP3    H250202   2.222   0.568   1.018  0.5397  1.6371  0.9327
 9571TIP3   OH250203   3.002   0.461  13.770 -0.3097  0.2408 -0.6745
 9571TIP3    H150204   3.051   0.531  13.727 -0.7936  0.0130 -1.6222
 9571TIP3    H250205   2.942   0.429  13.702 -1.0014 -0.2162  0.1362
 9572TIP3   OH250206   4.952   5.177   0.777  0.0445  0.4114  0.2433
 9572TIP3    H150207   4.931   5.084   0.779  1.4006  0.1070  0.6079
 9572TIP3    H250208   4.866   5.220   0.772 -0.6202 -0.8189  0.7058
 9573TIP3   OH250209   0.686   1.368  16.883 -0.0237 -0.3418  0.2917
 9573TIP3    H150210   0.711   1.398  16.970 -1.9455  0.1962  0.6916
 9573TIP3    H250211   0.713   1.439  16.824 -0.9325  0.4031  0.7576
 9574TIP3   OH250212   0.803   0.653   5.854  0.8027 -0.2696 -0.1546
 9574TIP3    H150213   0.871   0.699   5.804 -0.7789  0.8853 -1.3661
 9574TIP3    H250214   0.732   0.717   5.862 -0.8933 -1.9990 -0.5928
 9575TIP3   OH250215   1.567   1.225   3.932 -0.0019 -0.0474  0.1473
 9575TIP3    H150216   1.515   1.147   3.912  0.1548 -0.1406  0.1032
 9575TIP3    H250217   1.546   1.245   4.023 -1.5479  1.0097 -0.3954
 9576TIP3   OH250218   2.244   3.306   2.242  0.3864 -0.3333  0.0882
 9576TIP3    H150219   2.194   3.308   2.160  0.3286  2.1360  0.1032
 9576TIP3    H250220   2.225   3.390   2.284  1.2686 -1.0902  2.1280
 9577TIP3   OH250221   1.793   6.284  12.834  0.5397  0.2160  0.2969
 9577TIP3    H150222   1.763   6.278  12.925  0.2810 -1.1454  0.1418
 9577TIP3    H250223   1.775   6.197  12.797  2.7659 -0.0135 -0.3996
 9578TIP3   OH250224   5.445   3.028   2.175 -0.2216 -0.6339 -0.0085
 9578TIP3    H150225   5.461   3.092   2.106  1.7655 -0.4576  0.5631
 9578TIP3    H250226   5.425   3.080   2.252 -2.4450 -0.8314 -0.3847
 9579TIP3   OH250227   5.059   3.825   4.164  0.3298 -0.1786 -0.2322
 9579TIP3    H150228   5.061   3.916   4.135  0.7614  0.5045  1.7376
 9579TIP3    H250229   4.969   3.811   4.195  0.8985  0.4689  1.8849
 9580TIP3   OH250230   0.215   6.476   1.298 -0.1350 -0.2399 -0.3702
 9580TIP3    H150231   0.215   6.474   1.393 -1.0075 -1.2866 -0.3776
 9580TIP3    H250232   0.139   6.424   1.272  0.5297 -0.6232 -1.6504
 9581TIP3   OH250233   5.372   2.372  15.083 -0.0030  0.0902 -0.1606
 9581TIP3    H150234   5.317   2.378  15.005 -1.4806 -0.1283  0.8106
 9581TIP3    H250235   5.320   2.412  15.152  0.6971 -0.8999  0.9922
 9582TIP3   OH250236   0.897   0.306  14.732 -0.3369 -0.1536 -0.1804
 9582TIP3    H150237   0.930   0.379  14.679 -0.5336 -0.6310 -0.9759
 9582TIP3    H250238   0.966   0.240  14.727  0.1434  0.2350  1.1039
 9583TIP3   OH250239   3.414   0.537   3.698  0.2299  0.0290  0.4539
 9583TIP3    H150240   3.339   0.480   3.684  0.4896 -0.1443 -0.3046
 9583TIP3    H250241   3.402   0.573   3.786 -0.4540 -0.4147  0.5439
 9584TIP3   OH250242   0.980   5.045   2.344  0.3146  0.3140 -0.1989
 9584TIP3    H150243   1.075   5.041   2.353  0.5743  0.6570 -2.1828
 9584TIP3    H250244   0.955   5.133   2.372  0.4940  0.0621  0.7866
 9585TIP3   OH250245   5.709   3.443  14.756 -0.5212  0.5136  0.2431
 9585TIP3    H150246   5.735   3.354  14.732 -1.1938 -0.2746  2.2203
 9585TIP3    H250247   5.630   3.460  14.705 -0.8866 -0.3866  0.4836
 9586TIP3   OH250248   4.912   4.266  15.809 -0.4279  0.0629  0.1011
 9586TIP3    H150249   4.951   4.182  15.786 -0.0272  0.4255 -0.5619
 9586TIP3    H250250   4.924   4.321  15.731 -2.5776  0.0872 -0.2938
 9587TIP3   OH250251   6.213   2.574   5.992  0.4685 -0.1587  0.7524
 9587TIP3    H150252   6.186   2.666   5.994  0.0707 -0.2335 -0.4608
 9587TIP3    H250253   6.309   2.577   5.991  0.4574  0.2306  0.8244
 9588TIP3   OH250254   1.744   6.153  16.412  0.1592 -0.1373  0.2666
 9588TIP3    H150255   1.780   6.210  16.343 -1.1139  0.6795  0.2579
 9588TIP3    H250256   1.777   6.066  16.389 -0.6711  0.0066 -1.7178
 9589TIP3   OH250257   0.517   3.606   0.895 -0.0363  0.3995  0.4351
 9589TIP3    H150258   0.551   3.518   0.909 -1.2629  0.0500  1.4126
 9589TIP3    H250259   0.480   3.604   0.807  0.3860  0.0892  0.2623
 9590TIP3   OH250260   6.682   5.551   0.266  0.4239 -0.3389 -0.0550
 9590TIP3    H150261   6.666   5.646   0.263  1.4052 -0.1176  1.3251
 9590TIP3    H250262   6.697   5.527   0.174  0.4930  0.8917 -0.3854
 9591TIP3   OH250263   4.872   2.695  14.966  0.1633 -0.2616 -0.3216
 9591TIP3    H150264   4.927   2.767  14.998  1.3314 -0.7446 -1.1634
 9591TIP3    H250265   4.825   2.665  15.043  1.3044 -0.0147  0.5103
 9592TIP3   OH250266   2.529   1.599  13.974  0.2472 -0.4104  0.1344
 9592TIP3    H150267   2.488   1.555  13.900  1.9777 -0.0018 -1.1324
 9592TIP3    H250268   2.466   1.589  14.046 -1.5711 -0.6462 -1.4135
 9593TIP3   OH250269   0.103   4.487  11.512  0.4660  0.0191 -0.4217
 9593TIP3    H150270   0.180   4.541  11.492  0.7029 -0.1585  0.0126
 9593TIP3    H250271   0.070   4.522  11.595 -0.6703  0.9263 -1.2056
 9594TIP3   OH250272   4.962   6.184  14.777 -0.4051  0.3570  0.4930
 9594TIP3    H150273   4.964   6.148  14.688 -1.3911  0.3061  0.4760
 9594TIP3    H250274   4.975   6.108  14.834  0.6133  0.4457  0.3924
 9595TIP3   OH250275   1.920   2.145   0.418 -0.0093  0.4111  0.7238
 9595TIP3    H150276   2.005   2.175   0.386  0.1579 -0.1769  0.6030
 9595TIP3    H250277   1.936   2.117   0.509  0.1398 -0.5552  0.4168
 9596TIP3   OH250278   1.317   1.401   2.303  0.1766  0.7212 -0.1262
 9596TIP3    H150279   1.289   1.329   2.246  0.4540  2.3560 -2.4839
 9596TIP3    H250280   1.412   1.406   2.292  0.1187  1.6899 -0.3300
 9597TIP3   OH250281   5.828   4.033   0.574  0.0499 -0.4364  0.0849
 9597TIP3    H150282   5.821   3.985   0.492  0.5862 -1.8760  0.8419
 9597TIP3    H250283   5.738   4.042   0.604 -0.1986  0.6294 -0.9357
 9598TIP3   OH250284   6.806   3.885  14.168 -0.3282 -0.4601 -0.0245
 9598TIP3    H150285   6.790   3.829  14.093 -0.2721  0.4170 -0.7025
 9598TIP3    H250286   6.755   3.964  14.151  1.3473  0.6403 -0.2010
 9599TIP3   OH250287   4.855   2.668   2.238  0.2258 -0.0490 -0.0063
 9599TIP3    H150288   4.840   2.649   2.331 -0.0444  3.4523  0.7786
 9599TIP3    H250289   4.771   2.699   2.206  1.0004  1.4523 -0.6634
 9600TIP3   OH250290   2.078   6.081  16.539 -0.1827  0.7344  0.5579
 9600TIP3    H150291   2.168   6.109  16.525 -1.1578  4.1268  0.1182
 9600TIP3    H250292   2.054   6.120  16.623 -1.9489  2.2899 -0.5723
 9601TIP3   OH250293   2.481   5.157  15.971 -1.1473  0.6957 -0.4785
 9601TIP3    H150294   2.428   5.236  15.959 -0.6464  1.3936  1.5983
 9601TIP3    H250295   2.487   5.119  15.883 -2.7011  2.1098 -1.2549
 9602TIP3   OH250296   5.560   3.847  13.695 -0.0214 -0.0601 -0.0656
 9602TIP3    H150297   5.516   3.865  13.612 -1.6258 -1.2127  0.4923
 9602TIP3    H250298   5.586   3.755  13.689 -0.5031 -0.2671  0.8464
 9603TIP3   OH250299   4.044   4.892  12.997 -0.2170 -0.1525  0.2255
 9603TIP3    H150300   4.017   4.908  12.906  0.2035 -3.1030 -0.5208
 9603TIP3    H250301   3.962   4.871  13.042 -0.1063 -1.8577 -0.2949
 9604TIP3   OH250302   0.616   4.192  16.020  0.0670  0.4451 -0.6011
 9604TIP3    H150303   0.549   4.213  16.086  0.4087  0.4305 -0.2431
 9604TIP3    H250304   0.566   4.165  15.943 -0.3265 -0.4167 -0.0540
 9605TIP3   OH250305   5.095   5.385  15.867 -0.6113 -0.2172  0.0435
 9605TIP3    H150306   5.003   5.358  15.869 -1.2303  1.7171  1.2540
 9605TIP3    H250307   5.117   5.404  15.959  0.6301  0.4406 -0.3584
 9606TIP3   OH250308   6.786   5.560   5.412  0.0356  0.1970 -0.1560
 9606TIP3    H150309   6.795   5.491   5.346 -1.2972  2.5355 -3.0020
 9606TIP3    H250310   6.847   5.628   5.385 -1.6426  1.8783  0.0286
 9607TIP3   OH250311   0.998   5.493   5.457 -0.3588  0.0619  0.1477
 9607TIP3    H150312   1.076   5.478   5.404 -0.4409 -1.1742  0.3626
 9607TIP3    H250313   1.033   5.523   5.541 -0.1595  0.3675 -0.0390
 9608TIP3   OH250314   4.863   1.003   1.776  0.0301  0.1735 -0.4802
 9608TIP3    H150315   4.874   0.975   1.685  0.9725  0.1717 -0.3729
 9608TIP3    H250316   4.814   0.932   1.817  0.9912 -0.5819 -0.6023
 9609TIP3   OH250317   4.265   4.145  10.689 -0.5125 -0.3457  0.7865
 9609TIP3    H150318   4.244   4.223  10.638 -2.4080 -1.2536  0.0863
 9609TIP3    H250319   4.350   4.117  10.656  0.0794  1.2228  0.8562
 9610TIP3   OH250320   5.052   4.818   3.336  0.9879 -0.2720  0.3524
 9610TIP3    H150321   5.020   4.737   3.296 -0.1257 -0.4980  1.6242
 9610TIP3    H250322   5.109   4.857   3.270 -0.4329 -0.8288 -1.2668
 9611TIP3   OH250323   6.709   1.838   3.754  0.3493 -0.1701  0.2347
 9611TIP3    H150324   6.632   1.890   3.778  0.8090 -0.0873  1.6469
 9611TIP3    H250325   6.681   1.747   3.766  0.3123 -0.1568  0.2493
 9612TIP3   OH250326   4.585   5.021   2.100 -0.1937 -0.0162  0.1584
 9612TIP3    H150327   4.657   5.041   2.040 -1.6070  1.3108 -1.1681
 9612TIP3    H250328   4.566   5.105   2.143 -0.9420 -0.3499  0.4925
 9613TIP3   OH250329   3.033   4.429   1.031  0.1299  0.3421 -0.0924
 9613TIP3    H150330   2.963   4.493   1.017 -0.0845  0.4816  1.4535
 9613TIP3    H250331   3.113   4.480   1.022  0.0441  0.2515 -1.5420
 9614TIP3   OH250332   1.656   5.067  11.746 -0.4879 -0.2355  0.3695
 9614TIP3    H150333   1.736   5.019  11.766 -0.2313  0.1782  0.3364
 9614TIP3    H250334   1.595   5.000  11.715  0.7297 -0.1965 -2.3251
 9615TIP3   OH250335   0.031   3.860  12.530  0.0716 -1.2314  0.1095
 9615TIP3    H150336   0.022   3.953  12.506  3.6933 -0.9829 -0.9288
 9615TIP3    H250337   0.031   3.860  12.625  1.4647  0.1154  0.1595
 9616TIP3   OH250338   3.970   1.469  12.782 -0.4465 -0.2913 -0.1735
 9616TIP3    H150339   3.983   1.440  12.692 -2.0004  2.1735 -1.3096
 9616TIP3    H250340   3.875   1.481  12.789 -0.1560  1.9449  0.9198
 9617TIP3   OH250341   0.355   3.484  16.266  0.0323 -0.3471  0.0407
 9617TIP3    H150342   0.447   3.504  16.279 -0.6564  1.5098  3.2568
 9617TIP3    H250343   0.345   3.394  16.297  0.4238  0.3425  2.4337
 9618TIP3   OH250344   0.661   0.531   5.651  1.2286 -0.3855  0.5068
 9618TIP3    H150345   0.695   0.569   5.732  1.6144 -0.3219  0.3161
 9618TIP3    H250346   0.737   0.524   5.594  1.6358 -3.4316  1.2656
 9619TIP3   OH250347   3.799   4.868   3.465 -0.1012  0.3671  0.8313
 9619TIP3    H150348   3.886   4.901   3.489 -0.0611  1.1304 -0.2866
 9619TIP3    H250349   3.811   4.829   3.379 -0.6508 -0.5540  1.1537
 9620TIP3   OH250350   1.189   6.513  13.551 -0.4453  0.4985 -0.6226
 9620TIP3    H150351   1.150   6.425  13.554 -1.5861  1.0154 -0.0178
 9620TIP3    H250352   1.273   6.503  13.595 -1.2026  0.0043  0.7800
 9621TIP3   OH250353   2.869   6.462   1.963  0.1117  0.0948  0.0827
 9621TIP3    H150354   2.869   6.389   1.901  1.7869  0.9013 -0.9406
 9621TIP3    H250355   2.811   6.527   1.923  1.0127  0.5234 -0.5532
 9622TIP3   OH250356   4.306   5.423   1.530 -0.0303  0.5430 -0.0964
 9622TIP3    H150357   4.258   5.341   1.543  0.1710  0.5320  0.6262
 9622TIP3    H250358   4.342   5.416   1.441 -1.3839  0.5699 -0.6632
 9623TIP3   OH250359   1.458   4.881  15.609 -0.1610 -0.0425 -0.1079
 9623TIP3    H150360   1.514   4.953  15.582 -0.4693  0.7477  1.2647
 9623TIP3    H250361   1.453   4.824  15.532  0.1930  1.3249 -1.1859
 9624TIP3   OH250362   2.954   3.064  16.579 -0.1097  0.0871  0.0890
 9624TIP3    H150363   2.965   3.130  16.647 -0.1232 -0.2783  0.4449
 9624TIP3    H250364   3.004   3.098  16.504  1.3886 -0.3693  0.8566
 9625TIP3   OH250365   2.295   6.495   4.446 -0.7829  0.2882  0.2780
 9625TIP3    H150366   2.234   6.534   4.384  0.1886 -1.4732 -1.9098
 9625TIP3    H250367   2.375   6.481   4.395  0.1246 -1.0894  1.9839
 9626TIP3   OH250368   0.373   5.200  16.594  0.4055  0.1047 -0.0140
 9626TIP3    H150369   0.357   5.237  16.681  1.7744  0.7070  0.0118
 9626TIP3    H250370   0.434   5.128  16.611  2.3483  1.5141 -0.6407
 9627TIP3   OH250371   6.087   5.900   0.068  0.5628 -0.2397  0.1422
 9627TIP3    H150372   6.106   5.811   0.099 -1.0751 -1.3403 -1.7307
 9627TIP3    H250373   5.992   5.908   0.075  0.3359  0.2146 -2.3898
 9628TIP3   OH250374   6.620   3.196   0.887 -0.3911  0.1096  0.7809
 9628TIP3    H150375   6.550   3.212   0.824  0.4553  0.6710 -0.0501
 9628TIP3    H250376   6.584   3.223   0.972 -1.5053 -0.5526  0.5265
 9629TIP3   OH250377   3.610   1.283  16.967  0.2441 -0.3485 -0.0861
 9629TIP3    H150378   3.701   1.278  16.938  0.3508  0.1833  0.1490
 9629TIP3    H250379   3.596   1.376  16.986 -0.8077 -0.1350 -1.6375
 9630TIP3   OH250380   4.187   2.292  15.334  0.0048  0.5424  0.2497
 9630TIP3    H150381   4.251   2.266  15.269  0.1116 -1.2769  1.0205
 9630TIP3    H250382   4.207   2.384  15.353  1.4978  0.3925 -0.4926
 9631TIP3   OH250383   6.777   6.627   5.336 -0.4422  0.0832 -0.2304
 9631TIP3    H150384   6.685   6.616   5.360 -1.4477  0.0576 -3.5989
 9631TIP3    H250385   6.789   6.722   5.331  0.3325  0.1709  1.9204
 9632TIP3   OH250386   4.758   6.117  16.067 -0.5198  0.7407 -0.1962
 9632TIP3    H150387   4.805   6.150  16.144 -0.1781 -0.6261  0.2206
 9632TIP3    H250388   4.827   6.081  16.011 -1.0700 -4.2031  1.8315
 9633TIP3   OH250389   6.633   3.627  15.395 -0.4512  0.5704 -0.0105
 9633TIP3    H150390   6.726   3.651  15.391 -0.5899  1.2365  0.4589
 9633TIP3    H250391   6.607   3.651  15.484 -1.0017  0.1007 -0.0408
 9634TIP3   OH250392   6.718   4.291   1.409  0.0517  0.2317  0.0946
 9634TIP3    H150393   6.624   4.275   1.419  0.2073  0.2230  1.9406
 9634TIP3    H250394   6.731   4.379   1.445  1.0186 -0.5612  1.7951
 9635TIP3   OH250395   3.138   2.491   4.578  0.6902  0.3198  0.2733
 9635TIP3    H150396   3.108   2.401   4.582 -0.1848  0.4764 -1.6050
 9635TIP3    H250397   3.233   2.484   4.564  0.5491 -0.3247 -0.4028
 9636TIP3   OH250398   1.329   5.905  12.225  0.1328 -0.0556  0.0415
 9636TIP3    H150399   1.372   5.822  12.247 -1.8301 -0.8844  1.0668
 9636TIP3    H250400   1.388   5.972  12.257  1.1302 -1.0960  0.4603
 9637TIP3   OH250401   6.174   0.988   1.112 -0.1350  0.1294  0.0429
 9637TIP3    H150402   6.267   0.995   1.134  0.0645  0.8474 -0.9481
 9637TIP3    H250403   6.173   0.950   1.025 -0.6915  1.4048 -0.5396
 9638TIP3   OH250404   0.055   3.729  14.550  0.1037 -0.9303 -0.6256
 9638TIP3    H150405  -0.020   3.772  14.509 -0.3757 -0.1677  0.9926
 9638TIP3    H250406   0.131   3.775  14.515 -0.3652  0.7086  0.4206
 9639TIP3   OH250407   4.374   2.739  15.401  0.7427 -0.4529  0.2395
 9639TIP3    H150408   4.367   2.643  15.405  0.2811 -0.4439 -0.3545
 9639TIP3    H250409   4.446   2.759  15.461  0.1749 -1.0881  1.1740
 9640TIP3   OH250410   2.165   5.335  17.176 -0.3674  0.4957 -0.3608
 9640TIP3    H150411   2.249   5.325  17.130 -0.8677 -1.5481 -0.9076
 9640TIP3    H250412   2.189   5.344  17.268  0.5207  2.0144 -0.6948
 9641TIP3   OH250413   3.445   4.520  16.543 -0.0255  0.2437 -0.4463
 9641TIP3    H150414   3.524   4.568  16.568  0.0379 -0.1087  0.0467
 9641TIP3    H250415   3.448   4.517  16.447  0.5731  0.2106 -0.4318
 9642TIP3   OH250416   3.230   6.482   6.762 -0.7946 -0.3267 -0.2972
 9642TIP3    H150417   3.283   6.478   6.683 -0.5688  1.8702 -0.3157
 9642TIP3    H250418   3.145   6.445   6.736 -0.7776  0.5098 -1.6220
 9643TIP3   OH250419   0.990   4.335   4.498 -0.1262  0.7985 -0.5158
 9643TIP3    H150420   0.914   4.277   4.495  0.7831 -0.6033  1.3223
 9643TIP3    H250421   1.051   4.292   4.558  1.0329  3.1930  0.1724
 9644TIP3   OH250422   6.414   3.621  12.793  0.3298 -0.6181  0.1185
 9644TIP3    H150423   6.323   3.630  12.823  0.4092 -2.2101  0.9811
 9644TIP3    H250424   6.409   3.632  12.698 -0.5460  0.6452  0.2864
 9645TIP3   OH250425   1.644   3.296  12.287 -0.2415 -0.1801  0.3884
 9645TIP3    H150426   1.734   3.274  12.264  0.7463  0.1485  3.5165
 9645TIP3    H250427   1.637   3.390  12.271  0.7847  0.2694  2.2952
 9646TIP3   OH250428   6.733   3.864   5.658 -0.0929 -0.4550 -0.3315
 9646TIP3    H150429   6.744   3.898   5.747 -1.0242 -3.0440  0.8926
 9646TIP3    H250430   6.646   3.892   5.631 -0.0024 -0.0680 -0.2170
 9647TIP3   OH250431   2.768   3.295  15.371  0.7852  0.2417  0.7428
 9647TIP3    H150432   2.813   3.363  15.321  0.3606  0.5338  0.7522
 9647TIP3    H250433   2.705   3.257  15.310  0.7115  0.1635  0.8656
 9648TIP3   OH250434   4.679   2.951  13.913  0.2596  0.7419  0.5341
 9648TIP3    H150435   4.703   2.861  13.896  1.1148  0.9906  0.3988
 9648TIP3    H250436   4.622   2.975  13.840 -1.8149 -0.3612  1.7035
 9649TIP3   OH250437   4.036   3.365  15.890  0.4337  0.8652  0.1056
 9649TIP3    H150438   4.041   3.272  15.914 -0.2899  0.9565  0.6332
 9649TIP3    H250439   4.127   3.395  15.892  1.0019 -0.3752 -2.3859
 9650TIP3   OH250440   0.992   1.065   6.071 -0.0298 -0.0243 -0.2377
 9650TIP3    H150441   0.903   1.042   6.042  0.8988 -3.7269 -0.6297
 9650TIP3    H250442   1.027   1.118   5.999 -1.5786  0.7293 -0.4920
 9651TIP3   OH250443   1.546   5.930  12.565  0.3380  0.3890  0.3225
 9651TIP3    H150444   1.543   5.905  12.657 -0.2336 -0.5165  0.0726
 9651TIP3    H250445   1.574   5.851  12.519 -0.2445  0.5749 -0.3691
 9652TIP3   OH250446   4.852   6.526   4.667 -0.1451  0.0006 -0.0777
 9652TIP3    H150447   4.923   6.467   4.642 -1.4419 -1.1359 -1.2660
 9652TIP3    H250448   4.856   6.529   4.762 -0.2513 -2.3311  0.0524
 9653TIP3   OH250449   2.292   1.934   2.316  0.3516  0.1426  0.1772
 9653TIP3    H150450   2.387   1.934   2.303  0.0499 -0.9087 -2.4848
 9653TIP3    H250451   2.267   2.025   2.305  0.9932  0.3729  0.5331
 9654TIP3   OH250452   0.276   0.658   5.605 -0.0286  0.2996 -0.8840
 9654TIP3    H150453   0.217   0.585   5.621 -2.5265  1.7340 -2.7313
 9654TIP3    H250454   0.338   0.626   5.539 -0.6630 -0.3555 -1.1721
 9655TIP3   OH250455   0.672   4.746  13.002 -0.6598 -0.1217  0.0321
 9655TIP3    H150456   0.591   4.750  13.054 -0.4611  1.6177  0.2690
 9655TIP3    H250457   0.650   4.791  12.921 -0.3343 -0.9296 -0.5130
 9656TIP3   OH250458   6.616   2.745  11.414 -0.3034 -0.6413 -0.7249
 9656TIP3    H150459   6.683   2.743  11.346 -1.0530  2.5677 -1.7213
 9656TIP3    H250460   6.536   2.717  11.369 -0.5373  0.1612 -0.8112
 9657TIP3   OH250461   0.255   4.209  12.670  0.1838 -0.5030  0.2202
 9657TIP3    H150462   0.347   4.197  12.644  0.1274 -0.4207 -0.0227
 9657TIP3    H250463   0.259   4.272  12.742  0.1658  1.2309 -1.2187
 9658TIP3   OH250464   2.337   5.603  16.153 -0.4837  0.2779 -0.2501
 9658TIP3    H150465   2.338   5.635  16.243  1.5908 -0.3770  0.0157
 9658TIP3    H250466   2.295   5.517  16.159  1.4512 -0.6804  0.5037
 9659TIP3   OH250467   3.883   2.954   2.946 -0.1470 -0.2784 -0.5888
 9659TIP3    H150468   3.900   3.038   2.903 -2.0552  1.5282  1.8569
 9659TIP3    H250469   3.969   2.920   2.968  0.6846  0.9477 -1.7838
 9660TIP3   OH250470   2.662   3.766   3.101  0.0345  0.2266 -0.9908
 9660TIP3    H150471   2.645   3.859   3.084 -0.3828  0.6113  1.2258
 9660TIP3    H250472   2.754   3.762   3.127 -0.2096  0.2098 -0.0842
 9661TIP3   OH250473   0.488   0.218  12.822 -0.1579  0.4667 -0.6866
 9661TIP3    H150474   0.522   0.304  12.847 -0.7149  0.2339  0.9605
 9661TIP3    H250475   0.565   0.162  12.814  0.1274  0.8755 -0.7733
 9662TIP3   OH250476   5.543   5.528   0.590  0.0449 -0.0850 -0.3077
 9662TIP3    H150477   5.537   5.438   0.559 -1.6797 -0.2320  0.3164
 9662TIP3    H250478   5.455   5.564   0.575  0.3261  1.0692  0.6570
 9663TIP3   OH250479   2.473   2.014  12.186  0.1682 -0.1098 -0.2961
 9663TIP3    H150480   2.423   1.962  12.123 -0.7774 -1.9799  1.8454
 9663TIP3    H250481   2.411   2.081  12.215 -0.5739 -1.3425  1.0677
 9664TIP3   OH250482   2.401   3.674  11.854  0.5937  0.6793 -0.2380
 9664TIP3    H150483   2.374   3.666  11.763  1.5282 -1.7470 -0.3785
 9664TIP3    H250484   2.429   3.765  11.863  0.7877  0.8866 -2.4727
 9665TIP3   OH250485   2.679   2.298   5.571  0.6729  0.1988  0.2484
 9665TIP3    H150486   2.737   2.222   5.569 -1.9948 -1.9959 -0.2712
 9665TIP3    H250487   2.722   2.360   5.629  1.8150 -2.7488  2.8199
 9666TIP3   OH250488   2.267   1.613  14.123  0.2154  0.2719 -0.3063
 9666TIP3    H150489   2.246   1.548  14.190  0.5074 -0.4350 -0.8811
 9666TIP3    H250490   2.186   1.625  14.074  0.2512  0.0821 -0.4125
 9667TIP3   OH250491   2.361   3.081  15.244 -0.1737 -0.0086  0.0730
 9667TIP3    H150492   2.424   3.045  15.307 -1.3539 -2.1977  0.1064
 9667TIP3    H250493   2.360   3.174  15.263  1.3146 -0.2392  1.6456
 9668TIP3   OH250494   3.760   0.817   3.100  0.1986 -0.2042  0.9591
 9668TIP3    H150495   3.762   0.808   3.005  0.5758 -2.4486  1.1248
 9668TIP3    H250496   3.724   0.904   3.115 -0.2009  0.0624 -1.2268
 9669TIP3   OH250497   3.160   2.473  15.597 -0.1756  0.1756 -0.0763
 9669TIP3    H150498   3.181   2.550  15.544 -3.2655  1.7011  0.6547
 9669TIP3    H250499   3.159   2.506  15.687 -0.1777 -1.0708  0.3892
 9670TIP3   OH250500   5.983   6.121  11.408  0.7434  0.1952  0.0591
 9670TIP3    H150501   5.920   6.050  11.400  0.1888  0.6699  0.1300
 9670TIP3    H250502   5.943   6.182  11.469  1.1394  0.6451 -0.1236
 9671TIP3   OH250503   2.406   0.798   6.584  0.0463 -0.3704 -0.3236
 9671TIP3    H150504   2.337   0.744   6.623 -0.7446 -0.7407 -2.1522
 9671TIP3    H250505   2.361   0.874   6.548  0.6708 -0.2825 -0.9497
 9672TIP3   OH250506   6.403   0.888  17.112  0.6742  0.0507 -0.1261
 9672TIP3    H150507   6.415   0.959  17.175  0.2137 -0.1500  0.1902
 9672TIP3    H250508   6.367   0.816  17.164  1.8168 -0.6661 -0.2860
 9673TIP3   OH250509   2.195   5.991  14.200 -0.1523  0.1441  0.0137
 9673TIP3    H150510   2.218   6.078  14.169  0.9079 -0.3183 -0.5737
 9673TIP3    H250511   2.263   5.970  14.265 -0.6934 -0.0424  0.5270
 9674TIP3   OH250512   3.563   5.805   2.176  0.0372  0.4956 -0.1574
 9674TIP3    H150513   3.561   5.710   2.174 -0.9377  0.5058 -0.0616
 9674TIP3    H250514   3.522   5.829   2.259  1.6853  0.9868  0.5569
 9675TIP3   OH250515   0.908   5.252   1.196 -0.4815 -0.1662  0.6307
 9675TIP3    H150516   0.876   5.188   1.132 -0.8089  1.0772 -0.5031
 9675TIP3    H250517   1.001   5.231   1.206 -0.5923 -0.8353  0.3044
 9676TIP3   OH250518   4.018   5.779   4.005 -0.1974  0.5378  0.2224
 9676TIP3    H150519   3.971   5.718   3.948 -2.4611  1.3679  1.0942
 9676TIP3    H250520   4.068   5.834   3.945 -0.7936 -0.0132 -0.8122
 9677TIP3   OH250521   4.954   0.626   4.473  0.6871 -0.8135 -0.6875
 9677TIP3    H150522   5.002   0.689   4.419 -0.8911  0.7372 -0.3624
 9677TIP3    H250523   4.931   0.675   4.552  1.9802 -2.7139  0.9665
 9678TIP3   OH250524   5.263   0.903  12.649  0.1263 -0.0095  0.2819
 9678TIP3    H150525   5.169   0.902  12.667 -0.1205 -0.2047 -0.9502
 9678TIP3    H250526   5.277   0.984  12.600  0.7783  0.4942  1.2522
 9679TIP3   OH250527   2.987   6.212  15.635  0.2159  0.4999  0.4426
 9679TIP3    H150528   2.930   6.281  15.600 -0.4185  0.0622  0.5900
 9679TIP3    H250529   3.020   6.248  15.717  1.5673  1.4612 -0.4723
 9680TIP3   OH250530   2.752   6.756   3.383 -0.6049 -0.0339 -0.1861
 9680TIP3    H150531   2.661   6.746   3.357 -0.8595 -0.0593  0.6866
 9680TIP3    H250532   2.787   6.667   3.383 -0.7819 -0.1049  0.1793
 9681TIP3   OH250533   3.453   1.793   2.776 -0.6193 -0.1009  0.0794
 9681TIP3    H150534   3.538   1.751   2.793  0.8260  1.6571 -2.0766
 9681TIP3    H250535   3.456   1.874   2.827 -0.6339  0.3415 -0.6068
 9682TIP3   OH250536   3.515   0.492   2.288 -0.9627  0.0497  0.0206
 9682TIP3    H150537   3.604   0.491   2.323 -1.0367 -0.9482  0.2230
 9682TIP3    H250538   3.488   0.400   2.291 -1.9936  0.3422 -0.0385
 9683TIP3   OH250539   5.261   2.151   1.994 -0.1210  0.8062 -0.0810
 9683TIP3    H150540   5.204   2.157   1.918 -0.7601 -0.6133  0.2487
 9683TIP3    H250541   5.342   2.111   1.961  0.0972  1.3797 -0.2505
 9684TIP3   OH250542   3.930   2.065  15.712 -0.1910 -0.3097 -0.3384
 9684TIP3    H150543   3.998   2.100  15.771 -1.3381  1.6389 -0.0888
 9684TIP3    H250544   3.969   2.070  15.625 -0.7280  3.0288 -0.5034
 9685TIP3   OH250545   3.427   6.219   3.313  0.2241 -0.2204  0.5633
 9685TIP3    H150546   3.414   6.130   3.279  2.1485 -0.6325  0.7963
 9685TIP3    H250547   3.343   6.241   3.354 -0.6787 -1.4513 -0.5113
 9686TIP3   OH250548   0.617   5.716  15.332 -0.1769 -1.1637 -0.5457
 9686TIP3    H150549   0.576   5.660  15.267 -1.8774 -0.2512 -0.3187
 9686TIP3    H250550   0.558   5.713  15.407 -0.1518  0.6383 -0.4105
 9687TIP3   OH250551   1.649   5.947  14.623 -0.6986  0.4328 -0.0828
 9687TIP3    H150552   1.632   6.010  14.693  0.4706 -1.0479  1.6253
 9687TIP3    H250553   1.700   5.878  14.665  1.0853  0.0474 -2.6992
 9688TIP3   OH250554   6.614   1.657   1.676  0.0836  0.0135  0.2412
 9688TIP3    H150555   6.681   1.631   1.613  0.7058  1.1334  0.4196
 9688TIP3    H250556   6.662   1.699   1.747 -0.5072 -2.1280  2.0180
 9689TIP3   OH250557   0.642   5.930   3.647 -0.0840  0.0025  0.2816
 9689TIP3    H150558   0.554   5.964   3.630  0.6931  2.0464  0.1714
 9689TIP3    H250559   0.632   5.878   3.727 -1.6171 -0.8945 -0.4252
 9690TIP3   OH250560   6.064   2.182  17.168  0.2476  0.5108  0.0919
 9690TIP3    H150561   6.048   2.269  17.133  1.0718  1.8820  2.7874
 9690TIP3    H250562   5.999   2.171  17.237 -0.3027 -1.3644 -0.6540
 9691TIP3   OH250563   4.654   4.747   2.235  0.4953 -0.6198 -0.0738
 9691TIP3    H150564   4.576   4.799   2.251  1.5392  0.3952  2.1209
 9691TIP3    H250565   4.674   4.761   2.142  0.1215  2.0453  0.1873
 9692TIP3   OH250566   6.299   2.388   2.871  0.7176  0.1800 -0.6913
 9692TIP3    H150567   6.244   2.424   2.941  3.1912  2.0770  0.4140
 9692TIP3    H250568   6.247   2.400   2.792 -0.8669  1.0035  0.4111
 9693TIP3   OH250569   4.627   3.424  16.630 -0.1332  0.3566  0.1950
 9693TIP3    H150570   4.572   3.439  16.553  0.6595  1.3635 -0.1976
 9693TIP3    H250571   4.680   3.348  16.607 -0.0717  0.5024 -0.1496
 9694TIP3   OH250572   0.817   0.694  16.393 -0.5638  0.1291  0.2212
 9694TIP3    H150573   0.837   0.737  16.310  1.5530  2.1655  1.6239
 9694TIP3    H250574   0.739   0.740  16.425  0.1831  1.2512  0.5182
 9695TIP3   OH250575   6.081   1.724  14.717  0.4195  0.1959 -0.2108
 9695TIP3    H150576   6.168   1.716  14.757  0.4378 -2.2413 -0.6336
 9695TIP3    H250577   6.100   1.751  14.627  0.7532 -0.4775 -0.3476
 9696TIP3   OH250578   2.506   3.505   3.934  0.2327 -0.4589 -0.0990
 9696TIP3    H150579   2.585   3.470   3.976 -0.5349 -0.0005  1.8411
 9696TIP3    H250580   2.436   3.445   3.960 -0.8056  1.4621  1.9094
 9697TIP3   OH250581   1.147   1.158   5.381 -0.1235 -0.0454  0.1899
 9697TIP3    H150582   1.206   1.109   5.438  1.0027 -0.2538 -1.1064
 9697TIP3    H250583   1.173   1.250   5.393  1.6351 -0.2460 -1.5621
 9698TIP3   OH250584   6.569   1.329   1.559  0.4497  0.4891  0.4848
 9698TIP3    H150585   6.615   1.391   1.503  3.4098 -1.0990  0.9172
 9698TIP3    H250586   6.504   1.288   1.502 -0.1829  2.4709 -0.3133
 9699TIP3   OH250587   3.226   1.914   1.326 -0.3373  0.5977 -0.0501
 9699TIP3    H150588   3.276   1.858   1.266  2.1637 -1.1333  3.3186
 9699TIP3    H250589   3.149   1.862   1.349  0.0000  0.1685  0.1224
 9700TIP3   OH250590   4.777   1.214   5.217 -0.4771 -0.5618  0.7187
 9700TIP3    H150591   4.824   1.191   5.296 -0.1790  0.8519  0.9900
 9700TIP3    H250592   4.761   1.131   5.172  0.3850 -1.2574  1.6738
 9701TIP3   OH250593   2.177   5.408  11.263 -0.3086 -0.2905  0.1004
 9701TIP3    H150594   2.104   5.350  11.282 -1.0654  1.0202  1.4329
 9701TIP3    H250595   2.239   5.395  11.335  0.2236 -0.5450 -0.3980
 9702TIP3   OH250596   4.581   0.712  13.320 -0.2751  0.4338 -0.1835
 9702TIP3    H150597   4.527   0.758  13.256  0.0855  1.0218 -0.0836
 9702TIP3    H250598   4.565   0.619  13.304 -0.1895  0.5741 -1.1266
 9703TIP3   OH250599   1.802   4.564  14.651  0.0350  0.1676 -0.1576
 9703TIP3    H150600   1.874   4.595  14.596  1.3984  0.0941  1.5141
 9703TIP3    H250601   1.723   4.595  14.607  1.1183  0.9709 -1.6036
 9704TIP3   OH250602   6.558   0.526  14.867  0.0631  0.3117  0.5265
 9704TIP3    H150603   6.537   0.605  14.916  1.0427  0.7441  0.2765
 9704TIP3    H250604   6.539   0.548  14.776  1.3596  0.6499  0.3194
 9705TIP3   OH250605   3.206   1.996   5.589 -0.5674 -0.0965 -0.3880
 9705TIP3    H150606   3.232   1.905   5.607 -1.6211 -0.7693 -2.0325
 9705TIP3    H250607   3.264   2.048   5.644  0.7307 -1.7186 -0.1147
 9706TIP3   OH250608   5.052   2.285   5.566 -0.4989  0.8519  0.0471
 9706TIP3    H150609   5.070   2.359   5.623  0.5224  0.2821  0.4905
 9706TIP3    H250610   5.104   2.213   5.602  0.6430  0.6170 -1.9225
 9707TIP3   OH250611   3.821   4.034  14.951  0.1478  0.1949 -0.1912
 9707TIP3    H150612   3.792   4.023  15.042  0.4557  0.0044 -0.1159
 9707TIP3    H250613   3.878   4.110  14.952 -1.1664  1.2395 -0.5284
 9708TIP3   OH250614   2.734   6.478  16.552 -0.1433  0.1887 -0.1901
 9708TIP3    H150615   2.755   6.539  16.623 -1.2423 -1.2241  1.4246
 9708TIP3    H250616   2.652   6.510  16.515  0.4069  0.8996 -0.8308
 9709TIP3   OH250617   2.547   1.230   3.552 -0.2779 -0.0014 -0.4126
 9709TIP3    H150618   2.585   1.164   3.611 -0.8565 -0.8242 -0.9416
 9709TIP3    H250619   2.541   1.309   3.606  0.0436 -0.4874  0.3590
 9710TIP3   OH250620   1.309   0.500   6.594  0.2718  0.3916 -0.5170
 9710TIP3    H150621   1.349   0.472   6.676 -2.0999 -1.9992 -0.0040
 9710TIP3    H250622   1.369   0.469   6.526  1.5299  1.0953  0.2251
 9711TIP3   OH250623   2.202   6.640   0.405  0.4010 -0.0776  0.0721
 9711TIP3    H150624   2.264   6.679   0.344 -0.4062 -0.9782 -1.3793
 9711TIP3    H250625   2.179   6.556   0.366 -1.2291 -0.0486  0.8787
 9712TIP3   OH250626   5.587   1.734  15.634  0.0338  0.3887  0.5364
 9712TIP3    H150627   5.642   1.786  15.692  0.5703  0.1161  0.2835
 9712TIP3    H250628   5.545   1.670  15.691  1.2622 -0.4732  0.5171
 9713TIP3   OH250629   4.826   4.439  11.102 -0.4984 -0.1673  0.3642
 9713TIP3    H150630   4.896   4.411  11.162  0.4578  0.8974 -0.2042
 9713TIP3    H250631   4.781   4.358  11.078  0.0133 -0.7803  1.4000
 9714TIP3   OH250632   5.152   2.018  14.271 -0.5548  0.4172 -0.4600
 9714TIP3    H150633   5.079   1.978  14.318 -0.7274  0.3382 -0.7967
 9714TIP3    H250634   5.200   1.944  14.234 -1.1961  0.5352 -1.5626
 9715TIP3   OH250635   3.772   4.857  10.180  0.0340  0.6549  0.2559
 9715TIP3    H150636   3.679   4.879  10.190 -0.1427  0.8819 -1.5568
 9715TIP3    H250637   3.812   4.939  10.151  1.2278  1.1291  2.9488
 9716TIP3   OH250638   6.121   1.121   4.422 -0.1530  0.1533  0.1151
 9716TIP3    H150639   6.116   1.214   4.442  1.1317 -0.1845  2.3952
 9716TIP3    H250640   6.214   1.100   4.428 -0.2941 -1.1004 -1.3992
 9717TIP3   OH250641   4.098   6.430   1.157 -0.1219 -0.4604 -0.2544
 9717TIP3    H150642   4.124   6.407   1.068  1.6324 -1.9537  0.5829
 9717TIP3    H250643   4.166   6.490   1.187 -1.3456  1.0094 -0.2783
 9718TIP3   OH250644   3.632   5.208   3.632  0.3506  0.6154 -0.6678
 9718TIP3    H150645   3.616   5.166   3.547 -1.7190 -0.4795  0.1861
 9718TIP3    H250646   3.683   5.144   3.681 -0.5297  0.1979 -0.2785
 9719TIP3   OH250647   4.293   0.054  14.663 -0.1685 -0.1957  0.2280
 9719TIP3    H150648   4.203   0.030  14.642 -0.3447  2.2172 -2.2750
 9719TIP3    H250649   4.329  -0.023  14.708 -2.9753 -1.8106 -0.1053
 9720TIP3   OH250650   6.530   6.620  16.173  0.0834 -0.4708  0.1365
 9720TIP3    H150651   6.565   6.533  16.157  1.9293  0.5205 -1.6551
 9720TIP3    H250652   6.600   6.667  16.218  0.8014  1.2105 -2.5020
 9721TIP3   OH250653   1.682   5.910  16.671 -0.3692  0.1353 -0.2931
 9721TIP3    H150654   1.603   5.923  16.619  0.9152 -0.2653 -2.4725
 9721TIP3    H250655   1.659   5.944  16.757 -2.5489  1.0471 -1.1416
 9722TIP3   OH250656   6.150   1.982  16.268  1.0069 -0.2686  0.5088
 9722TIP3    H150657   6.157   2.040  16.192  2.7863 -0.3013  0.6140
 9722TIP3    H250658   6.239   1.977  16.303  0.5721 -1.7477  1.4864
 9723TIP3   OH250659   3.975   0.080  12.880  0.5178 -0.1918 -0.2075
 9723TIP3    H150660   4.046   0.054  12.939 -2.0615 -0.1705  3.2542
 9723TIP3    H250661   3.992   0.172  12.861  0.0450  0.6907  3.0168
 9724TIP3   OH250662   4.901   2.312  11.024  0.4862 -0.2584  0.6673
 9724TIP3    H150663   4.814   2.273  11.020  0.8714 -1.0921  0.1084
 9724TIP3    H250664   4.935   2.304  10.935  1.1547  0.0163  0.8907
 9725TIP3   OH250665   6.301   0.298   1.419  0.3555 -0.2919  0.3941
 9725TIP3    H150666   6.346   0.328   1.340 -0.1103  0.9766  0.5929
 9725TIP3    H250667   6.273   0.378   1.463 -0.6335 -1.0128  1.1211
 9726TIP3   OH250668   1.802   5.381   4.460 -0.2277 -0.0969  0.3932
 9726TIP3    H150669   1.764   5.441   4.524  2.5453  0.6318  1.4658
 9726TIP3    H250670   1.791   5.425   4.376  0.3526  1.1876  0.9743
 9727TIP3   OH250671   4.500   6.761   5.775 -0.8207 -0.2538  0.3729
 9727TIP3    H150672   4.447   6.773   5.696  0.9691  0.9710 -0.7110
 9727TIP3    H250673   4.529   6.849   5.798  1.7379 -0.9591  0.1602
 9728TIP3   OH250674   5.136   4.422  13.946  0.4526  0.0750  0.6599
 9728TIP3    H150675   5.141   4.355  13.877  1.1400 -0.1230  0.8957
 9728TIP3    H250676   5.199   4.394  14.011  1.0481  1.1701  0.5774
 9729TIP3   OH250677   5.887   4.896   5.569  0.4103 -0.2648 -0.0493
 9729TIP3    H150678   5.940   4.968   5.602  1.2768 -1.2491  0.7671
 9729TIP3    H250679   5.848   4.857   5.648 -1.5989  0.4619 -0.6280
 9730TIP3   OH250680   0.879   6.411  14.784  0.2243  0.3875 -0.2800
 9730TIP3    H150681   0.802   6.361  14.810  0.8373 -0.4779 -0.0728
 9730TIP3    H250682   0.844   6.490  14.743 -0.7946 -0.5132 -1.2315
 9731TIP3   OH250683   5.796   2.370  16.711  0.3182  0.2685  0.7836
 9731TIP3    H150684   5.837   2.378  16.624 -1.2616 -0.8538 -0.1124
 9731TIP3    H250685   5.869   2.381  16.772  1.7555 -0.3912 -0.7117
 9732TIP3   OH250686   4.938   0.239   3.226 -0.1067  0.3971  0.3176
 9732TIP3    H150687   5.031   0.248   3.204 -0.3338  0.0157 -0.8512
 9732TIP3    H250688   4.911   0.329   3.246  0.8417  0.3213  2.1674
 9733TIP3   OH250689   5.892   0.210   1.831 -0.0329  0.2668 -0.2915
 9733TIP3    H150690   5.960   0.269   1.797 -1.2311  1.8782  0.0383
 9733TIP3    H250691   5.879   0.146   1.760  2.7576 -0.9721  0.1625
 9734TIP3   OH250692   0.640   1.109   6.775 -0.3251 -0.5164  0.1890
 9734TIP3    H150693   0.606   1.036   6.826 -0.9491  0.5293  1.3129
 9734TIP3    H250694   0.587   1.109   6.695 -0.1827 -1.4020  0.0907
 9735TIP3   OH250695   5.796   3.639   3.102 -0.0743  0.2971  0.3165
 9735TIP3    H150696   5.879   3.607   3.139 -0.1073 -0.5091 -0.2682
 9735TIP3    H250697   5.822   3.696   3.030  0.0041  2.4401  1.9609
 9736TIP3   OH250698   0.203   4.486  16.981  0.4577 -0.0399  0.0693
 9736TIP3    H150699   0.159   4.406  16.950  1.2614 -0.4780  0.0279
 9736TIP3    H250700   0.231   4.465  17.070  1.3123 -0.0797 -0.1934
 9737TIP3   OH250701   1.849   6.671  12.590 -0.0032  0.2402 -0.3685
 9737TIP3    H150702   1.930   6.722  12.587  0.2768 -0.1906 -0.4135
 9737TIP3    H250703   1.858   6.617  12.669 -0.8650  1.1727  0.3788
 9738TIP3   OH250704   6.621   0.814   2.120  0.1129 -0.2391 -0.3020
 9738TIP3    H150705   6.621   0.855   2.206  1.7598 -0.4722 -0.1548
 9738TIP3    H250706   6.630   0.887   2.058 -0.5457 -0.1167 -0.2634
 9739TIP3   OH250707   4.402   1.474  11.833 -0.1299 -0.1017 -0.2577
 9739TIP3    H150708   4.487   1.502  11.798 -0.2922  1.8435  0.7332
 9739TIP3    H250709   4.390   1.528  11.912 -1.5082 -1.5785  0.6022
 9740TIP3   OH250710   3.154   5.633   1.951 -0.2727  0.2033 -0.0277
 9740TIP3    H150711   3.160   5.665   2.041  0.0306  0.8168 -0.2618
 9740TIP3    H250712   3.061   5.613   1.939 -0.4705  0.9891  0.1308
 9741TIP3   OH250713   2.094   5.470   4.713  0.1935  0.0529  0.2857
 9741TIP3    H150714   2.033   5.488   4.641 -0.1902 -3.0539 -0.3215
 9741TIP3    H250715   2.039   5.465   4.791 -0.4915 -2.8712 -0.2810
 9742TIP3   OH250716   1.902   6.290   2.055 -0.0926  0.4005 -0.4041
 9742TIP3    H150717   1.978   6.349   2.046  0.1547  0.5520  1.9667
 9742TIP3    H250718   1.859   6.319   2.135 -0.3401 -2.2228  0.5134
 9743TIP3   OH250719   5.707   1.432   4.811 -0.0902  0.3556 -0.2547
 9743TIP3    H150720   5.789   1.415   4.857  0.0819  0.9483 -0.3390
 9743TIP3    H250721   5.643   1.445   4.881  0.1470  1.1326 -0.1735
 9744TIP3   OH250722   1.666   2.608  12.608  0.2036 -0.0557  0.3122
 9744TIP3    H150723   1.579   2.635  12.577 -0.2208 -1.2044  0.4289
 9744TIP3    H250724   1.663   2.623  12.703 -1.6290 -4.2446  1.1676
 9745TIP3   OH250725   4.120   6.445   2.758 -0.4765 -0.3537  0.7307
 9745TIP3    H150726   4.091   6.533   2.783 -1.5504 -0.2488 -0.7323
 9745TIP3    H250727   4.216   6.450   2.757 -0.5134  0.5896  1.3816
 9746TIP3   OH250728   1.669   4.486   1.135 -0.6671  0.4106 -0.4968
 9746TIP3    H150729   1.583   4.468   1.173  0.3965 -1.7760  1.0833
 9746TIP3    H250730   1.729   4.483   1.209  1.0428 -0.2505 -1.8362
 9747TIP3   OH250731   3.191   1.742  12.685 -0.7628 -0.0535  0.2227
 9747TIP3    H150732   3.162   1.694  12.607  2.2803 -1.0328 -0.4374
 9747TIP3    H250733   3.117   1.798  12.708 -2.7498 -1.7032 -1.7539
 9748TIP3   OH250734   1.437   3.368  15.442  0.3844  0.3973  0.4895
 9748TIP3    H150735   1.520   3.393  15.482  0.6936  2.9911 -1.4913
 9748TIP3    H250736   1.373   3.428  15.480 -0.5227 -1.1971  1.5635
 9749TIP3   OH250737   0.370   1.669  14.773 -0.7906 -0.2563 -0.0463
 9749TIP3    H150738   0.335   1.724  14.703 -0.0079 -1.4802 -1.4555
 9749TIP3    H250739   0.309   1.596  14.780 -0.7231 -0.2750  0.3662
 9750TIP3   OH250740   1.302   0.488  11.902 -0.5979 -0.4775  0.4848
 9750TIP3    H150741   1.316   0.421  11.968  2.4911 -1.8991 -1.3680
 9750TIP3    H250742   1.379   0.545  11.909 -1.0972  0.3927 -0.6945
 9751TIP3   OH250743   1.209   5.000  15.662 -0.2882 -0.4322 -0.0317
 9751TIP3    H150744   1.160   4.989  15.581 -0.6042 -1.6208  0.2988
 9751TIP3    H250745   1.299   4.981  15.638 -0.5388 -1.9250  0.0996
 9752TIP3   OH250746   5.040   5.756  11.764  0.0106 -0.5976 -0.2715
 9752TIP3    H150747   5.099   5.792  11.698  1.6775 -1.8774  0.4529
 9752TIP3    H250748   5.026   5.665  11.737 -0.6157 -0.6719  0.2697
 9753TIP3   OH250749   3.138   5.897   0.000  0.5278 -0.0781  0.0563
 9753TIP3    H150750   3.170   5.817   0.041  1.3028  0.5442  0.7139
 9753TIP3    H250751   3.199   5.914  -0.071  1.9628  1.2841  1.5119
 9754TIP3   OH250752   2.516   5.228  14.674  0.1209 -0.1825  0.2735
 9754TIP3    H150753   2.510   5.317  14.638  0.3807 -0.0171  0.6390
 9754TIP3    H250754   2.532   5.173  14.597  1.6321  0.2764  0.2227
 9755TIP3   OH250755   3.803   6.748   5.983  0.4504  0.2439  0.1930
 9755TIP3    H150756   3.822   6.713   5.896  0.6920 -0.2939  0.4613
 9755TIP3    H250757   3.872   6.713   6.039 -0.8223 -1.0424  1.0078
 9756TIP3   OH250758   3.962   6.265  13.443  0.4109 -0.6862  0.5776
 9756TIP3    H150759   3.983   6.356  13.423 -2.6907 -0.0706 -0.4932
 9756TIP3    H250760   3.929   6.229  13.361 -0.2886 -2.1403  1.4474
 9757TIP3   OH250761   2.565   5.386  15.671  0.7282 -0.2283  1.2001
 9757TIP3    H150762   2.552   5.397  15.576  0.1269  1.1806  1.4149
 9757TIP3    H250763   2.660   5.377  15.681  0.6802 -2.4314  0.3148
 9758TIP3   OH250764   1.612   4.738  12.175 -0.4922  0.1170  0.0771
 9758TIP3    H150765   1.529   4.704  12.210 -0.9374  0.6849 -0.3922
 9758TIP3    H250766   1.608   4.832  12.193 -0.2523  0.2505 -0.5559
 9759TIP3   OH250767   3.590   5.839  15.377  0.4582 -0.5517 -0.7295
 9759TIP3    H150768   3.524   5.841  15.307 -1.5630  0.5605  1.0626
 9759TIP3    H250769   3.547   5.883  15.450  2.6441 -1.2702  1.0794
 9760TIP3   OH250770   5.655   3.136   1.600 -0.2712 -0.2636 -0.0188
 9760TIP3    H150771   5.632   3.228   1.605 -0.4658 -0.0896 -2.5482
 9760TIP3    H250772   5.721   3.123   1.668 -0.9346  1.4898  1.0095
 9761TIP3   OH250773   2.661   3.989  10.734 -0.3111  0.1084  0.1785
 9761TIP3    H150774   2.697   4.028  10.654 -0.3728  2.3620  1.1763
 9761TIP3    H250775   2.573   4.024  10.740 -1.0739 -1.7179  0.1811
 9762TIP3   OH250776   2.985   5.533  11.891 -0.0366 -0.4737  0.1815
 9762TIP3    H150777   2.913   5.471  11.901  1.3808 -2.6608 -1.9629
 9762TIP3    H250778   3.061   5.487  11.926  0.5141  1.4771  1.7024
 9763TIP3   OH250779   4.352   0.630   5.679  0.0662  0.0731 -0.1200
 9763TIP3    H150780   4.428   0.683   5.654  0.8158 -0.8861  0.0926
 9763TIP3    H250781   4.367   0.545   5.639 -1.0428 -0.0522 -0.3063
 9764TIP3   OH250782   4.360   2.235  16.326 -0.5111  0.3789  0.4105
 9764TIP3    H150783   4.358   2.223  16.231 -0.5996 -1.0179  0.5794
 9764TIP3    H250784   4.452   2.222  16.350 -0.6755 -0.3539  0.6497
 9765TIP3   OH250785   5.581   0.882   2.369 -0.0971  0.5061  0.0182
 9765TIP3    H150786   5.522   0.827   2.420 -0.5037  0.5076 -0.4390
 9765TIP3    H250787   5.576   0.848   2.280 -0.7553  1.5848 -0.3811
 9766TIP3   OH250788   5.568   0.556  15.877 -0.3998 -0.2165  0.5979
 9766TIP3    H150789   5.551   0.584  15.967 -0.6158 -0.7187  0.7097
 9766TIP3    H250790   5.483   0.560  15.833  0.0104  2.0073 -0.1460
 9767TIP3   OH250791   0.360   3.862  15.626 -0.2337 -0.3951  0.2575
 9767TIP3    H150792   0.389   3.786  15.676 -2.3191 -0.6951  1.1098
 9767TIP3    H250793   0.271   3.878  15.657 -0.3649  1.5023 -0.9702
 9768TIP3   OH250794   0.462   4.530   2.918 -0.2868  0.2470 -0.0605
 9768TIP3    H150795   0.474   4.450   2.971  2.4028 -1.0121 -2.3192
 9768TIP3    H250796   0.433   4.498   2.833  0.6683  1.6774 -0.9633
 9769TIP3   OH250797   1.591   6.606  14.977  0.2122 -0.0788  0.6639
 9769TIP3    H150798   1.544   6.658  14.912  1.1804 -2.2848 -2.0236
 9769TIP3    H250799   1.683   6.614  14.952  0.8890  0.7387  3.1890
 9770TIP3   OH250800   4.613   6.055   3.388 -0.2391  0.2530  0.3041
 9770TIP3    H150801   4.652   6.040   3.474  1.0456  1.6672  0.0065
 9770TIP3    H250802   4.577   6.143   3.392  0.9173  0.8281 -0.9519
 9771TIP3   OH250803   1.975   3.670   4.338  0.0286 -0.7368 -0.3325
 9771TIP3    H150804   2.058   3.704   4.370 -1.2181  1.6592  0.6509
 9771TIP3    H250805   1.933   3.632   4.416 -0.4842 -0.3619 -0.4149
 9772TIP3   OH250806   1.268   1.921  13.117 -0.0439 -0.1711 -0.0436
 9772TIP3    H150807   1.178   1.943  13.141  0.2160  0.9491 -0.0543
 9772TIP3    H250808   1.314   1.917  13.201  0.0773  0.0903 -0.0988
 9773TIP3   OH250809   4.554   1.207  12.746 -0.3889  0.4284 -0.2156
 9773TIP3    H150810   4.485   1.219  12.681  0.9848  2.8719 -1.3703
 9773TIP3    H250811   4.586   1.295  12.764  4.8933 -0.5904 -2.5532
 9774TIP3   OH250812   1.216   5.010   6.102  0.4820 -0.2661 -0.4354
 9774TIP3    H150813   1.277   5.068   6.146  1.1484 -0.1328 -1.4958
 9774TIP3    H250814   1.138   5.010   6.158  0.7670  1.0031  0.0021
 9775TIP3   OH250815   3.847   5.903  11.026  0.7420  0.1750  0.1590
 9775TIP3    H150816   3.842   5.843  10.951  0.8650  2.0475 -1.4569
 9775TIP3    H250817   3.756   5.929  11.042  0.6984 -0.3642  0.7812
 9776TIP3   OH250818   0.160   2.227   0.232 -0.4013 -0.0262  0.0323
 9776TIP3    H150819   0.066   2.237   0.247 -0.3988  0.7818 -0.3776
 9776TIP3    H250820   0.196   2.314   0.250 -0.0380  0.2649 -1.8401
 9777TIP3   OH250821   5.778   3.205  10.720  0.3517 -0.3321 -0.2248
 9777TIP3    H150822   5.747   3.262  10.790  0.7837 -2.1562  1.5571
 9777TIP3    H250823   5.854   3.250  10.684  1.0219  0.0258  1.5208
 9778TIP3   OH250824   5.481   5.211  11.605 -0.8377 -0.3489  0.0236
 9778TIP3    H150825   5.434   5.133  11.575 -1.0749 -0.4738  0.6971
 9778TIP3    H250826   5.432   5.284  11.568 -0.9042 -0.5075 -0.2047
 9779TIP3   OH250827   2.080   2.542  16.716  0.2631 -0.2844 -0.0343
 9779TIP3    H150828   2.092   2.609  16.648 -3.2921  0.2762 -0.3083
 9779TIP3    H250829   2.161   2.492  16.715  1.1284  0.9254 -3.3088
 9780TIP3   OH250830   3.577   3.124   1.591 -0.4799  0.5953 -0.2400
 9780TIP3    H150831   3.530   3.205   1.610 -1.8061 -0.1326 -0.2886
 9780TIP3    H250832   3.514   3.055   1.612  0.4036 -0.4002 -0.7992
 9781TIP3   OH250833   2.096   6.522  16.939  0.2445 -0.1802 -0.2349
 9781TIP3    H150834   2.029   6.488  16.999  0.1322  0.4484 -0.0035
 9781TIP3    H250835   2.159   6.566  16.996  1.4508 -1.6804 -0.3282
 9782TIP3   OH250836   1.913   1.186   4.967 -0.4528 -0.3648 -0.3257
 9782TIP3    H150837   1.994   1.135   4.971 -0.7760 -0.8037  0.7235
 9782TIP3    H250838   1.889   1.201   5.058 -0.1986  1.9444 -0.5595
 9783TIP3   OH250839   5.420   0.954  11.579 -0.0259  0.8687 -0.0996
 9783TIP3    H150840   5.491   0.984  11.636  0.4710 -0.4662  0.0015
 9783TIP3    H250841   5.454   0.875  11.537 -0.7342  1.2897 -1.5415
 9784TIP3   OH250842   4.422   2.723   4.223  0.0463 -0.3847  0.0387
 9784TIP3    H150843   4.474   2.658   4.270  0.2398 -0.4469 -0.2583
 9784TIP3    H250844   4.479   2.753   4.153  0.1352  0.4560  0.4588
 9785TIP3   OH250845   5.044   1.139   2.200 -0.7514  0.2980  0.5132
 9785TIP3    H150846   5.133   1.132   2.235  0.0603  1.6022 -1.1695
 9785TIP3    H250847   5.007   1.215   2.246 -0.5011  0.5836  0.2529
 9786TIP3   OH250848   1.875   5.805  17.005 -0.1229  0.0633 -0.3639
 9786TIP3    H150849   1.880   5.806  17.100  2.4524  0.1363 -0.4265
 9786TIP3    H250850   1.941   5.869  16.977  0.9909 -1.7523 -2.1844
 9787TIP3   OH250851   4.692   2.252  17.190  0.3911 -0.0729  0.3830
 9787TIP3    H150852   4.605   2.235  17.226  0.8250  0.0555  1.5676
 9787TIP3    H250853   4.705   2.346  17.204  0.7333 -0.0999  0.2506
 9788TIP3   OH250854   1.439   5.440   6.471 -0.1197 -0.7594 -0.1261
 9788TIP3    H150855   1.436   5.345   6.477 -0.5121 -0.7556 -0.2345
 9788TIP3    H250856   1.479   5.468   6.553 -1.7527 -0.9134  0.7641
 9789TIP3   OH250857   0.562   1.752   3.517 -0.4180 -0.4677 -0.2567
 9789TIP3    H150858   0.480   1.800   3.509 -0.0016  0.0805 -1.5694
 9789TIP3    H250859   0.602   1.785   3.597 -0.5290  0.7835 -0.6951
 9790TIP3   OH250860   1.193   4.000  11.084  0.4036  0.3022  0.5008
 9790TIP3    H150861   1.274   3.989  11.033  0.4930 -0.1394  0.7331
 9790TIP3    H250862   1.123   3.993  11.019  0.5711  1.7008  0.1308
 9791TIP3   OH250863   1.460   0.339   4.170 -0.4919  0.5712  0.0970
 9791TIP3    H150864   1.454   0.247   4.145  1.0093 -0.5269  3.2053
 9791TIP3    H250865   1.542   0.370   4.129 -0.7683  0.4169 -0.5831
 9792TIP3   OH250866   0.124   1.322  12.814  0.1817  0.1600  0.0424
 9792TIP3    H150867   0.095   1.313  12.723  2.4463  0.6460 -0.7972
 9792TIP3    H250868   0.176   1.402  12.814  0.5303 -0.0401  1.6966
 9793TIP3   OH250869   2.566   5.346  12.321  0.1108 -0.5469 -0.8412
 9793TIP3    H150870   2.591   5.266  12.274  0.3218 -0.0673 -1.5577
 9793TIP3    H250871   2.639   5.361  12.382 -0.1700 -1.1766 -0.3344
 9794TIP3   OH250872   4.604   5.677  14.796 -0.5995  0.3043 -0.3732
 9794TIP3    H150873   4.687   5.640  14.767  0.5921  2.8169 -0.4603
 9794TIP3    H250874   4.539   5.644  14.734  0.5182 -0.8664 -0.9438
 9795TIP3   OH250875   6.705   2.348  12.713 -0.7919  0.0998 -0.0669
 9795TIP3    H150876   6.705   2.438  12.679  0.2093  0.6892  1.3253
 9795TIP3    H250877   6.707   2.292  12.636  1.1161  1.3446 -1.0110
 9796TIP3   OH250878   1.926   1.390  12.473 -0.6395  0.0325  0.0952
 9796TIP3    H150879   1.987   1.451  12.430  0.8134 -2.2333 -1.3216
 9796TIP3    H250880   1.960   1.381  12.562  0.3037 -0.1307 -0.2631
 9797TIP3   OH250881   3.671   6.772   2.564 -0.2676  0.1386 -0.0026
 9797TIP3    H150882   3.742   6.725   2.520  0.7325  0.7477  0.9106
 9797TIP3    H250883   3.606   6.705   2.585 -0.3312 -0.3056 -1.5208
 9798TIP3   OH250884   5.784   4.195  17.019 -0.6477 -0.4739 -0.2187
 9798TIP3    H150885   5.762   4.130  17.086 -2.5470  0.7118  0.3927
 9798TIP3    H250886   5.818   4.269  17.069  2.6724 -1.3047 -0.9854
 9799TIP3   OH250887   5.877   2.752   4.225  0.3733  0.3305  0.7896
 9799TIP3    H150888   5.956   2.698   4.218  0.1963  0.0742  0.7685
 9799TIP3    H250889   5.820   2.704   4.285 -0.6039 -0.5091 -0.7605
 9800TIP3   OH250890   4.098   1.802  11.519  0.1079 -0.1152 -0.3146
 9800TIP3    H150891   4.041   1.850  11.580 -0.1479 -1.3102  0.4104
 9800TIP3    H250892   4.048   1.798  11.437 -0.8971 -1.1723  0.3165
 9801TIP3   OH250893   1.390   0.919  12.550 -0.1357  0.8427  0.3799
 9801TIP3    H150894   1.469   0.951  12.594  0.4493 -0.1206  0.0564
 9801TIP3    H250895   1.330   0.994  12.551  0.6901  1.5152  0.8344
 9802TIP3   OH250896   0.695   4.313  11.594  0.2243  0.0597  0.1004
 9802TIP3    H150897   0.625   4.372  11.621 -0.6708 -0.3173 -1.2844
 9802TIP3    H250898   0.651   4.241  11.549  1.5408  0.4509 -1.9683
 9803TIP3   OH250899   6.260   3.232   0.058  0.4350 -0.2399  0.0786
 9803TIP3    H150900   6.197   3.240   0.130  0.4440 -0.7361  0.1471
 9803TIP3    H250901   6.317   3.159   0.085  0.3351 -0.5344 -0.5019
 9804TIP3   OH250902   4.791   2.056  12.357 -0.0394 -0.4122  0.6403
 9804TIP3    H150903   4.714   2.034  12.304 -0.2460 -0.3862  0.9304
 9804TIP3    H250904   4.771   2.024  12.444  0.0656  0.0396  0.8362
 9805TIP3   OH250905   1.371   3.591  14.870  0.4936  0.1660 -0.1447
 9805TIP3    H150906   1.383   3.611  14.778 -1.0866  0.1592 -0.3725
 9805TIP3    H250907   1.409   3.666  14.916  0.9918  0.3195 -0.7941
 9806TIP3   OH250908   6.059   0.771  14.575  0.7924  0.1497 -0.1053
 9806TIP3    H150909   6.129   0.732  14.522  0.1534 -1.9078  0.4651
 9806TIP3    H250910   5.996   0.700  14.587 -1.2050  1.8220 -0.2384
 9807TIP3   OH250911   6.664   3.084   5.018  0.2597  0.1390 -0.5918
 9807TIP3    H150912   6.629   3.038   4.942  1.7106  2.5348 -2.8915
 9807TIP3    H250913   6.596   3.147   5.042 -0.6690 -1.3557  0.9320
 9808TIP3   OH250914   4.787   3.801   3.667 -0.0058  0.5754 -0.2174
 9808TIP3    H150915   4.858   3.741   3.643  1.4857  1.6447  1.2469
 9808TIP3    H250916   4.762   3.842   3.584 -0.9360 -1.8305 -1.2261
 9809TIP3   OH250917   5.260   5.312   2.949 -0.2857 -0.3377 -0.6502
 9809TIP3    H150918   5.308   5.237   2.913  1.8521  0.7280 -0.2209
 9809TIP3    H250919   5.223   5.356   2.873  1.5894  0.1970 -1.3061
 9810TIP3   OH250920   6.075   1.878  13.266 -0.1257  0.2336  0.0234
 9810TIP3    H150921   6.130   1.940  13.218 -3.1788  4.0827  0.9621
 9810TIP3    H250922   6.112   1.878  13.355  0.7131 -0.4575 -0.3132
 9811TIP3   OH250923   4.602   0.062  13.276 -0.0832 -0.0188  0.3164
 9811TIP3    H150924   4.580   0.024  13.360  0.8472  0.4526  0.7911
 9811TIP3    H250925   4.676   0.010  13.245 -1.0114 -0.7987 -0.6710
 9812TIP3   OH250926   6.638   4.250   1.740  0.4126  0.5019 -0.6618
 9812TIP3    H150927   6.667   4.163   1.710 -0.5049 -0.2654  0.5868
 9812TIP3    H250928   6.634   4.242   1.835  1.4432  2.3016 -0.4192
 9813TIP3   OH250929   0.368   1.128   1.712  0.1491  0.2889 -0.0603
 9813TIP3    H150930   0.356   1.219   1.685  0.9897  0.4027 -0.0629
 9813TIP3    H250931   0.313   1.119   1.790  0.6534  1.0164  0.3919
 9814TIP3   OH250932   6.753   2.022   2.582  0.0238 -0.3328  0.1211
 9814TIP3    H150933   6.664   2.016   2.617  0.0135  0.1073  0.1774
 9814TIP3    H250934   6.753   1.963   2.507 -0.3758 -0.1916  0.0035
 9815TIP3   OH250935   3.467   3.781   2.872 -0.0843 -0.1451  0.0573
 9815TIP3    H150936   3.392   3.818   2.825 -0.2147  1.1664  1.2244
 9815TIP3    H250937   3.516   3.733   2.806 -1.5269 -0.3601 -0.9004
 9816TIP3   OH250938   1.750   1.207  13.003 -0.5359 -0.1541  0.0466
 9816TIP3    H150939   1.789   1.165  12.926  0.1388  0.2601  0.1552
 9816TIP3    H250940   1.724   1.134  13.060  0.0619 -0.4392 -0.0378
 9817TIP3   OH250941   1.517   1.726   5.238  0.5159 -0.5217  0.2053
 9817TIP3    H150942   1.454   1.739   5.310  1.5151  1.3698  0.8168
 9817TIP3    H250943   1.590   1.679   5.279  0.7003 -0.2395  0.1987
 9818TIP3   OH250944   1.534   6.510   5.201 -0.1479  0.1942  0.3213
 9818TIP3    H150945   1.569   6.594   5.230 -0.0982 -0.1349  1.2521
 9818TIP3    H250946   1.497   6.471   5.280 -1.2088 -0.1596 -0.3314
 9819TIP3   OH250947   5.605   1.833  13.839 -0.3269  0.1189  0.9303
 9819TIP3    H150948   5.563   1.801  13.759 -0.6979  0.7467  0.8580
 9819TIP3    H250949   5.683   1.879  13.808  0.0459 -0.4499  1.0102
 9820TIP3   OH250950   1.901   3.539   3.678 -0.5860  0.2443 -0.3238
 9820TIP3    H150951   1.926   3.537   3.585 -0.3134  0.5618 -0.2579
 9820TIP3    H250952   1.883   3.447   3.699  0.9650 -0.0883 -0.2651
 9821TIP3   OH250953   0.202   5.597   5.126  0.2496 -0.0828 -0.2315
 9821TIP3    H150954   0.161   5.672   5.169 -1.1401 -0.7333 -0.3727
 9821TIP3    H250955   0.143   5.524   5.143  1.8075 -1.2789  0.3011
 9822TIP3   OH250956   3.678   3.557  14.435  0.1975 -0.5854 -0.1254
 9822TIP3    H150957   3.722   3.497  14.495 -1.1347 -0.9183  0.5680
 9822TIP3    H250958   3.681   3.642  14.480  2.1729 -0.0595 -1.1521
 9823TIP3   OH250959   0.228   5.420   3.589  0.2737 -0.0326 -0.3218
 9823TIP3    H150960   0.159   5.458   3.536 -0.7200 -0.4296  0.6311
 9823TIP3    H250961   0.307   5.428   3.536 -0.4186  0.8242 -1.2598
 9824TIP3   OH250962   4.067   4.483   1.041  0.1748 -0.4516  0.4057
 9824TIP3    H150963   4.016   4.503   1.119  0.8630  1.0810  0.5156
 9824TIP3    H250964   4.135   4.423   1.071 -0.6769 -1.3596  0.5610
 9825TIP3   OH250965   2.864   3.658   3.960  0.6476  0.5781  0.5728
 9825TIP3    H150966   2.859   3.671   4.055 -0.0135 -1.0753  0.7909
 9825TIP3    H250967   2.780   3.692   3.927  0.7803  0.9348  0.5925
 9826TIP3   OH250968   1.528   1.796   2.551 -0.0825 -0.1086  0.1217
 9826TIP3    H150969   1.582   1.762   2.479 -1.3112 -2.3673  0.1343
 9826TIP3    H250970   1.446   1.822   2.508  1.2845  4.6766 -0.1301
 9827TIP3   OH250971   1.089   1.687  11.409 -0.4056  0.1736 -0.1093
 9827TIP3    H150972   1.081   1.747  11.484  0.0868 -1.9653  1.7790
 9827TIP3    H250973   1.161   1.722  11.358 -0.5101  1.5108  0.6201
 9828TIP3   OH250974   1.986   2.192   1.024 -0.0881  0.3885  0.7732
 9828TIP3    H150975   1.989   2.281   1.059 -0.1530  0.8234 -0.2835
 9828TIP3    H250976   2.073   2.156   1.044  1.5685  2.1672 -2.4293
 9829TIP3   OH250977   3.398   4.637   3.300 -0.1514 -0.0723 -0.3235
 9829TIP3    H150978   3.435   4.565   3.350  1.5462  0.0871 -1.2877
 9829TIP3    H250979   3.344   4.685   3.363  0.6226 -0.7972  0.9260
 9830TIP3   OH250980   4.030   0.041   6.653  0.1676  0.0562  0.2229
 9830TIP3    H150981   3.995  -0.016   6.585  0.5360  0.4142 -0.2670
 9830TIP3    H250982   4.112   0.000   6.679  0.8464  0.7871 -0.7098
 9831TIP3   OH250983   2.120   5.572  14.011  0.1940  0.0572 -0.3947
 9831TIP3    H150984   2.069   5.503  13.968 -0.2794 -0.1403  0.4480
 9831TIP3    H250985   2.187   5.596  13.947 -1.3175  0.7577 -1.8093
 9832TIP3   OH250986   2.534   1.557  13.124  0.2115 -0.5508  0.1871
 9832TIP3    H150987   2.628   1.558  13.107  0.1980 -0.5334  0.1130
 9832TIP3    H250988   2.525   1.516  13.210  0.1614 -2.1973 -0.5667
 9833TIP3   OH250989   2.540   3.435   4.685 -0.1741  0.0103  0.6496
 9833TIP3    H150990   2.575   3.513   4.728  0.8503 -0.6188  1.0146
 9833TIP3    H250991   2.561   3.447   4.592 -2.4379  1.3964  0.2355
 9834TIP3   OH250992   3.034   0.780  16.319  0.1477  0.1624 -0.1275
 9834TIP3    H150993   2.975   0.732  16.261  0.7429  1.7883 -2.2148
 9834TIP3    H250994   2.980   0.804  16.394 -1.7672  1.1682 -1.7318
 9835TIP3   OH250995   5.051   5.050  15.775  0.6286  0.3551 -0.2125
 9835TIP3    H150996   5.131   5.101  15.780  0.9339  0.2475 -2.7709
 9835TIP3    H250997   5.081   4.959  15.774  0.4338  0.2963 -0.6801
 9836TIP3   OH250998   4.620   2.411  15.347  0.2537 -0.2528 -0.3013
 9836TIP3    H150999   4.551   2.442  15.405  1.7911  0.7366  1.1157
 9836TIP3    H251000   4.625   2.317  15.362 -1.2414 -0.4608 -0.9778
 9837TIP3   OH251001   2.622   5.922   5.188 -0.2108 -0.0540 -0.2271
 9837TIP3    H151002   2.641   5.917   5.095  1.1531  1.3391 -0.0628
 9837TIP3    H251003   2.706   5.904   5.231  0.4018  3.9110  0.5835
 9838TIP3   OH251004   2.951   4.476  11.259  0.1480  0.0107 -0.0676
 9838TIP3    H151005   2.984   4.566  11.261  0.5929 -0.0465 -2.0277
 9838TIP3    H251006   2.860   4.484  11.232 -0.0981 -0.0866  0.7187
 9839TIP3   OH251007   6.646   4.648   2.749 -0.1393 -0.2779 -0.4322
 9839TIP3    H151008   6.601   4.564   2.752  1.9275 -1.4543  1.8793
 9839TIP3    H251009   6.606   4.699   2.819  1.0230 -0.7798  0.6399
 9840TIP3   OH251010   2.885   6.340   2.593  0.6015 -0.5862 -0.1248
 9840TIP3    H151011   2.870   6.319   2.685 -1.4012 -0.8170 -0.4660
 9840TIP3    H251012   2.972   6.379   2.592  1.2917 -1.9140  1.6429
 9841TIP3   OH251013   5.131   6.302  15.598 -0.1452  0.5644 -0.0108
 9841TIP3    H151014   5.125   6.224  15.653  0.4821 -0.7918 -1.7778
 9841TIP3    H251015   5.040   6.325  15.579 -0.3259 -0.2693 -0.1754
 9842TIP3   OH251016   4.949   3.686   0.681  0.2170  0.0720  0.5408
 9842TIP3    H151017   4.898   3.766   0.673 -1.1156 -0.6073  1.8877
 9842TIP3    H251018   5.005   3.700   0.757  2.4153  0.9529 -1.1256
 9843TIP3   OH251019   5.287   6.701   0.913 -0.5360 -0.1868 -0.0825
 9843TIP3    H151020   5.304   6.652   0.993 -1.6687 -0.6249 -0.0916
 9843TIP3    H251021   5.262   6.789   0.942  1.4405  0.4139 -0.0640
 9844TIP3   OH251022   3.349   3.127   1.856  0.2520  0.3687 -0.3018
 9844TIP3    H151023   3.319   3.218   1.863  2.1015  0.9087  1.7496
 9844TIP3    H251024   3.317   3.085   1.936  2.1308  0.1398  0.3844
 9845TIP3   OH251025   0.256   2.021   1.306  0.1754  0.0613  0.0513
 9845TIP3    H151026   0.217   2.096   1.262 -2.0646 -0.6783  0.6217
 9845TIP3    H251027   0.256   2.045   1.399  0.1330 -0.3540  0.1601
 9846TIP3   OH251028   0.143   4.371  14.623  0.0883 -0.1316 -0.3014
 9846TIP3    H151029   0.066   4.314  14.616 -0.6950  0.8693 -0.0502
 9846TIP3    H251030   0.129   4.438  14.557  0.2513  0.6071  0.4014
 9847TIP3   OH251031   6.126   1.814  13.533 -0.0666  0.3353 -0.0933
 9847TIP3    H151032   6.161   1.881  13.592 -0.4900 -0.6118  1.2805
 9847TIP3    H251033   6.092   1.747  13.591 -0.2574 -0.7726 -1.4407
 9848TIP3   OH251034   3.005   4.162   1.055  0.0290  0.3250 -0.2598
 9848TIP3    H151035   3.038   4.127   1.138 -0.7920  3.5753  1.6233
 9848TIP3    H251036   3.032   4.254   1.056 -3.1592  1.4043 -1.8440
 9849TIP3   OH251037   2.550   1.803   4.476  0.1765 -0.1336  0.1575
 9849TIP3    H151038   2.558   1.727   4.535  0.5618 -0.2324 -0.0210
 9849TIP3    H251039   2.637   1.842   4.475 -0.2882  1.0086  1.1749
 9850TIP3   OH251040   2.226   5.407   6.794 -0.2946  0.2363 -0.1832
 9850TIP3    H151041   2.317   5.380   6.798 -0.4328 -0.2117  0.0491
 9850TIP3    H251042   2.215   5.442   6.706 -0.0214 -0.1604 -0.3807
 9851TIP3   OH251043   4.412   5.517  14.312  0.0393  0.3602  0.2992
 9851TIP3    H151044   4.352   5.532  14.240 -0.0248 -2.8147 -0.4589
 9851TIP3    H251045   4.362   5.465  14.375  0.7921  1.1338  1.5862
 9852TIP3   OH251046   2.251   1.333  14.202  0.3692 -0.3133 -0.6494
 9852TIP3    H151047   2.293   1.334  14.287 -1.9090 -1.1536  0.5693
 9852TIP3    H251048   2.298   1.266  14.152  1.4410 -0.1283  0.0933
 9853TIP3   OH251049   0.522   1.656   1.876  0.3852 -0.8058 -0.0008
 9853TIP3    H151050   0.490   1.747   1.870 -0.5739 -1.1203  0.1640
 9853TIP3    H251051   0.582   1.657   1.950 -0.5395 -0.5572  0.7572
 9854TIP3   OH251052   3.917   1.643  14.930 -0.1703  0.6952 -0.3553
 9854TIP3    H151053   3.914   1.707  15.002 -1.7051  0.8570 -0.5101
 9854TIP3    H251054   3.856   1.678  14.865 -0.8539 -0.7820 -0.5567
 9855TIP3   OH251055   2.557   1.419  13.353  0.5422  0.7627  0.0772
 9855TIP3    H151056   2.603   1.461  13.426 -0.9917  1.4139  0.7355
 9855TIP3    H251057   2.470   1.401  13.389 -0.0790  0.6295 -1.4470
 9856TIP3   OH251058   4.248   1.912  15.357  0.1033 -0.2172  0.4206
 9856TIP3    H151059   4.253   1.886  15.264 -1.0067 -1.5991  0.7094
 9856TIP3    H251060   4.229   1.830  15.403 -1.3810  0.7709  1.6605
 9857TIP3   OH251061   1.951   6.335   1.483 -0.3196  0.4917 -0.1721
 9857TIP3    H151062   1.899   6.358   1.560  0.9709 -1.0475  1.2239
 9857TIP3    H251063   1.922   6.246   1.461  1.9484 -0.5853  0.9177
 9858TIP3   OH251064   1.425   0.132  15.903  0.1009 -0.8810 -0.4196
 9858TIP3    H151065   1.443   0.223  15.879  0.5574 -1.2516 -1.5302
 9858TIP3    H251066   1.462   0.123  15.991 -0.5966  0.1931  0.0215
 9859TIP3   OH251067   1.008   0.778   3.483  0.8593  0.4249  0.0311
 9859TIP3    H151068   1.097   0.810   3.468  1.4684 -1.4062 -0.6107
 9859TIP3    H251069   0.969   0.774   3.396  0.0359  1.4648  0.3382
 9860TIP3   OH251070   2.914   1.789  11.354  0.0569  0.2612 -0.4080
 9860TIP3    H151071   2.933   1.883  11.349  1.5649  0.0139  0.1467
 9860TIP3    H251072   2.969   1.750  11.286  1.0071 -0.4077  0.6988
 9861TIP3   OH251073   0.021   2.437   5.038  0.2077  0.7578  0.6097
 9861TIP3    H151074  -0.023   2.355   5.017 -0.7773  1.5126 -0.4314
 9861TIP3    H251075  -0.049   2.496   5.066  0.5433  1.9039 -0.8133
 9862TIP3   OH251076   5.325   1.733  12.639 -0.4418 -0.5397  0.4101
 9862TIP3    H151077   5.300   1.824  12.658  0.1677 -0.3528  0.3533
 9862TIP3    H251078   5.257   1.701  12.580 -0.9289 -0.2805  0.8195
 9863TIP3   OH251079   5.707   1.233   5.340 -0.3162  0.8792  0.6662
 9863TIP3    H151080   5.706   1.151   5.389  0.9893  0.9196  0.8184
 9863TIP3    H251081   5.765   1.290   5.391 -0.7483  1.6975  0.2587
 9864TIP3   OH251082   2.728   4.050  11.797  0.5627  0.1846 -0.3693
 9864TIP3    H151083   2.733   4.078  11.706  1.5952  0.2634 -0.2954
 9864TIP3    H251084   2.777   3.968  11.800 -1.5839 -1.1919 -0.3805
 9865TIP3   OH251085   3.186   2.848  12.180 -0.0307  0.3476 -0.4488
 9865TIP3    H151086   3.241   2.776  12.147  1.7744  0.5584  1.8765
 9865TIP3    H251087   3.247   2.907  12.223 -2.0766  0.4790  2.5247
 9866TIP3   OH251088   6.421   1.034  15.857 -0.7621 -0.2069  0.2707
 9866TIP3    H151089   6.330   1.003  15.853  0.3560 -3.9328 -0.8739
 9866TIP3    H251090   6.471   0.955  15.878  2.2827  1.5642  0.1157
 9867TIP3   OH251091   2.984   6.687  14.229  0.2228  0.5350  0.2695
 9867TIP3    H151092   2.942   6.745  14.166 -3.2543 -0.2397  1.6224
 9867TIP3    H251093   3.006   6.609  14.179 -1.0540  0.5329 -0.3293
 9868TIP3   OH251094   6.653   0.110   2.912  0.3000 -0.0184  1.1558
 9868TIP3    H151095   6.654   0.107   2.817 -1.1276 -0.5114  1.1404
 9868TIP3    H251096   6.689   0.196   2.934  0.6196  0.1067  0.1891
 9869TIP3   OH251097   3.468   6.762  14.268 -0.2816  0.0070 -0.2487
 9869TIP3    H151098   3.380   6.795  14.287 -0.5954 -1.5912  1.3677
 9869TIP3    H251099   3.463   6.668  14.287  2.1272  0.1022  1.3326
 9870TIP3   OH251100   1.032   0.264  12.926 -0.5081 -0.1836  0.4217
 9870TIP3    H151101   1.123   0.288  12.909 -0.1063 -0.5229  1.9045
 9870TIP3    H251102   0.993   0.344  12.963 -0.0715 -0.7812  2.2509
 9871TIP3   OH251103   3.892   1.256   3.525 -0.0747  0.3728 -0.7066
 9871TIP3    H151104   3.814   1.303   3.497  0.5461  2.0092  0.1529
 9871TIP3    H251105   3.861   1.196   3.593 -0.6882  0.5124 -0.8585
 9872TIP3   OH251106   3.280   2.243  16.074 -0.0124 -0.3763  0.1003
 9872TIP3    H151107   3.356   2.186  16.085  1.1396  0.9050 -0.7929
 9872TIP3    H251108   3.313   2.331  16.094 -0.7786  0.4457 -1.9605
 9873TIP3   OH251109   4.155   4.097   3.943 -0.2503 -0.7345  0.0269
 9873TIP3    H151110   4.095   4.125   4.012  0.7590  1.6766  0.0375
 9873TIP3    H251111   4.105   4.034   3.890 -1.8003 -0.8863  1.6035
 9874TIP3   OH251112   3.272   3.315  13.562 -0.4128 -0.3810 -0.1022
 9874TIP3    H151113   3.223   3.260  13.501  2.2073 -0.4979 -2.3077
 9874TIP3    H251114   3.306   3.255  13.628 -0.6285 -0.7945 -0.3667
 9875TIP3   OH251115   1.055   1.243  16.345  0.3624 -0.2342 -0.2973
 9875TIP3    H151116   1.106   1.313  16.305  0.5299 -0.3703 -0.3227
 9875TIP3    H251117   0.975   1.286  16.374  0.3521 -0.0835 -0.5435
 9876TIP3   OH251118   1.851   3.523  15.814  0.5951 -0.1266  0.0773
 9876TIP3    H151119   1.861   3.618  15.806 -0.8743 -0.0320 -1.0015
 9876TIP3    H251120   1.885   3.487  15.733  0.0539 -0.4218 -0.0282
 9877TIP3   OH251121   2.541   4.988  12.691 -0.3948 -0.2787  0.1402
 9877TIP3    H151122   2.624   4.946  12.713 -1.4287 -2.2821  0.5273
 9877TIP3    H251123   2.522   4.958  12.602 -0.8374 -0.1102  0.1738
 9878TIP3   OH251124   4.827   0.231  12.862 -0.1369  0.0962  0.1304
 9878TIP3    H151125   4.877   0.230  12.780  0.7425 -0.7464  0.6520
 9878TIP3    H251126   4.741   0.262  12.837  0.3287  0.5373 -0.9965
 9879TIP3   OH251127   0.264   0.886   0.722  0.1320  0.0924 -0.1963
 9879TIP3    H151128   0.277   0.909   0.630  0.0523  2.1792  0.2561
 9879TIP3    H251129   0.237   0.794   0.721  0.2438  0.0466 -2.2365
 9880TIP3   OH251130   5.932   5.872  12.449 -0.2843 -0.1329  0.3570
 9880TIP3    H151131   5.893   5.941  12.395 -0.8286 -1.0956 -0.5140
 9880TIP3    H251132   5.979   5.920  12.518 -1.9014  1.1059  0.6847
 9881TIP3   OH251133   6.091   2.666   0.535 -0.2507 -0.2896  0.4821
 9881TIP3    H151134   6.084   2.706   0.622  0.8690  0.3757  0.2972
 9881TIP3    H251135   6.186   2.657   0.521 -0.4288 -0.6790 -0.5392
 9882TIP3   OH251136   2.197   1.346   3.300 -0.5435 -0.5307  0.5704
 9882TIP3    H151137   2.182   1.358   3.206  1.7525  0.8445  0.3050
 9882TIP3    H251138   2.251   1.267   3.306 -1.2633 -1.0199  0.8353
 9883TIP3   OH251139   4.248   0.383   5.557  0.2461 -0.1213  0.1225
 9883TIP3    H151140   4.217   0.358   5.471 -0.1583 -0.5259  0.3807
 9883TIP3    H251141   4.177   0.357   5.617 -0.8805  2.9063  0.2778
 9884TIP3   OH251142   0.431   0.339   2.347  0.2971 -0.2700 -0.1077
 9884TIP3    H151143   0.379   0.298   2.278  0.4765  0.8459 -0.9254
 9884TIP3    H251144   0.371   0.400   2.390  0.9632  1.2912 -1.2912
 9885TIP3   OH251145   4.820   6.708   0.959 -0.7252 -0.1130 -0.0125
 9885TIP3    H151146   4.739   6.716   0.909 -0.9546  1.1556  0.5324
 9885TIP3    H251147   4.889   6.724   0.894 -0.9180 -0.5707 -0.3441
 9886TIP3   OH251148   3.323   1.877  14.560  0.5339 -0.2702  0.9726
 9886TIP3    H151149   3.267   1.868  14.637 -2.1059  1.7919 -0.5184
 9886TIP3    H251150   3.277   1.830  14.490  1.0821  0.7519 -0.1237
 9887TIP3   OH251151   2.753   2.780   3.801  0.3785  0.4406  0.5450
 9887TIP3    H151152   2.846   2.796   3.783  0.6560 -0.8363  0.7047
 9887TIP3    H251153   2.716   2.867   3.815  1.2426  1.0791 -0.8996
 9888TIP3   OH251154   5.508   0.756   2.807 -0.2483  0.4652  0.4583
 9888TIP3    H151155   5.424   0.745   2.761 -0.7939  1.3715  1.2082
 9888TIP3    H251156   5.561   0.808   2.746 -0.2772 -0.0033  0.0309
 9889TIP3   OH251157   1.030   3.445  11.718 -0.6546  0.4760 -0.5960
 9889TIP3    H151158   0.936   3.457  11.729 -0.6784  0.0203 -0.2671
 9889TIP3    H251159   1.038   3.357  11.681 -0.3383  0.3734 -0.2873
 9890TIP3   OH251160   2.625   3.911   1.638  0.1190  0.2203 -0.2995
 9890TIP3    H151161   2.639   3.886   1.547  3.2089 -0.5352  0.2637
 9890TIP3    H251162   2.569   3.843   1.674  0.4530 -0.5482 -1.1994
 9891TIP3   OH251163   0.680   6.507   0.168 -0.2351  0.2557  0.4928
 9891TIP3    H151164   0.589   6.534   0.153 -0.7961 -3.0049 -3.8264
 9891TIP3    H251165   0.732   6.567   0.114 -0.1526  0.3376  0.6640
 9892TIP3   OH251166   1.364   1.150   1.377 -0.1183 -0.2753 -0.5725
 9892TIP3    H151167   1.388   1.155   1.469 -0.8208  0.3943 -0.4176
 9892TIP3    H251168   1.301   1.221   1.364 -0.0094 -0.3393 -1.5738
 9893TIP3   OH251169   3.940   1.567  11.225 -0.6189  0.6640 -0.1190
 9893TIP3    H151170   3.942   1.659  11.250 -1.9587  0.4290  0.9813
 9893TIP3    H251171   3.866   1.561  11.164 -0.2958  0.3880 -0.4839
 9894TIP3   OH251172   0.396   3.918  16.113  0.0481  0.3758  0.1177
 9894TIP3    H151173   0.381   3.824  16.119  0.4685  0.2639 -0.5127
 9894TIP3    H251174   0.434   3.942  16.197 -0.6722  0.1044  0.5270
 9895TIP3   OH251175   3.209   2.157   0.890  0.1602 -0.4644 -0.5851
 9895TIP3    H151176   3.209   2.127   0.981 -1.7690 -0.1179 -0.4177
 9895TIP3    H251177   3.118   2.179   0.872  0.7119  0.7585 -2.1910
 9896TIP3   OH251178   3.872   5.964   3.338 -0.1299 -0.4996  0.0115
 9896TIP3    H151179   3.788   6.009   3.347  0.3392  0.3570  0.2266
 9896TIP3    H251180   3.875   5.904   3.412 -1.0222 -1.3491 -0.6100
 9897TIP3   OH251181   2.782   4.918  12.703 -0.0868  0.6150 -0.1000
 9897TIP3    H151182   2.809   4.842  12.652  0.5809 -0.6200  1.9987
 9897TIP3    H251183   2.839   4.989  12.673  0.4570 -0.1306 -0.8609
 9898TIP3   OH251184   0.425   1.946   4.801  1.0329  0.7216 -0.5617
 9898TIP3    H151185   0.334   1.975   4.807  0.4871 -0.9586 -0.3118
 9898TIP3    H251186   0.454   1.975   4.714  0.1639  0.9935 -0.7693
 9899TIP3   OH251187   4.465   6.746   4.343 -0.4984  0.5134 -0.0734
 9899TIP3    H151188   4.535   6.701   4.390 -1.8564 -0.4412  1.1659
 9899TIP3    H251189   4.412   6.786   4.413 -0.7267  1.9366 -1.0249
 9900TIP3   OH251190   2.065   5.702   5.499  0.0300  0.5262  0.6890
 9900TIP3    H151191   2.045   5.682   5.407  0.4202  0.1772  0.6732
 9900TIP3    H251192   2.082   5.796   5.499 -0.8406  0.6839  0.5695
 9901TIP3   OH251193   2.255   2.707   0.960 -0.1823  0.1557 -0.1499
 9901TIP3    H151194   2.346   2.679   0.950 -0.2104 -0.1997  0.5089
 9901TIP3    H251195   2.245   2.724   1.054 -0.5358  1.1192 -0.3519
 9902TIP3   OH251196   6.753   4.843  14.107  0.7814 -0.2615 -0.1768
 9902TIP3    H151197   6.707   4.832  14.023  0.6998 -0.6223 -0.0853
 9902TIP3    H251198   6.845   4.847  14.083  0.6479  2.6428 -0.6056
 9903TIP3   OH251199   3.910   0.123  14.364 -0.2860  0.1169  0.0164
 9903TIP3    H151200   3.968   0.198  14.377  1.2930 -0.6128 -2.3000
 9903TIP3    H251201   3.845   0.154  14.301  1.4952 -0.9114 -2.4584
 9904TIP3   OH251202   5.377   3.130   4.600 -0.2889 -0.4127 -0.7865
 9904TIP3    H151203   5.356   3.050   4.551  0.7235 -0.4330 -1.2138
 9904TIP3    H251204   5.304   3.189   4.581 -0.7728 -1.0393 -0.9196
 9905TIP3   OH251205   6.778   4.765  11.920  0.3898  0.1365  0.1804
 9905TIP3    H151206   6.785   4.858  11.902 -0.3235  0.6112  2.1105
 9905TIP3    H251207   6.862   4.741  11.958 -0.3565  0.7263  2.4027
 9906TIP3   OH251208   3.376   3.985  16.989  0.7967  0.1192  0.1163
 9906TIP3    H151209   3.411   4.037  17.062 -1.2675  0.7834  0.7280
 9906TIP3    H251210   3.421   4.018  16.912  0.8722  1.5544  0.7388
 9907TIP3   OH251211   6.825   2.084  13.996 -0.1724  0.0942 -0.7396
 9907TIP3    H151212   6.852   2.069  13.905  0.8196  2.7436 -0.9835
 9907TIP3    H251213   6.892   2.040  14.048 -0.5912 -1.2024 -1.2592
 9908TIP3   OH251214   2.831   0.364   3.997 -0.4261  0.8285  0.2777
 9908TIP3    H151215   2.894   0.324   3.937  0.7783  1.5581  1.0020
 9908TIP3    H251216   2.811   0.449   3.957 -0.8419  0.6559  0.1191
 9909TIP3   OH251217   3.587   1.792   3.477 -0.1378  0.2367  0.4189
 9909TIP3    H151218   3.658   1.729   3.488  0.6702  1.0099 -0.1538
 9909TIP3    H251219   3.631   1.872   3.447 -1.4695  0.0136 -2.4742
 9910TIP3   OH251220   2.135   4.657   3.935 -0.0291  0.0405 -0.3785
 9910TIP3    H151221   2.120   4.605   3.856 -0.0399  0.7564 -0.8568
 9910TIP3    H251222   2.123   4.595   4.007 -0.0968 -0.6045 -0.9316
 9911TIP3   OH251223   4.909   5.422   4.346 -0.4051  0.3062  0.3673
 9911TIP3    H151224   4.982   5.481   4.366 -1.0992  0.8685  1.3342
 9911TIP3    H251225   4.912   5.356   4.415  0.0217 -0.4926 -0.3883
 9912TIP3   OH251226   3.543   2.464   5.139 -0.1318 -0.0478  0.1667
 9912TIP3    H151227   3.587   2.471   5.223 -0.2627  1.9759  0.1044
 9912TIP3    H251228   3.453   2.440   5.161  0.3284 -1.6479  0.4384
 9913TIP3   OH251229   6.563   6.172  13.971  0.1292 -0.5365 -0.4513
 9913TIP3    H151230   6.541   6.091  14.017  1.8766 -1.8795 -1.8154
 9913TIP3    H251231   6.524   6.162  13.884  0.0060  0.2801 -0.4989
 9914TIP3   OH251232   0.201   1.670  14.230 -0.0378 -0.3939  0.0965
 9914TIP3    H151233   0.197   1.617  14.150  0.6712  0.2251 -0.3726
 9914TIP3    H251234   0.139   1.629  14.290  0.0973 -1.4218 -0.4473
 9915TIP3   OH251235   1.026   0.844   6.275 -0.2116  0.0681  0.4001
 9915TIP3    H151236   1.008   0.896   6.197  1.2743 -1.6425 -1.1604
 9915TIP3    H251237   0.975   0.886   6.344 -2.2082  1.1794 -1.6342
 9916TIP3   OH251238   0.251   1.114   1.954 -0.0219 -0.4249 -0.4700
 9916TIP3    H151239   0.224   1.041   2.010 -1.8128  0.9317  0.5363
 9916TIP3    H251240   0.317   1.161   2.005  0.4293 -0.7959 -0.7107
 9917TIP3   OH251241   3.988   4.729  10.259  0.1941 -0.0676 -0.4531
 9917TIP3    H151242   3.903   4.773  10.256 -0.3068 -0.9419  0.3891
 9917TIP3    H251243   4.006   4.718  10.352  1.9674  1.4476 -0.5569
 9918TIP3   OH251244   3.510   4.566   0.034 -0.4704  0.2376 -0.4380
 9918TIP3    H151245   3.513   4.492  -0.026  0.4680  0.6444 -0.9165
 9918TIP3    H251246   3.418   4.573   0.059 -0.5313 -1.2752 -0.1284
 9919TIP3   OH251247   2.677   0.482  17.144 -0.1106 -0.3516  0.1442
 9919TIP3    H151248   2.610   0.504  17.078 -0.0357 -0.6458 -0.0279
 9919TIP3    H251249   2.752   0.536  17.120  0.0777 -0.7922 -0.2891
 9920TIP3   OH251250   3.633   0.104  11.839 -0.0140 -0.1634 -0.6454
 9920TIP3    H151251   3.604   0.190  11.867  1.1677 -0.2059  0.8061
 9920TIP3    H251252   3.558   0.068  11.792 -2.4059 -0.2515  2.8717
 9921TIP3   OH251253   3.006   1.381  15.909 -0.4234 -0.5199  1.0496
 9921TIP3    H151254   2.958   1.452  15.951  0.4079  0.1986  0.8194
 9921TIP3    H251255   2.971   1.302  15.948 -0.9480  0.0481  1.7510
 9922TIP3   OH251256   2.070   4.692  13.464  0.7174  0.0040 -0.5459
 9922TIP3    H151257   2.162   4.682  13.439  1.1331 -1.3310  1.3106
 9922TIP3    H251258   2.070   4.682  13.559 -1.3764 -0.2753 -0.5429
 9923TIP3   OH251259   3.653   6.763  17.064 -0.7683  0.0624  0.7366
 9923TIP3    H151260   3.662   6.826  17.135  1.9801  1.5556 -0.7529
 9923TIP3    H251261   3.734   6.712  17.065 -1.8144 -1.7044  0.2729
 9924TIP3   OH251262   2.935   4.088  11.548 -0.0000 -0.6469 -0.1367
 9924TIP3    H151263   2.844   4.117  11.557 -0.2193 -1.5541  0.7353
 9924TIP3    H251264   2.980   4.163  11.510 -1.0930 -0.1525 -0.5033
 9925TIP3   OH251265   3.938   0.697   4.514  0.8684 -0.2211  0.1408
 9925TIP3    H151266   3.912   0.621   4.567  0.2578  0.2313  0.5132
 9925TIP3    H251267   3.970   0.660   4.432  2.1829 -0.9664  0.9494
 9926TIP3   OH251268   6.592   6.015  16.988 -0.1621 -0.4579 -0.5795
 9926TIP3    H151269   6.557   6.008  16.899  0.2748  0.5722 -0.8411
 9926TIP3    H251270   6.591   6.109  17.007 -0.0550 -0.6498  0.4312
 9927TIP3   OH251271   0.785   2.636   4.264  0.5237  0.3028 -0.0275
 9927TIP3    H151272   0.690   2.626   4.267  0.3964  1.2009 -0.7082
 9927TIP3    H251273   0.799   2.729   4.247  1.5199  0.1512 -0.0982
 9928TIP3   OH251274   1.757   0.500   2.261 -0.0830  0.2412  0.2204
 9928TIP3    H151275   1.805   0.568   2.215  0.9891 -0.5480  0.1507
 9928TIP3    H251276   1.818   0.426   2.268 -0.8601 -0.3490  1.2103
 9929TIP3   OH251277   1.410   1.355  16.222 -0.1555  0.1785 -0.2748
 9929TIP3    H151278   1.409   1.259  16.220  0.4069  0.0639  2.0475
 9929TIP3    H251279   1.491   1.379  16.178  0.5478 -0.5295  0.5953
 9930TIP3   OH251280   5.107   2.701   2.858 -0.0930  0.4719 -0.2663
 9930TIP3    H151281   5.093   2.677   2.950  0.0198  0.1351 -0.3356
 9930TIP3    H251282   5.185   2.652   2.833 -0.4995  0.0586 -0.7328
 9931TIP3   OH251283   3.588   6.652   0.928  0.9600  0.7589 -0.1644
 9931TIP3    H151284   3.611   6.742   0.951  0.8310  0.5389  0.8732
 9931TIP3    H251285   3.629   6.599   0.997 -0.4072  0.1538  0.2063
 9932TIP3   OH251286   3.574   4.234  12.053  0.1407  0.2471 -0.9382
 9932TIP3    H151287   3.592   4.303  12.117 -1.6681 -1.2106  1.2864
 9932TIP3    H251288   3.485   4.251  12.023 -0.9710 -1.9583  0.8897
 9933TIP3   OH251289   1.599   5.506  17.173  0.4980  0.2664 -0.0460
 9933TIP3    H151290   1.691   5.523  17.155  0.1510  1.1462 -1.0803
 9933TIP3    H251291   1.597   5.416  17.204  1.3911 -0.7306 -2.6543
 9934TIP3   OH251292   6.571   4.989   5.647  0.3880 -0.0667 -0.4250
 9934TIP3    H151293   6.657   4.949   5.653  1.2314  1.6908 -0.0940
 9934TIP3    H251294   6.559   5.033   5.731 -0.8138 -0.2636 -0.4821
 9935TIP3   OH251295   1.559   2.835  15.133  0.1891  0.1639  0.2015
 9935TIP3    H151296   1.546   2.863  15.043 -2.9184 -1.1303  0.1150
 9935TIP3    H251297   1.635   2.884  15.163  1.4669  0.4856 -3.1434
 9936TIP3   OH251298   1.001   6.564   6.799 -0.0385  0.1858  0.1392
 9936TIP3    H151299   0.956   6.491   6.756 -0.5712 -0.8198  2.2753
 9936TIP3    H251300   0.997   6.635   6.736 -2.9292 -0.4706 -0.5424
 9937TIP3   OH251301   6.359   1.752   0.823 -0.0954  0.2709 -0.2610
 9937TIP3    H151302   6.266   1.748   0.845  0.0396 -0.5479  0.2308
 9937TIP3    H251303   6.364   1.810   0.747 -0.8171  1.5545  0.6401
 9938TIP3   OH251304   2.214   2.520   3.085  0.1647  0.2077  0.0314
 9938TIP3    H151305   2.194   2.544   3.176  0.3271  0.9928 -0.1279
 9938TIP3    H251306   2.309   2.517   3.082  0.1534 -0.0140 -0.0635
 9939TIP3   OH251307   6.044   0.445  17.148  0.4122  0.0837 -0.0232
 9939TIP3    H151308   6.110   0.476  17.211  1.0255  0.3617 -0.7808
 9939TIP3    H251309   5.986   0.520  17.137  0.4738  0.1345 -0.0077
 9940TIP3   OH251310   6.558   6.220  15.376 -0.2052 -0.6020 -0.0737
 9940TIP3    H151311   6.543   6.273  15.455 -0.2174 -0.6924 -0.0155
 9940TIP3    H251312   6.477   6.171  15.364 -0.8457  0.6368 -1.0967
 9941TIP3   OH251313   4.108   3.116  14.604  0.5984  0.2006 -0.5853
 9941TIP3    H151314   4.017   3.104  14.579 -0.3259  1.7239  1.7891
 9941TIP3    H251315   4.146   3.171  14.535 -0.8713  1.3369 -0.5194
 9942TIP3   OH251316   5.044   3.879  12.047 -0.0298  0.5458  0.3020
 9942TIP3    H151317   5.010   3.882  12.137 -1.5220  2.0071 -0.2510
 9942TIP3    H251318   5.075   3.969  12.031  3.0512 -0.3877  0.3076
 9943TIP3   OH251319   3.839   5.797   2.364 -0.2991  0.4605  0.0223
 9943TIP3    H151320   3.815   5.889   2.365  0.5033  0.6953 -1.0786
 9943TIP3    H251321   3.822   5.768   2.275  4.1066  0.8841 -1.2020
 9944TIP3   OH251322   4.655   3.803  11.751 -0.0186 -0.3005 -0.2943
 9944TIP3    H151323   4.567   3.840  11.756 -0.3799 -1.0620 -0.8064
 9944TIP3    H251324   4.643   3.709  11.767  0.8641 -0.2406  0.9026
 9945TIP3   OH251325   4.714   5.461   6.149  0.5101 -0.6615  0.0348
 9945TIP3    H151326   4.798   5.420   6.174  1.1541  0.7637  0.2996
 9945TIP3    H251327   4.654   5.435   6.218  1.3476  0.2044  1.1338
 9946TIP3   OH251328   4.163   1.328  11.832  0.3446 -0.2537  0.2528
 9946TIP3    H151329   4.220   1.404  11.847 -1.2646  0.5242  3.1091
 9946TIP3    H251330   4.075   1.365  11.828 -0.5951 -1.9771  2.7856
 9947TIP3   OH251331   2.517   1.348  15.903  0.4970 -0.6086 -0.6166
 9947TIP3    H151332   2.532   1.385  15.816 -1.9179  0.5041 -0.6339
 9947TIP3    H251333   2.429   1.309  15.897 -0.6202  1.3253  1.8648
 9948TIP3   OH251334   4.618   2.018  14.362  0.4853 -0.2594  0.0962
 9948TIP3    H151335   4.668   2.074  14.303  0.3057  0.0455  0.2344
 9948TIP3    H251336   4.669   2.017  14.443 -0.9856  2.1598  1.1625
 9949TIP3   OH251337   2.639   1.793  11.102  0.0269 -1.1620 -0.0906
 9949TIP3    H151338   2.653   1.754  11.188  1.6745  1.6678  1.0584
 9949TIP3    H251339   2.544   1.795  11.091 -0.2187 -1.3931  1.7661
 9950TIP3   OH251340   2.680   4.777  13.363 -1.2640  0.4438  0.1825
 9950TIP3    H151341   2.688   4.840  13.292  1.2757 -0.1047 -0.1234
 9950TIP3    H251342   2.749   4.713  13.346  0.7689  1.2973  4.0690
 9951TIP3   OH251343   5.043   2.276  11.586  0.2539  0.2920 -0.8536
 9951TIP3    H151344   5.064   2.256  11.495 -0.8508 -0.8052 -0.8909
 9951TIP3    H251345   5.036   2.190  11.628 -0.6841  0.7273 -0.0878
 9952TIP3   OH251346   4.871   0.148  14.302 -0.4859  0.3560 -0.2015
 9952TIP3    H151347   4.834   0.236  14.295 -0.8676  0.0704 -2.6972
 9952TIP3    H251348   4.953   0.152  14.254 -1.0597 -0.8971 -1.3376
 9953TIP3   OH251349   3.374   5.945  13.697  0.3365 -0.2011  0.5157
 9953TIP3    H151350   3.350   5.874  13.637  0.4704  0.0848  0.1141
 9953TIP3    H251351   3.468   5.932  13.712  0.5974  0.4998 -0.4033
 9954TIP3   OH251352   4.610   3.114  12.684 -0.4601  0.5668 -0.3822
 9954TIP3    H151353   4.569   3.064  12.613 -2.7840  1.5299  0.2088
 9954TIP3    H251354   4.647   3.048  12.742 -0.9679 -0.3308 -1.0608
 9955TIP3   OH251355   4.653   2.385   4.746  0.5479  0.4333 -0.0362
 9955TIP3    H151356   4.610   2.444   4.807  1.3064  0.7319  0.2178
 9955TIP3    H251357   4.645   2.428   4.660 -0.2108  0.1789 -0.1006
 9956TIP3   OH251358   2.863   3.503   4.589 -0.2333  0.4010  0.1323
 9956TIP3    H151359   2.940   3.559   4.595 -0.3345  0.4414  1.3258
 9956TIP3    H251360   2.837   3.489   4.680 -0.9180 -0.6046 -0.2067
 9957TIP3   OH251361   0.930   5.055   0.203  0.0748  0.0395  0.6541
 9957TIP3    H151362   1.002   5.006   0.244  0.3946 -0.5208 -0.5257
 9957TIP3    H251363   0.969   5.092   0.124 -1.0804 -0.8006 -0.3516
 9958TIP3   OH251364   0.235   1.412   0.475 -0.1568  0.1537  0.5179
 9958TIP3    H151365   0.147   1.384   0.452  0.2288 -1.1522  0.5223
 9958TIP3    H251366   0.223   1.490   0.530 -1.2879  0.0387  0.4444
 9959TIP3   OH251367   6.569   2.321  15.002 -0.4007 -0.4970  0.3178
 9959TIP3    H151368   6.495   2.346  15.057  0.8715  2.2333  0.9312
 9959TIP3    H251369   6.584   2.397  14.946  2.2121 -0.7582  0.5412
 9960TIP3   OH251370   0.870   6.153   5.757  0.4243 -0.2370 -0.0821
 9960TIP3    H151371   0.835   6.108   5.679 -0.3402 -0.1684  0.2179
 9960TIP3    H251372   0.793   6.178   5.807  0.9285 -0.8821  1.0471
 9961TIP3   OH251373   3.437   1.919   2.525  0.2286 -0.1800  0.0574
 9961TIP3    H151374   3.522   1.951   2.496  0.2870 -1.6898 -1.6009
 9961TIP3    H251375   3.457   1.843   2.578 -0.0833 -0.7365 -0.6119
 9962TIP3   OH251376   2.785   3.739   4.200  0.2969  0.5081  0.6678
 9962TIP3    H151377   2.701   3.776   4.173  0.2909 -0.9787 -1.6633
 9962TIP3    H251378   2.763   3.661   4.249  0.2269 -0.6498 -1.1078
 9963TIP3   OH251379   6.254   1.444  13.348  0.0283  0.4179  0.2823
 9963TIP3    H151380   6.173   1.494  13.344 -0.7836 -0.7345  1.6498
 9963TIP3    H251381   6.323   1.511  13.344 -1.0037  1.5822  1.1185
 9964TIP3   OH251382   0.930   3.123   5.099 -0.0789 -0.0163  0.1922
 9964TIP3    H151383   1.006   3.130   5.041 -0.5937  2.2922 -0.2947
 9964TIP3    H251384   0.882   3.205   5.087 -1.5969 -0.5532  1.9818
 9965TIP3   OH251385   1.211   1.737   1.980 -0.8620  0.3305 -0.3021
 9965TIP3    H151386   1.137   1.684   1.948 -2.1190  1.3378  0.8031
 9965TIP3    H251387   1.176   1.826   1.986 -0.1188  0.5498  1.8987
 9966TIP3   OH251388   0.785   5.486  12.269  0.3290 -0.0471  0.4168
 9966TIP3    H151389   0.862   5.441  12.233 -0.6676 -0.0437 -1.9199
 9966TIP3    H251390   0.783   5.569  12.221 -2.2352 -0.9023 -1.1438
 9967TIP3   OH251391   6.701   2.953   5.667 -1.0606  0.7732  0.0800
 9967TIP3    H151392   6.715   3.028   5.609 -2.0915 -0.3373 -1.6931
 9967TIP3    H251393   6.666   2.885   5.610 -0.8665 -0.8329  1.7806
 9968TIP3   OH251394   5.767   1.042   5.893  0.2511  0.7617  0.5355
 9968TIP3    H151395   5.691   1.003   5.936  0.5998 -1.2779 -0.5704
 9968TIP3    H251396   5.836   1.038   5.958 -0.3440  1.9053  1.2778
 9969TIP3   OH251397   6.573   2.125  14.592 -0.2622  0.3179 -0.2654
 9969TIP3    H151398   6.542   2.118  14.682 -1.4010  2.5539 -0.4207
 9969TIP3    H251399   6.669   2.124  14.599 -0.3350 -0.5063  0.8493
 9970TIP3   OH251400   5.434   1.662   5.465 -0.0033  0.0233 -0.3450
 9970TIP3    H151401   5.359   1.603   5.468  0.0307 -0.2590 -2.8732
 9970TIP3    H251402   5.396   1.750   5.463 -0.1936 -0.0554 -0.1744
 9971TIP3   OH251403   1.767   1.956  15.668 -0.9643 -0.0664  0.9263
 9971TIP3    H151404   1.752   1.978  15.576  1.5717 -2.9135 -0.3775
 9971TIP3    H251405   1.859   1.928  15.670 -1.3312 -1.3833  4.0578
 9972TIP3   OH251406   2.465   3.279   2.547 -0.1441 -0.1932 -0.0694
 9972TIP3    H151407   2.426   3.366   2.538  1.4233  0.3940 -1.6184
 9972TIP3    H251408   2.488   3.273   2.640 -3.5151 -0.4802  0.8904
 9973TIP3   OH251409   2.210   4.740   3.037 -0.1529 -0.3935 -0.0666
 9973TIP3    H151410   2.176   4.700   2.957  1.6733  0.9573 -1.6366
 9973TIP3    H251411   2.291   4.693   3.055 -0.3259 -0.3979  0.7577
 9974TIP3   OH251412   4.457   1.072   0.888 -0.1416  0.0318 -0.3324
 9974TIP3    H151413   4.411   1.150   0.855  2.9582  1.5152 -1.4614
 9974TIP3    H251414   4.387   1.019   0.927 -2.5585  2.8403 -0.4673
 9975TIP3   OH251415   4.265   0.365  12.427  0.1511  0.1449  0.2066
 9975TIP3    H151416   4.258   0.461  12.435  0.0746  0.1008  0.6960
 9975TIP3    H251417   4.198   0.331  12.486  0.8847 -0.2216  0.8482
 9976TIP3   OH251418   2.369   1.327  15.526 -0.6624 -0.5497  0.2148
 9976TIP3    H151419   2.384   1.265  15.597  2.2625  0.7248  0.8295
 9976TIP3    H251420   2.375   1.413  15.567 -0.8963  0.1879 -1.2412
 9977TIP3   OH251421   4.819   3.566   4.389 -0.1644 -0.4053  0.0519
 9977TIP3    H151422   4.730   3.586   4.359  0.3503  1.3969 -0.3951
 9977TIP3    H251423   4.808   3.496   4.453 -2.1278  1.0766  1.4575
 9978TIP3   OH251424   0.889   5.346   1.591  0.1021  0.3516 -0.5662
 9978TIP3    H151425   0.942   5.298   1.655  1.3326  2.3729  0.0322
 9978TIP3    H251426   0.799   5.331   1.619  0.3868 -1.7300 -0.5527
 9979TIP3   OH251427   5.761   0.411  14.165 -0.4223 -0.3781  0.1856
 9979TIP3    H151428   5.784   0.488  14.217  1.0363 -1.1521  0.7724
 9979TIP3    H251429   5.781   0.436  14.075  0.0570 -0.0632  0.3734
 9980TIP3   OH251430   1.709   4.936  14.562 -0.1489 -0.1901 -0.1966
 9980TIP3    H151431   1.786   4.964  14.513  0.6372  0.1094  1.1622
 9980TIP3    H251432   1.664   5.018  14.584 -0.1537 -0.2788  0.1259
 9981TIP3   OH251433   5.981   5.949   3.589  0.3207  0.1019 -0.0188
 9981TIP3    H151434   5.921   5.982   3.522 -0.5089 -1.1133  0.0764
 9981TIP3    H251435   6.039   5.889   3.543 -2.2193 -3.2503  0.6471
 9982TIP3   OH251436   2.526   3.061  11.981 -0.2752 -0.4558  0.3135
 9982TIP3    H151437   2.512   3.074  12.075  1.9053 -0.1014  0.6452
 9982TIP3    H251438   2.469   2.987  11.958 -2.1963  0.5919  1.4900
 9983TIP3   OH251439   4.625   5.587  16.650  0.2396 -0.0836 -0.5956
 9983TIP3    H151440   4.533   5.560  16.646  0.3940 -0.9785  1.1955
 9983TIP3    H251441   4.668   5.518  16.700  1.8075  0.5607 -1.0222
 9984TIP3   OH251442   1.280   2.954  15.561  0.1693  0.4359  0.3664
 9984TIP3    H151443   1.194   2.948  15.602  0.1358  1.2288  0.4218
 9984TIP3    H251444   1.267   2.922  15.472  0.3154 -1.6333  1.0349
 9985TIP3   OH251445   4.496   0.454  10.926  0.0813  0.1098 -0.1841
 9985TIP3    H151446   4.510   0.361  10.943  2.1745  0.5522  0.8284
 9985TIP3    H251447   4.575   0.482  10.879 -0.5403  1.3714 -0.5201
 9986TIP3   OH251448   4.071   4.134   0.844  0.2161  0.5485 -0.1181
 9986TIP3    H151449   4.127   4.057   0.833 -0.9815 -0.3624 -0.0490
 9986TIP3    H251450   4.116   4.187   0.910  1.0051 -0.1585 -0.0734
 9987TIP3   OH251451   5.761   2.446   4.885  0.0764  0.2848 -0.4464
 9987TIP3    H151452   5.704   2.448   4.808  0.7841  1.9089 -0.9559
 9987TIP3    H251453   5.819   2.371   4.870 -0.8781 -0.4229 -0.6751
 9988TIP3   OH251454   0.715   3.811   2.347  0.2515  0.3252 -0.2709
 9988TIP3    H151455   0.643   3.845   2.295 -0.6030 -3.5701 -1.9721
 9988TIP3    H251456   0.675   3.783   2.429  0.2787  0.2432 -0.2857
 9989TIP3   OH251457   0.138   5.019  15.961 -0.4289 -0.4877 -0.3338
 9989TIP3    H151458   0.069   5.022  16.027 -0.0203 -2.6798  0.2863
 9989TIP3    H251459   0.212   5.065  16.002 -0.1525 -1.8897  0.8333
 9990TIP3   OH251460   0.581   2.504   4.441 -0.0430  0.1103 -0.1777
 9990TIP3    H151461   0.625   2.509   4.526 -0.4236 -0.5142  0.0625
 9990TIP3    H251462   0.603   2.418   4.407 -0.3653  0.1333 -0.4514
 9991TIP3   OH251463   2.184   5.732  15.456  0.3447  0.0715  0.0646
 9991TIP3    H151464   2.114   5.797  15.462  0.9682  0.6251  2.8711
 9991TIP3    H251465   2.208   5.731  15.364 -1.8320  1.4945 -0.5968
 9992TIP3   OH251466   1.921   3.982  16.091  0.5165  0.1324 -0.3012
 9992TIP3    H151467   2.008   3.944  16.103  1.2011  1.3997 -1.0868
 9992TIP3    H251468   1.865   3.932  16.150  1.6059 -1.2761 -0.4107
 9993TIP3   OH251469   2.178   1.367  11.967 -0.0451  0.2663  0.1273
 9993TIP3    H151470   2.235   1.301  12.006  0.2778  0.1441 -0.5413
 9993TIP3    H251471   2.236   1.422  11.915 -0.5691 -0.0513 -0.8175
 9994TIP3   OH251472   1.674   1.224  11.839  0.3441 -0.2026 -0.0472
 9994TIP3    H151473   1.659   1.248  11.930  2.0160 -0.1141  0.2383
 9994TIP3    H251474   1.587   1.224  11.799 -0.1143  3.7098  0.5400
 9995TIP3   OH251475   5.506   6.405   4.797  0.5467  0.7085 -0.2797
 9995TIP3    H151476   5.524   6.434   4.887 -1.0220 -1.0453  0.6840
 9995TIP3    H251477   5.430   6.456   4.770  0.0287  0.1155  0.0283
 9996TIP3   OH251478   5.702   4.126  15.336  0.2936 -0.2906 -0.5992
 9996TIP3    H151479   5.615   4.090  15.317 -0.2461  1.1736 -1.0258
 9996TIP3    H251480   5.692   4.167  15.422  0.9788 -1.3389  0.0067
 9997TIP3   OH251481   2.137   2.056  16.784  0.0752  0.1448 -0.3345
 9997TIP3    H151482   2.119   1.984  16.724  3.6578 -1.0336 -0.1922
 9997TIP3    H251483   2.183   2.121  16.731 -1.1873  1.4304  0.0609
 9998TIP3   OH251484   2.501   1.328  11.940 -0.4711  0.1342 -0.0206
 9998TIP3    H151485   2.499   1.266  11.867 -0.6061  0.9080 -0.6974
 9998TIP3    H251486   2.540   1.408  11.903  3.4522 -0.6985  1.8046
 9999TIP3   OH251487   4.523   0.931  12.746  1.2888 -0.1958 -0.2814
 9999TIP3    H151488   4.535   1.024  12.766  3.2802 -0.5406  0.4468
 9999TIP3    H251489   4.557   0.922  12.657 -1.6582  0.2185 -1.5647
10000TIP3   OH251490   3.372   5.838  15.222  0.0847  0.6913 -0.0812
10000TIP3    H151491   3.380   5.752  15.181 -0.8756  0.0802  0.9725
10000TIP3    H251492   3.282   5.865  15.205  0.0689  1.0245  0.4922
10001TIP3   OH251493   1.218   6.696  16.075 -0.5329  0.0433  0.0008
10001TIP3    H151494   1.204   6.787  16.102  1.8504  1.0254 -1.6704
10001TIP3    H251495   1.290   6.666  16.131 -0.5061 -0.3959 -0.2717
10002TIP3   OH251496   1.526   1.104  14.333 -0.3943  0.3897 -0.0314
10002TIP3    H151497   1.529   1.198  14.351  1.6927  0.2927  0.4069
10002TIP3    H251498   1.485   1.066  14.411  0.6686  0.7736  0.7399
10003TIP3   OH251499   0.571   4.302  16.444 -0.1871  0.2139 -0.5762
10003TIP3    H151500   0.562   4.392  16.412 -1.1909  0.9711  1.6206
10003TIP3    H251501   0.484   4.279  16.475  0.2387 -1.2580 -0.4266
10004TIP3   OH251502   4.378   0.373  13.693  0.1876 -0.3522 -0.3386
10004TIP3    H151503   4.352   0.301  13.750  0.1462  0.8557  1.2534
10004TIP3    H251504   4.468   0.354  13.669  0.1177 -1.0281 -0.0784
10005TIP3   OH251505   5.056   4.081   0.028  0.3423 -0.4759 -0.5294
10005TIP3    H151506   5.022   4.146   0.089 -0.7205 -0.7866 -0.7682
10005TIP3    H251507   5.053   4.125  -0.057  0.3426 -0.5697 -0.5787
10006TIP3   OH251508   0.418   6.101   2.017 -0.3866 -0.3106 -0.1655
10006TIP3    H151509   0.365   6.023   2.003 -0.9694  0.2752 -1.4007
10006TIP3    H251510   0.358   6.174   1.999  0.7514  0.3779 -1.3709
10007TIP3   OH251511   0.174   1.703  12.298  0.6097 -0.6459 -0.1973
10007TIP3    H151512   0.204   1.653  12.222  0.3780 -0.4638 -0.4120
10007TIP3    H251513   0.249   1.702  12.358  1.7192  1.2857 -1.4458
10008TIP3   OH251514   0.000   6.429  13.588 -0.4126 -0.4423  0.2137
10008TIP3    H151515   0.074   6.490  13.587 -1.0867  0.3900 -0.2787
10008TIP3    H251516   0.010   6.378  13.508  1.6797 -2.9393  1.8793
10009TIP3   OH251517   0.759   0.511   6.081 -0.2504 -0.3057  0.0416
10009TIP3    H151518   0.669   0.503   6.113 -0.4095 -0.6833 -0.4824
10009TIP3    H251519   0.755   0.581   6.016 -0.4495 -1.2045 -0.9411
10010TIP3   OH251520   6.295   6.664   1.229  0.1800 -0.7709  0.1697
10010TIP3    H151521   6.283   6.710   1.145 -1.3513 -0.8683  0.3095
10010TIP3    H251522   6.380   6.695   1.260 -1.4186  3.4197  1.0713
10011TIP3   OH251523   2.328   5.819   0.540 -0.4306  0.2091  0.6977
10011TIP3    H151524   2.372   5.735   0.527  0.3646  0.5437  1.1295
10011TIP3    H251525   2.350   5.871   0.462  0.8134  0.7334  1.3759
10012TIP3   OH251526   1.192   0.050  14.948 -0.1271 -0.7104 -0.7234
10012TIP3    H151527   1.285   0.042  14.968 -0.5663 -0.6224  1.7530
10012TIP3    H251528   1.180   0.141  14.923  0.2047 -0.2587  0.6887
10013TIP3   OH251529   2.967   3.887  15.423 -0.0445 -0.0449  0.2063
10013TIP3    H151530   2.922   3.863  15.504 -0.3659  0.2508  0.1151
10013TIP3    H251531   2.932   3.827  15.357 -1.2115  0.9560 -0.1301
10014TIP3   OH251532   2.723   5.140   4.723 -0.3962  0.2169  0.6873
10014TIP3    H151533   2.726   5.235   4.717  0.7093  0.1170 -1.9770
10014TIP3    H251534   2.633   5.117   4.699 -0.6450  0.5784  1.2649
10015TIP3   OH251535   3.824   5.850   2.076 -0.4045  0.1755  0.2311
10015TIP3    H151536   3.818   5.868   1.983 -2.3788  2.9194  0.7555
10015TIP3    H251537   3.737   5.872   2.110  0.4818  0.0188  2.8243
10016TIP3   OH251538   5.466   4.226  16.803 -0.4420  0.1758 -0.8434
10016TIP3    H151539   5.440   4.142  16.842  0.0661 -0.4779 -1.8548
10016TIP3    H251540   5.431   4.292  16.863 -1.2434 -0.7445 -0.2557
10017TIP3   OH251541   0.402   1.770  15.122  0.2734  0.1647  0.0358
10017TIP3    H151542   0.377   1.812  15.205 -0.7386 -1.9205  0.8569
10017TIP3    H251543   0.318   1.757  15.077  0.4815 -1.3808  0.0490
10018TIP3   OH251544   3.743   0.399   1.575 -0.1477 -0.7798  0.2626
10018TIP3    H151545   3.777   0.410   1.486  1.8665  1.1159  1.1463
10018TIP3    H251546   3.728   0.489   1.605  1.0517 -1.2391  2.4249
10019TIP3   OH251547   3.537   2.101  12.037  0.3623 -0.4335  0.0589
10019TIP3    H151548   3.447   2.115  12.007  1.1688  0.1280 -2.3772
10019TIP3    H251549   3.539   2.010  12.064 -1.0221 -0.3538  0.5059
10020TIP3   OH251550   5.143   0.274   1.811 -0.0616  0.4946  0.2774
10020TIP3    H151551   5.172   0.226   1.733  0.1715 -0.3412  0.8665
10020TIP3    H251552   5.072   0.331   1.779 -0.1422 -0.0269 -0.4962
10021TIP3   OH251553   3.375   1.306  16.269 -0.0680 -0.4357  0.5461
10021TIP3    H151554   3.288   1.330  16.299 -0.5494  2.0647 -2.3691
10021TIP3    H251555   3.362   1.223  16.222 -0.9710  0.0721 -0.1249
10022TIP3   OH251556   1.741   4.210   3.345 -0.0895  0.2321  0.2572
10022TIP3    H151557   1.685   4.214   3.268 -0.1363  0.4475  0.3018
10022TIP3    H251558   1.742   4.299   3.379 -0.6367 -0.0010  0.9133
10023TIP3   OH251559   0.161   0.571  14.394 -0.5758  0.1404 -0.4052
10023TIP3    H151560   0.069   0.578  14.420 -0.0689 -0.3939  1.6912
10023TIP3    H251561   0.176   0.477  14.385 -0.2409  0.2321 -0.8688
10024TIP3   OH251562   3.846   6.522  15.949  0.1787  0.2883  0.1088
10024TIP3    H151563   3.857   6.609  15.987 -1.4529  0.1672  0.9713
10024TIP3    H251564   3.893   6.526  15.866  1.2793  1.5445  0.7536
10025TIP3   OH251565   4.205   3.986   1.619 -0.3718  0.2002  0.4211
10025TIP3    H151566   4.173   3.900   1.591  2.5506 -0.6608 -0.6564
10025TIP3    H251567   4.239   3.971   1.707  0.7614  0.0184 -0.0251
10026TIP3   OH251568   5.740   1.564  13.275 -0.5121  0.0825  0.0445
10026TIP3    H151569   5.825   1.543  13.314  0.0255  0.2096 -1.0366
10026TIP3    H251570   5.738   1.659  13.272 -0.0084  0.0676 -1.3691
10027TIP3   OH251571   2.978   0.493   4.801  0.0078 -0.1214 -0.1728
10027TIP3    H151572   2.911   0.426   4.812  0.6988 -0.9671 -0.8986
10027TIP3    H251573   3.053   0.445   4.765  1.2474  0.6534  1.2717
10028TIP3   OH251574   4.401   0.765   3.268  0.0924  0.5223 -0.5828
10028TIP3    H151575   4.347   0.757   3.190 -0.3996  1.4468 -0.3558
10028TIP3    H251576   4.430   0.856   3.268 -0.2120  0.6410  0.4835
10029TIP3   OH251577   4.281   4.890   4.855 -0.1000 -0.1775  0.5051
10029TIP3    H151578   4.329   4.851   4.927  0.7763 -0.5631 -0.2630
10029TIP3    H251579   4.347   4.939   4.806 -1.1667  2.4160  1.4900
10030TIP3   OH251580   6.656   3.406   3.271  0.4589  0.0968  0.3361
10030TIP3    H151581   6.629   3.342   3.336  0.6562 -0.9169 -0.5531
10030TIP3    H251582   6.730   3.452   3.312 -0.0519  0.1589  1.2086
10031TIP3   OH251583   2.312   6.598   3.067 -0.0519 -0.0623 -0.0992
10031TIP3    H151584   2.259   6.554   3.000 -1.4563  1.9564 -0.4155
10031TIP3    H251585   2.255   6.600   3.144  1.2991 -1.7632  1.0250
10032TIP3   OH251586   5.725   0.180  14.875 -0.0823  0.0487  0.3122
10032TIP3    H151587   5.788   0.196  14.805  0.2845 -0.3215  0.5549
10032TIP3    H251588   5.642   0.162  14.829  0.2254 -0.5036 -0.0315
10033TIP3   OH251589   6.174   2.571  12.147 -0.0318  0.1124  0.1287
10033TIP3    H151590   6.211   2.486  12.172 -0.7565 -0.0580  0.6645
10033TIP3    H251591   6.248   2.631  12.150  0.3041 -0.3138  0.6941
10034TIP3   OH251592   3.858   4.713   4.373  0.2444 -0.1208 -0.3364
10034TIP3    H151593   3.769   4.681   4.389  0.0347  1.7456  2.9827
10034TIP3    H251594   3.914   4.657   4.427  0.8156  0.1702 -0.6123
10035TIP3   OH251595   0.101   4.136   5.742  0.1200 -0.3245 -0.2954
10035TIP3    H151596   0.077   4.156   5.832  1.8461 -2.5294  0.7319
10035TIP3    H251597   0.191   4.105   5.747  0.5544  0.2505 -2.9188
10036TIP3   OH251598   2.797   0.296   4.879  0.1602 -0.0821  0.5187
10036TIP3    H151599   2.793   0.257   4.791  1.4284  0.7396  0.0510
10036TIP3    H251600   2.850   0.235   4.930 -0.4694 -0.4988  0.6682
10037TIP3   OH251601   2.390   1.514   1.509 -0.2178  0.4353  0.1086
10037TIP3    H151602   2.314   1.457   1.517  0.0005  0.1656  0.2654
10037TIP3    H251603   2.447   1.471   1.445  0.3861 -0.0231  0.9316
10038TIP3   OH251604   5.376   2.144  16.615  0.2474 -0.1698  0.0544
10038TIP3    H151605   5.415   2.058  16.633 -1.3965 -0.6171  1.7859
10038TIP3    H251606   5.307   2.126  16.551 -0.7056 -0.3478  1.0930
10039TIP3   OH251607   6.135   5.524   5.312  0.2950 -0.9251 -0.3832
10039TIP3    H151608   6.127   5.610   5.271  1.2642 -0.9416 -0.6376
10039TIP3    H251609   6.226   5.498   5.296  0.8824 -0.7110  2.2273
10040TIP3   OH251610   3.920   4.657  15.189  0.1940  0.6991  0.2730
10040TIP3    H151611   3.897   4.729  15.248  0.4983 -2.4065  4.6818
10040TIP3    H251612   4.012   4.638  15.209 -0.0863 -1.3666 -0.1632
10041TIP3   OH251613   4.681   4.973   5.151 -0.0696  0.5041 -0.0948
10041TIP3    H151614   4.685   4.946   5.242 -0.5481  0.1289 -0.1785
10041TIP3    H251615   4.770   5.003   5.130  0.1017  0.3536  0.4171
10042TIP3   OH251616   4.888   1.080   3.774  0.2756  0.6026  0.0635
10042TIP3    H151617   4.869   1.118   3.860  1.6410 -0.1497  0.7235
10042TIP3    H251618   4.841   1.136   3.712 -0.9075  1.0309  1.3052
10043TIP3   OH251619   2.339   1.621   6.510  0.1591 -0.4311 -0.6632
10043TIP3    H151620   2.276   1.628   6.438 -0.5743  0.2414  0.0284
10043TIP3    H251621   2.355   1.527   6.518 -1.2481 -0.6690 -0.4340
10044TIP3   OH251622   4.074   4.757   3.551 -0.2874  0.4241  0.2543
10044TIP3    H151623   4.088   4.836   3.499 -0.9147  0.1268 -0.3809
10044TIP3    H251624   4.153   4.748   3.603 -1.0707  2.7566  2.0446
10045TIP3   OH251625   5.589   1.704  12.608 -0.1753  0.0107 -0.4522
10045TIP3    H151626   5.572   1.643  12.536  0.2112 -0.3036 -0.2844
10045TIP3    H251627   5.507   1.752  12.619  0.3165  1.4099 -2.3377
10046TIP3   OH251628   6.303   4.731   5.255  0.4430 -0.1317  0.2492
10046TIP3    H151629   6.342   4.704   5.172  0.0033  0.1859 -0.0665
10046TIP3    H251630   6.231   4.670   5.269  0.3468 -0.0169  0.2587
10047TIP3   OH251631   6.639   1.445   1.868  0.2700  0.4882  0.3063
10047TIP3    H151632   6.600   1.359   1.858  1.4272 -0.0878  0.5574
10047TIP3    H251633   6.636   1.483   1.780 -2.2507  1.1344  0.5893
10048TIP3   OH251634   4.422   4.847   0.271 -0.2420  0.1287 -0.5680
10048TIP3    H151635   4.490   4.811   0.215 -0.2297  1.4585 -1.4426
10048TIP3    H251636   4.429   4.942   0.261 -0.8892  0.3703  0.9270
10049TIP3   OH251637   6.093   0.522   2.803 -0.1155  0.1064 -0.4157
10049TIP3    H151638   6.150   0.598   2.790  0.6865 -0.6138 -1.3006
10049TIP3    H251639   6.106   0.498   2.895  0.8023  0.1338 -0.5225
10050TIP3   OH251640   0.789   0.478   4.832 -0.1269  0.2741  0.5680
10050TIP3    H151641   0.767   0.444   4.745 -1.0170 -0.6034  1.1227
10050TIP3    H251642   0.716   0.536   4.854  0.1838  0.6356  0.6757
10051TIP3   OH251643   4.641   3.631   0.543 -0.4554 -0.2612 -0.1159
10051TIP3    H151644   4.653   3.666   0.631  0.1597  0.1515 -0.3561
10051TIP3    H251645   4.684   3.545   0.546 -0.6143 -0.3366  0.0415
10052TIP3   OH251646   2.489   6.782   3.346 -0.2414  0.4676  0.2101
10052TIP3    H151647   2.407   6.739   3.318 -0.3927  0.1732  1.0772
10052TIP3    H251648   2.472   6.810   3.436  0.1450  1.6430 -0.0635
10053TIP3   OH251649   1.514   6.069   6.593 -0.0005 -0.4427  0.2153
10053TIP3    H151650   1.545   6.128   6.663 -1.9947  0.8237  0.1339
10053TIP3    H251651   1.592   6.047   6.544  1.2987 -0.4218  2.1565
10054TIP3   OH251652   2.796   3.790   0.588  0.0586  0.2836  0.2037
10054TIP3    H151653   2.765   3.711   0.632  0.1366 -0.4883 -1.0721
10054TIP3    H251654   2.891   3.790   0.603  0.3999 -1.0447 -1.4864
10055TIP3   OH251655   1.020   2.736  14.640  0.1428  0.1915 -0.2801
10055TIP3    H151656   0.979   2.724  14.726 -1.4406 -4.1964 -1.3857
10055TIP3    H251657   1.105   2.774  14.660 -0.5763  0.4077  3.0937
10056TIP3   OH251658   6.542   5.620   5.016  0.7109  0.0178  0.2000
10056TIP3    H151659   6.516   5.548   4.959  0.5319  1.0075 -1.0013
10056TIP3    H251660   6.541   5.582   5.104 -2.6143 -0.6272  0.0053
10057TIP3   OH251661   4.726   4.067   2.157  0.5953  0.2470 -0.2364
10057TIP3    H151662   4.736   3.977   2.189 -0.1212 -0.3181 -1.5530
10057TIP3    H251663   4.802   4.114   2.194  0.8806 -0.8379  0.6036
10058TIP3   OH251664   2.916   3.974   0.132  0.4746 -0.1412  0.0230
10058TIP3    H151665   2.992   3.994   0.077 -0.1771 -0.3556 -0.9988
10058TIP3    H251666   2.949   3.978   0.221  1.7007 -0.2860 -0.4003
10059TIP3   OH251667   5.874   0.168   0.842  0.0101 -0.4202  0.4001
10059TIP3    H151668   5.841   0.189   0.929 -0.6736  0.2780 -0.0218
10059TIP3    H251669   5.805   0.196   0.782  0.3451 -1.1530 -0.3604
10060TIP3   OH251670   1.771   6.716  14.104 -0.6537  0.9806  0.1397
10060TIP3    H151671   1.686   6.673  14.114 -0.2173  0.3682  1.3963
10060TIP3    H251672   1.833   6.644  14.096 -0.2459  1.4276 -0.7969
10061TIP3   OH251673   0.360   3.373  13.543 -0.1932  0.5473 -0.1433
10061TIP3    H151674   0.370   3.464  13.573  1.0997  0.4078 -0.1049
10061TIP3    H251675   0.431   3.360  13.481 -0.8770 -0.1952 -0.7988
10062TIP3   OH251676   4.069   3.187   0.369 -0.2034 -0.0712  0.6270
10062TIP3    H151677   4.066   3.234   0.453  0.3576  1.5914 -0.2482
10062TIP3    H251678   4.136   3.120   0.382  3.7549  3.4024  0.0259
10063TIP3   OH251679   3.875   2.097   5.682  0.2535  0.3236 -0.4387
10063TIP3    H151680   3.837   2.134   5.762  0.0438  0.7457 -0.7346
10063TIP3    H251681   3.923   2.020   5.713 -0.1829  0.2327  0.0432
10064TIP3   OH251682   5.619   3.252  16.290 -0.2955 -0.5182  0.0165
10064TIP3    H151683   5.652   3.326  16.239 -2.2137  0.0945 -0.4046
10064TIP3    H251684   5.578   3.291  16.367 -0.1491 -1.2380  0.4715
10065TIP3   OH251685   5.111   0.389   3.593 -0.2307  0.2652 -0.0114
10065TIP3    H151686   5.159   0.449   3.536 -0.4382  0.8444  0.4103
10065TIP3    H251687   5.179   0.349   3.648 -0.3139  2.2866  1.7127
10066TIP3   OH251688   6.567   6.046   6.585 -0.1490 -0.5190  0.4520
10066TIP3    H151689   6.626   5.997   6.527  0.1885  0.2797  0.1112
10066TIP3    H251690   6.560   6.132   6.545 -3.3847 -1.2433 -0.7809
10067TIP3   OH251691   6.046   5.844  10.867  0.2755 -0.0635  0.5412
10067TIP3    H151692   6.003   5.783  10.808 -0.8730  0.9392  0.2908
10067TIP3    H251693   6.126   5.870  10.822  0.1566 -0.4476  0.1086
10068TIP3   OH251694   5.251   4.151  14.857 -0.1682 -0.3305  0.1510
10068TIP3    H151695   5.247   4.076  14.797 -1.1370  1.1998 -1.8611
10068TIP3    H251696   5.160   4.181  14.862 -0.0322 -0.1623  2.1210
10069TIP3   OH251697   2.825   1.610  15.535 -0.8448  0.4284 -0.2604
10069TIP3    H151698   2.894   1.544  15.535  0.8095  2.0744  0.7451
10069TIP3    H251699   2.795   1.614  15.444 -0.5961 -1.2753 -0.4458
10070TIP3   OH251700   1.994   5.715   5.216  0.4667 -0.3820  0.0315
10070TIP3    H151701   2.060   5.652   5.188 -0.6872 -1.3409 -0.6679
10070TIP3    H251702   1.917   5.662   5.235 -0.3698  0.7776  0.0038
10071TIP3   OH251703   0.446   5.798   3.966 -0.1383 -0.2671 -0.3126
10071TIP3    H151704   0.541   5.794   3.950  0.4281  4.3328  0.2738
10071TIP3    H251705   0.407   5.786   3.880  1.2316  0.3281 -1.0623
10072TIP3   OH251706   2.217   1.847  15.054 -0.4481 -0.2279 -0.2572
10072TIP3    H151707   2.295   1.869  15.002  0.4802 -2.3025  0.1349
10072TIP3    H251708   2.158   1.921  15.042  2.2975  2.3680  0.9137
10073TIP3   OH251709   1.744   5.284   3.401  0.3729  0.0103  0.6898
10073TIP3    H151710   1.784   5.239   3.475  0.3937 -1.6083 -0.2696
10073TIP3    H251711   1.815   5.291   3.336 -0.5577 -2.0964 -0.6780
10074TIP3   OH251712   6.752   5.161   3.103 -0.2766 -0.3214  0.1641
10074TIP3    H151713   6.713   5.120   3.180  1.5482 -2.0618  0.2551
10074TIP3    H251714   6.678   5.182   3.046 -1.5542 -0.2624  1.7723
10075TIP3   OH251715   1.737   6.525   0.312  0.1304 -0.3102 -0.1956
10075TIP3    H151716   1.775   6.580   0.244 -1.3645 -0.2578 -1.0479
10075TIP3    H251717   1.660   6.575   0.342 -1.0110 -1.7061 -0.6920
10076TIP3   OH251718   2.262   0.937   4.440 -0.2421  0.4647  0.1273
10076TIP3    H151719   2.336   0.957   4.382 -0.7452 -0.3648 -0.8396
10076TIP3    H251720   2.302   0.896   4.516  0.2918 -0.0910 -0.4380
10077TIP3   OH251721   2.203   4.481   2.112  0.6516 -0.1461 -0.8415
10077TIP3    H151722   2.290   4.496   2.149  0.2865  0.6453 -0.2796
10077TIP3    H251723   2.181   4.564   2.070 -0.6595  0.3692  0.7701
10078TIP3   OH251724   0.520   3.018   5.913  0.3424 -0.0944  0.2992
10078TIP3    H151725   0.498   3.029   6.006 -0.4669  0.1507  0.0836
10078TIP3    H251726   0.564   3.100   5.890  0.9401 -0.3341  0.5756
10079TIP3   OH251727   4.103   2.818   3.035  0.0409 -0.6357 -0.0169
10079TIP3    H151728   4.056   2.747   2.991  0.7668 -0.8955 -0.3946
10079TIP3    H251729   4.162   2.852   2.968 -2.0992  2.1163 -0.7180
10080TIP3   OH251730   6.181   3.073  11.422 -0.1498 -0.4464  0.3410
10080TIP3    H151731   6.192   3.142  11.487  1.7586  0.0729 -0.4493
10080TIP3    H251732   6.195   2.992  11.470  0.5601 -0.1117  0.7097
10081TIP3   OH251733   4.241   6.664   0.067 -0.3628 -0.6791  0.0066
10081TIP3    H151734   4.178   6.627   0.005  1.3668 -1.5480 -1.3383
10081TIP3    H251735   4.212   6.754   0.080 -2.8062 -1.4966  0.7692
10082TIP3   OH251736   4.314   2.116   3.493  0.1908  0.1419  0.0858
10082TIP3    H151737   4.385   2.179   3.481 -1.3094  1.5453 -2.3192
10082TIP3    H251738   4.235   2.166   3.474 -1.3640 -1.7031  1.3345
10083TIP3   OH251739   4.254   3.469   3.657  0.4155 -0.6221 -0.4642
10083TIP3    H151740   4.300   3.494   3.737  2.3756 -2.5987 -0.8909
10083TIP3    H251741   4.303   3.395   3.622 -1.2636 -0.8016 -2.7193
10084TIP3   OH251742   4.975   6.213   4.716 -0.1839  0.4345  0.6974
10084TIP3    H151743   4.920   6.147   4.759 -0.8731  0.6780  0.2004
10084TIP3    H251744   4.930   6.233   4.634  1.1985 -0.1562 -0.2563
10085TIP3   OH251745   1.463   0.304   5.310 -0.1438 -0.0824  0.0356
10085TIP3    H151746   1.438   0.263   5.227  0.4609  0.1723 -0.2788
10085TIP3    H251747   1.391   0.365   5.328 -1.4093 -1.7345  0.8733
10086TIP3   OH251748   1.392   0.663  16.469 -0.3523 -0.1855  0.7690
10086TIP3    H151749   1.414   0.756  16.474  2.0922 -0.6946  0.7749
10086TIP3    H251750   1.433   0.633  16.387  0.4820 -1.6134  1.6753
10087TIP3   OH251751   2.883   1.380  11.154  0.4081  0.4123  0.0370
10087TIP3    H151752   2.871   1.453  11.214  0.2802  1.2648 -1.0076
10087TIP3    H251753   2.817   1.316  11.180  1.4560  0.0162  1.8929
10088TIP3   OH251754   3.265   1.952  16.119  0.6759  0.4233 -0.1239
10088TIP3    H151755   3.250   1.955  16.214  1.5132  3.1747  0.0118
10088TIP3    H251756   3.180   1.926  16.082  0.2831 -0.5038  1.3304
10089TIP3   OH251757   2.540   2.940   1.607  0.5752  0.0823  0.4740
10089TIP3    H151758   2.618   2.996   1.608  0.4684  0.3231  3.6239
10089TIP3    H251759   2.473   2.992   1.651  0.0807 -1.9282  2.2316
10090TIP3   OH251760   4.615   5.715   1.888 -0.1291 -0.0586 -0.0242
10090TIP3    H151761   4.624   5.662   1.967 -0.8882 -0.4658 -0.1980
10090TIP3    H251762   4.522   5.710   1.866  0.0734  0.0263 -0.9588
10091TIP3   OH251763   1.860   5.810   0.105  0.4002  0.5925 -0.3028
10091TIP3    H151764   1.939   5.838   0.150  0.3756 -0.7324  0.6159
10091TIP3    H251765   1.882   5.725   0.068 -1.0906 -0.6663  1.5104
10092TIP3   OH251766   5.844   3.336   3.464  0.0081  0.2499 -0.3371
10092TIP3    H151767   5.909   3.267   3.477  1.7565  1.6680 -1.0745
10092TIP3    H251768   5.831   3.373   3.551 -0.0153 -0.2109 -0.1411
10093TIP3   OH251769   4.888   6.444   5.759  0.6053 -0.5900 -0.0720
10093TIP3    H151770   4.953   6.500   5.801  4.2877  0.6098 -6.0634
10093TIP3    H251771   4.827   6.505   5.719 -0.1927 -1.3656 -0.0543
10094TIP3   OH251772   6.318   1.819   4.193  0.8970  0.2581  0.0405
10094TIP3    H151773   6.371   1.741   4.177  0.2313 -0.6870  2.1021
10094TIP3    H251774   6.381   1.884   4.224  1.0467 -0.6043  1.6848
10095TIP3   OH251775   0.778   5.729  11.814  0.3691 -0.0763  0.3709
10095TIP3    H151776   0.697   5.704  11.771  1.2328 -1.8804 -0.2948
10095TIP3    H251777   0.817   5.794  11.755  0.0951 -0.2803 -0.0368
10096TIP3   OH251778   1.835   5.322  13.526 -0.4025 -0.3082 -0.4149
10096TIP3    H151779   1.808   5.265  13.598  0.6956  1.6671  1.7182
10096TIP3    H251780   1.931   5.319  13.527 -0.2823  1.7296  0.0183
10097TIP3   OH251781   3.055   1.390  10.942  0.0093  0.1497  0.1384
10097TIP3    H151782   2.998   1.387  11.019 -0.4939  1.3019 -0.1685
10097TIP3    H251783   3.032   1.312  10.892 -0.9029  0.3028  0.2965
10098TIP3   OH251784   4.904   5.946  11.169 -0.2169  0.6279 -0.1331
10098TIP3    H151785   4.999   5.951  11.157 -0.1452  2.7743  0.7833
10098TIP3    H251786   4.869   5.957  11.081  0.3699 -0.4215 -0.5123
10099TIP3   OH251787   1.700   4.565  12.394 -0.4686  0.5691 -0.0715
10099TIP3    H151788   1.672   4.596  12.308  0.9881  0.2197 -0.7169
10099TIP3    H251789   1.623   4.574  12.450 -1.3600  1.0844 -1.3382
10100TIP3   OH251790   0.647   3.372   0.697  0.1389 -0.0278  0.5569
10100TIP3    H151791   0.714   3.374   0.765 -0.3238 -1.4767  1.0902
10100TIP3    H251792   0.653   3.458   0.655  1.2428  0.4519  1.6325
10101TIP3   OH251793   3.149   3.337   3.722  0.1088 -0.0192 -0.2704
10101TIP3    H151794   3.062   3.376   3.733 -0.5083 -0.4021 -3.1214
10101TIP3    H251795   3.137   3.245   3.743  0.2875  0.2536  1.1063
10102TIP3   OH251796   1.113   6.219  16.285  0.1312  0.4719 -0.4251
10102TIP3    H151797   1.040   6.279  16.269 -0.4222  0.4962  1.9011
10102TIP3    H251798   1.095   6.181  16.370  2.1644 -0.5560 -0.3933
10103TIP3   OH251799   4.751   2.908   1.009  0.4794  0.0037 -0.4237
10103TIP3    H151800   4.755   2.935   1.101  0.7646  0.1887 -0.4890
10103TIP3    H251801   4.818   2.840   1.001  2.0749  1.5761 -1.0154
10104TIP3   OH251802   5.070   0.660   1.951 -0.2600 -0.2307 -0.0670
10104TIP3    H151803   5.157   0.634   1.920 -0.3625 -3.2793  1.8805
10104TIP3    H251804   5.087   0.730   2.014  0.6826 -0.1355 -0.4093
10105TIP3   OH251805   5.539   2.686   3.622  0.5076 -0.3971 -0.1979
10105TIP3    H151806   5.543   2.721   3.533 -0.2952  1.0798  0.3076
10105TIP3    H251807   5.587   2.750   3.675 -1.3255  0.1932  0.8219
10106TIP3   OH251808   6.781   1.305  10.451 -0.0578 -0.9301 -0.0014
10106TIP3    H151809   6.769   1.227  10.398  1.6545 -1.2924  0.1105
10106TIP3    H251810   6.861   1.289  10.502 -0.9644 -0.1065  1.8068
10107TIP3   OH251811   4.129   4.649  15.460 -0.3032  0.6228  0.4455
10107TIP3    H151812   4.191   4.603  15.516 -0.5088 -0.1497  0.0584
10107TIP3    H251813   4.159   4.740  15.460  1.1098  0.1964 -0.0797
10108TIP3   OH251814   1.664   4.762   0.137  0.1166  0.3802  0.6446
10108TIP3    H151815   1.689   4.670   0.126 -0.0217  0.3913  0.1822
10108TIP3    H251816   1.650   4.773   0.231  0.5482  0.0377  0.7476
10109TIP3   OH251817   3.106   2.581   4.295 -0.5261 -0.7496 -0.2658
10109TIP3    H151818   3.128   2.592   4.387  0.8518 -1.3609 -0.5036
10109TIP3    H251819   3.017   2.545   4.296 -1.6190  1.7142  0.7209
10110TIP3   OH251820   4.012   6.519  14.482 -0.2576  0.3790 -0.4033
10110TIP3    H151821   4.078   6.450  14.487 -0.2829  0.3699 -0.1468
10110TIP3    H251822   3.998   6.533  14.389 -0.5670 -0.2675 -0.4622
10111TIP3   OH251823   5.360   2.350   5.753 -0.2749 -0.6138  0.3609
10111TIP3    H151824   5.294   2.404   5.797  1.0725  0.0676  1.6177
10111TIP3    H251825   5.406   2.306   5.823  1.8121  0.3481 -0.3218
10112TIP3   OH251826   1.827   3.989  11.526  1.0261 -0.5334 -0.2166
10112TIP3    H151827   1.799   3.935  11.601  3.0260 -0.4892  0.6086
10112TIP3    H251828   1.862   4.068  11.566 -0.9229  1.0268 -1.3795
10113TIP3   OH251829   6.740   5.120  13.510 -0.0772  0.2427  0.1127
10113TIP3    H151830   6.726   5.025  13.503 -0.9755  0.3561  0.2145
10113TIP3    H251831   6.781   5.132  13.596 -1.0785  0.0415  0.6384
10114TIP3   OH251832   3.579   3.631  13.545 -0.8753 -0.3032 -0.3755
10114TIP3    H151833   3.663   3.618  13.588 -0.5375 -0.2613 -1.0152
10114TIP3    H251834   3.516   3.634  13.617 -0.3231 -0.2310  0.1151
10115TIP3   OH251835   2.476   5.483  12.087 -0.4546 -0.0373  0.5420
10115TIP3    H151836   2.491   5.422  12.160  0.1754 -2.1969 -1.2614
10115TIP3    H251837   2.564   5.504  12.056 -0.7337  0.1027 -0.1548
10116TIP3   OH251838   1.281   0.595  15.625  0.7217 -0.0385  1.1483
10116TIP3    H151839   1.290   0.501  15.608 -0.2965  0.1941 -0.9597
10116TIP3    H251840   1.310   0.637  15.544 -0.2862  1.4116  1.5068
10117TIP3   OH251841   4.800   6.473  14.988 -0.0960  0.0159  0.3188
10117TIP3    H151842   4.883   6.492  15.033 -1.3367  0.2803  2.6300
10117TIP3    H251843   4.783   6.381  15.007 -0.7428  0.1854  0.5848
10118TIP3   OH251844   5.159   1.177  12.554 -0.2463 -0.2188  0.1947
10118TIP3    H151845   5.207   1.233  12.615 -0.0355 -1.2517  1.0059
10118TIP3    H251846   5.192   1.201  12.467 -0.8181  1.5372  0.4219
10119TIP3   OH251847   0.811   1.810  11.437 -0.0095  0.2077  0.6538
10119TIP3    H151848   0.905   1.798  11.449 -0.0491  0.2483  1.0125
10119TIP3    H251849   0.779   1.836  11.523  0.2057  3.7375 -0.1821
10120TIP3   OH251850   4.050   4.724  12.209 -0.2908  0.2058  0.6738
10120TIP3    H151851   4.093   4.660  12.152  1.4620  1.3434  0.6344
10120TIP3    H251852   3.964   4.737  12.170 -0.4054 -1.5370  0.2600
10121TIP3   OH251853   4.735   0.327  14.015 -0.0788  0.3381 -0.5245
10121TIP3    H151854   4.815   0.354  14.062 -0.2728 -1.1379  0.7316
10121TIP3    H251855   4.765   0.259  13.955 -0.2773  0.3716 -0.6633
10122TIP3   OH251856   3.534   2.592  10.971 -0.0681  0.4420  0.3178
10122TIP3    H151857   3.489   2.674  10.991 -0.1908  0.4758 -0.0928
10122TIP3    H251858   3.615   2.620  10.929  0.0206  0.3585  0.4318
10123TIP3   OH251859   0.357   1.159  14.583 -0.0792 -0.3044 -0.4494
10123TIP3    H151860   0.287   1.107  14.622 -0.3858 -0.1851 -0.8236
10123TIP3    H251861   0.434   1.143  14.638 -0.8406  0.9722  1.0653
10124TIP3   OH251862   0.154   2.180  11.156 -0.4734  0.4168 -0.1860
10124TIP3    H151863   0.176   2.097  11.115 -0.4813 -0.0730  0.7756
10124TIP3    H251864   0.171   2.246  11.088  1.4838 -0.1756 -0.3244
10125TIP3   OH251865   6.701   5.869   2.644 -0.5438  0.4651  0.1475
10125TIP3    H151866   6.616   5.889   2.604 -0.0935  0.3520 -0.8787
10125TIP3    H251867   6.714   5.776   2.629  0.7944  0.9091 -1.7545
10126TIP3   OH251868   5.463   3.803  11.682  0.2204 -0.4088 -0.3122
10126TIP3    H151869   5.480   3.818  11.589  2.1622 -0.9406 -0.0872
10126TIP3    H251870   5.412   3.880  11.709 -1.5619 -0.8810 -2.0544
10127TIP3   OH251871   3.419   3.807  13.420 -0.3025 -0.2298 -0.2339
10127TIP3    H151872   3.334   3.762  13.419 -0.8345  0.4930  2.9990
10127TIP3    H251873   3.482   3.738  13.439 -0.6324 -0.2472  0.8530
10128TIP3   OH251874   2.172   5.222   1.947  0.6346  0.3914 -0.1813
10128TIP3    H151875   2.080   5.197   1.937  0.5521  0.6934 -0.2179
10128TIP3    H251876   2.179   5.252   2.038  0.5406  0.9638 -0.3542
10129TIP3   OH251877   5.928   1.205  16.636  0.0250 -0.0791  0.5639
10129TIP3    H151878   5.904   1.284  16.685  0.2967  0.5147 -0.2307
10129TIP3    H251879   5.993   1.235  16.572  1.2816 -1.2428  1.2397
10130TIP3   OH251880   1.313   2.077  14.688 -0.2286  0.1323  0.1746
10130TIP3    H151881   1.366   2.102  14.612  0.2093  0.0114  0.4396
10130TIP3    H251882   1.254   2.009  14.655 -1.0690  1.1103 -0.4236
10131TIP3   OH251883   3.395   2.721   1.881  0.2640 -0.3657 -0.0981
10131TIP3    H151884   3.446   2.641   1.896  3.3331  1.7511  2.0567
10131TIP3    H251885   3.336   2.727   1.956 -0.0562 -0.6282 -0.3243
10132TIP3   OH251886   5.379   4.734  11.358  0.2788  0.1986 -0.2444
10132TIP3    H151887   5.475   4.728  11.359  0.4018  1.6456 -0.4198
10132TIP3    H251888   5.349   4.654  11.400  1.4770 -1.6183 -2.5988
10133TIP3   OH251889   3.737   5.787  11.901  0.0327 -0.0216  0.0173
10133TIP3    H151890   3.661   5.844  11.887 -0.1026 -0.2163 -0.0480
10133TIP3    H251891   3.802   5.820  11.839 -0.5090 -0.7771 -1.0048
10134TIP3   OH251892   0.671   4.426   3.455  0.5330 -0.2842  0.4512
10134TIP3    H151893   0.674   4.428   3.359  0.0142 -0.1165  0.4311
10134TIP3    H251894   0.724   4.501   3.482  2.1682 -1.3643  0.3506
10135TIP3   OH251895   3.567   5.854  17.039  0.1077 -0.3035 -0.6705
10135TIP3    H151896   3.577   5.844  17.134  0.5051 -0.3112 -0.7142
10135TIP3    H251897   3.472   5.862  17.026  0.1266  1.2334 -0.1129
10136TIP3   OH251898   6.442   5.902  14.408  0.1966 -0.3125 -0.4340
10136TIP3    H151899   6.452   5.863  14.495  1.1357 -0.3496 -0.5406
10136TIP3    H251900   6.373   5.967  14.418 -2.1924 -2.6776 -0.4886
10137TIP3   OH251901   3.796   1.610  16.571 -0.4783  0.0900 -0.0336
10137TIP3    H151902   3.752   1.638  16.651 -2.3685  1.2741 -1.4205
10137TIP3    H251903   3.820   1.692  16.527 -0.5801 -0.5242 -1.2658
10138TIP3   OH251904   5.805   0.581   2.754 -0.3287  0.3021  0.0316
10138TIP3    H151905   5.754   0.500   2.754 -2.0860  1.3640 -0.5504
10138TIP3    H251906   5.890   0.556   2.791 -0.2031 -2.1696 -1.7272
10139TIP3   OH251907   4.728   1.825   2.362 -0.0073  0.0163  0.3501
10139TIP3    H151908   4.715   1.750   2.305  0.1708 -0.9396  1.5421
10139TIP3    H251909   4.796   1.798   2.423 -1.1567  0.4737  1.9064
10140TIP3   OH251910   5.762   1.938   0.678  0.3220  0.6733 -0.5381
10140TIP3    H151911   5.809   1.999   0.735  0.4647  1.2952 -1.3057
10140TIP3    H251912   5.774   1.973   0.590 -1.5084  0.8109 -0.7763
10141TIP3   OH251913   2.866   5.026   3.366 -0.0183 -0.3469 -0.2157
10141TIP3    H151914   2.931   5.032   3.435  1.8465  2.1050 -2.0139
10141TIP3    H251915   2.908   4.974   3.297  0.1284  1.2609 -1.3952
10142TIP3   OH251916   1.498   2.822  10.712 -0.3008 -0.0187  0.3375
10142TIP3    H151917   1.405   2.801  10.722 -0.6049  1.4575  0.7832
10142TIP3    H251918   1.512   2.896  10.771  1.0057  0.2037 -0.2340
10143TIP3   OH251919   5.065   2.849  12.671 -0.8375 -0.3245 -0.2125
10143TIP3    H151920   5.022   2.933  12.653  1.5153  0.3829 -3.2534
10143TIP3    H251921   5.036   2.792  12.600  0.3976 -0.9411 -0.2421
10144TIP3   OH251922   3.790   2.222  13.110  0.1785  0.3649 -0.4194
10144TIP3    H151923   3.885   2.216  13.107  0.3170  1.7147  0.4712
10144TIP3    H251924   3.762   2.141  13.153  0.7916 -0.7049 -1.9411
10145TIP3   OH251925   0.891   2.702   0.187  0.3154 -0.0267  0.2666
10145TIP3    H151926   0.848   2.629   0.232 -0.6392  0.1618 -0.3152
10145TIP3    H251927   0.880   2.776   0.246 -0.9500  0.2239 -0.2512
10146TIP3   OH251928   0.718   6.487   6.862  0.1061 -0.3864 -0.2130
10146TIP3    H151929   0.781   6.514   6.929  1.2195  1.4539 -1.8624
10146TIP3    H251930   0.771   6.439   6.798 -0.5443 -0.4544 -0.7088
10147TIP3   OH251931   4.740   2.331   1.536  0.3212 -0.0542  0.2168
10147TIP3    H151932   4.734   2.238   1.557 -1.7000 -0.2332 -0.9478
10147TIP3    H251933   4.713   2.375   1.617 -0.0322 -0.5293  0.3653
10148TIP3   OH251934   2.749   2.816  12.948 -0.0666 -0.2960  0.0431
10148TIP3    H151935   2.698   2.884  12.904 -3.1288 -2.1225  0.4861
10148TIP3    H251936   2.766   2.751  12.880 -0.1699 -0.6548  0.3534
10149TIP3   OH251937   4.206   5.041   4.133  0.7267  0.2949  0.5411
10149TIP3    H151938   4.173   5.086   4.212  0.2573  0.9041  0.0115
10149TIP3    H251939   4.217   5.111   4.069 -0.7325 -0.4290 -0.5533
10150TIP3   OH251940   6.580   2.660   1.930  0.4318 -0.3569 -0.0365
10150TIP3    H151941   6.508   2.666   1.992 -0.5958 -0.7262 -1.1558
10150TIP3    H251942   6.576   2.741   1.880  1.0305 -0.2180  0.1290
10151TIP3   OH251943   0.259   5.199  12.574 -0.1631  0.2666  0.7141
10151TIP3    H151944   0.261   5.253  12.653 -0.4507 -0.0667  0.9538
10151TIP3    H251945   0.256   5.262  12.502 -0.9658  0.5707  1.0047
10152TIP3   OH251946   2.602   6.617  15.898 -0.1799  0.1883 -0.6707
10152TIP3    H151947   2.616   6.602  15.804 -1.6562  1.4362 -1.1148
10152TIP3    H251948   2.601   6.712  15.907 -0.6305  0.0796  0.5322
10153TIP3   OH251949   0.857   5.137  13.876  0.0855 -0.0177 -0.1742
10153TIP3    H151950   0.793   5.073  13.906 -0.4831  1.1922  1.3259
10153TIP3    H251951   0.807   5.198  13.821  0.2043  0.2189 -0.0252
10154TIP3   OH251952   5.221   6.353  14.627 -0.0861 -0.2942 -0.2897
10154TIP3    H151953   5.169   6.304  14.562  0.5972 -1.4372 -0.0143
10154TIP3    H251954   5.179   6.438  14.632 -1.0746 -0.7064 -1.1204
10155TIP3   OH251955   1.688   5.452  10.810  0.7820  0.3146 -0.4757
10155TIP3    H151956   1.672   5.494  10.726  0.3484  1.9384  0.3744
10155TIP3    H251957   1.771   5.488  10.841  0.3272  0.7042  0.3413
10156TIP3   OH251958   6.743   6.643  17.026  0.2294  0.2204  0.0631
10156TIP3    H151959   6.721   6.578  16.959 -2.8559 -0.1720  1.2756
10156TIP3    H251960   6.723   6.727  16.986  0.0585  0.0954 -0.1161
10157TIP3   OH251961   3.445   0.744   1.701 -0.0689 -0.3944 -0.0260
10157TIP3    H151962   3.357   0.714   1.722 -0.1051 -0.5940 -0.4541
10157TIP3    H251963   3.454   0.828   1.747 -0.2267 -0.7091  0.5863
10158TIP3   OH251964   6.543   2.330   0.553 -0.3375 -0.3973  0.3056
10158TIP3    H151965   6.561   2.364   0.466 -0.0504  0.5596  0.7279
10158TIP3    H251966   6.460   2.284   0.544 -1.1200  1.0374 -0.1275
10159TIP3   OH251967   2.102   6.001   5.726 -0.0886  0.3733 -0.2874
10159TIP3    H151968   2.140   6.038   5.646 -0.6472 -0.8680 -1.1465
10159TIP3    H251969   2.172   5.949   5.764  0.9097  2.6450  1.2546
10160TIP3   OH251970   1.899   6.188  10.911 -0.3567  0.0683  0.5283
10160TIP3    H151971   1.882   6.161  11.001 -0.4194  0.1586  0.5447
10160TIP3    H251972   1.886   6.283  10.912  0.6905  0.2163  0.6614
10161TIP3   OH251973   3.419   3.648   3.642 -0.3075  0.1023 -0.4434
10161TIP3    H151974   3.387   3.690   3.563  1.6424 -1.3158 -2.1053
10161TIP3    H251975   3.493   3.702   3.670  0.0084 -0.2673 -0.5490
10162TIP3   OH251976   1.117   5.762  13.473  0.0065  0.0327 -0.2091
10162TIP3    H151977   1.122   5.676  13.515  3.3191 -0.3582 -1.1287
10162TIP3    H251978   1.070   5.746  13.392  0.8335 -1.0122 -0.5068
10163TIP3   OH251979   1.419   1.791  11.822  0.2312 -0.0874  0.4718
10163TIP3    H151980   1.475   1.771  11.897  0.4141 -0.8898  0.1308
10163TIP3    H251981   1.429   1.716  11.763  0.7556  0.8967 -0.7520
10164TIP3   OH251982   5.305   1.245   2.001  0.1631  0.2132  0.1063
10164TIP3    H151983   5.251   1.178   1.959  0.2325  0.3400 -0.1881
10164TIP3    H251984   5.374   1.197   2.045 -1.4798 -0.1542  2.4842
10165TIP3   OH251985   2.057   4.849   5.518  0.5587 -0.0686 -0.0030
10165TIP3    H151986   2.055   4.865   5.424  1.7845 -1.2367 -0.2521
10165TIP3    H251987   1.978   4.893   5.551  0.7098  1.3354 -1.3970
10166TIP3   OH251988   6.747   5.905   0.210 -0.0081 -0.1204  0.2303
10166TIP3    H151989   6.835   5.887   0.244 -1.4949 -3.1152  3.0164
10166TIP3    H251990   6.709   5.968   0.272  0.0293  0.9956 -0.8396
10167TIP3   OH251991   0.341   3.377  14.094  0.3152  0.7037  0.0492
10167TIP3    H151992   0.393   3.452  14.064  0.6825 -0.4213 -2.3349
10167TIP3    H251993   0.251   3.409  14.092  0.4558  1.0955 -1.0497
10168TIP3   OH251994   0.969   5.676  17.156  0.3859 -0.3190 -0.1881
10168TIP3    H151995   1.045   5.728  17.179 -1.1754  1.1985  2.0179
10168TIP3    H251996   1.004   5.590  17.132  2.8596  0.8966 -1.2007
10169TIP3   OH251997   1.259   0.961   2.191  0.0357  0.3931  0.0798
10169TIP3    H151998   1.281   0.871   2.167  0.6517  0.6494 -0.3528
10169TIP3    H251999   1.342   0.999   2.220  0.2116  1.3778 -1.5688
10170TIP3   OH252000   0.151   4.224   0.431 -0.3138 -0.2188  0.5497
10170TIP3    H152001   0.223   4.285   0.446 -0.7419  0.2905  0.5877
10170TIP3    H252002   0.075   4.281   0.414 -0.7707 -0.7370  0.8298
10171TIP3   OH252003   5.390   3.219  16.772  0.3556  0.1386  0.6212
10171TIP3    H152004   5.401   3.124  16.781  0.0502 -0.0444 -0.7915
10171TIP3    H252005   5.477   3.252  16.749  0.4835  0.2217  1.2107
10172TIP3   OH252006   4.522   2.625   1.926 -0.1332  0.0047 -0.0402
10172TIP3    H152007   4.451   2.578   1.969  1.0461 -3.2311 -1.3417
10172TIP3    H252008   4.481   2.666   1.850 -0.9221 -0.3095  0.2040
10173TIP3   OH252009   1.863   6.414  11.989  0.3484  0.1748 -0.0394
10173TIP3    H152010   1.867   6.347  12.057 -1.4753 -0.1606 -0.1959
10173TIP3    H252011   1.848   6.496  12.036  1.6668  0.3497  0.0977
10174TIP3   OH252012   4.954   4.061   5.445 -0.1820  0.0463 -0.1758
10174TIP3    H152013   5.035   4.057   5.393  0.6845  0.7380  1.0742
10174TIP3    H252014   4.943   3.972   5.480  0.0718 -0.0296 -0.2876
10175TIP3   OH252015   6.699   2.900  14.250 -0.0238  0.6846  0.3311
10175TIP3    H152016   6.709   2.810  14.221  0.7376  1.2831 -1.4188
10175TIP3    H252017   6.742   2.903  14.336 -1.0501 -0.8376  0.9365
10176TIP3   OH252018   2.200   3.166  15.601 -0.3301  0.6457 -0.0695
10176TIP3    H152019   2.254   3.163  15.679 -0.0779  1.9357 -0.1699
10176TIP3    H252020   2.116   3.128  15.628  0.1882 -0.1777  0.4299
10177TIP3   OH252021   2.711   3.176  16.195 -0.0102 -0.5088 -0.3831
10177TIP3    H152022   2.737   3.099  16.246 -0.3978 -1.8524 -2.1399
10177TIP3    H252023   2.623   3.157  16.165 -0.5739  1.1607  0.0947
10178TIP3   OH252024   5.576   3.914   6.547 -0.1276 -0.7627 -0.1595
10178TIP3    H152025   5.541   3.897   6.460  0.1432 -2.1245 -0.0367
10178TIP3    H252026   5.499   3.940   6.599 -0.0762  1.3793 -1.0834
10179TIP3   OH252027   5.765   3.750   3.545 -0.0229 -0.3955 -0.2246
10179TIP3    H152028   5.730   3.801   3.618 -2.0017 -1.9171 -0.0455
10179TIP3    H252029   5.837   3.700   3.584 -0.8037 -0.9010  0.6123
10180TIP3   OH252030   6.329   4.511   2.204 -0.1641 -0.4222 -0.3442
10180TIP3    H152031   6.233   4.515   2.206 -0.1528  3.2419 -0.3442
10180TIP3    H252032   6.351   4.503   2.111 -0.5279  1.3983 -0.6200
10181TIP3   OH252033   6.715   5.191  13.028  0.0923  0.7887  0.1759
10181TIP3    H152034   6.730   5.188  12.934  1.1820 -1.2251  0.3674
10181TIP3    H252035   6.624   5.218  13.037 -0.6805 -1.0170 -1.5521
10182TIP3   OH252036   1.753   3.938  14.121 -0.2281  0.1949  0.1264
10182TIP3    H152037   1.676   3.944  14.178 -0.6057 -0.3550 -0.3234
10182TIP3    H252038   1.821   3.901  14.177 -0.4874  0.0306  0.3353
10183TIP3   OH252039   4.341   6.224   1.082  0.4959 -0.2501 -0.3851
10183TIP3    H152040   4.290   6.226   1.002 -0.6616  1.4752  0.3381
10183TIP3    H252041   4.287   6.175   1.144  0.8281 -0.5186 -0.3034
10184TIP3   OH252042   6.359   4.731   3.121  0.6715  0.1290  0.2477
10184TIP3    H152043   6.305   4.807   3.145 -0.0385  0.0194 -0.9015
10184TIP3    H252044   6.367   4.681   3.202  1.1965  1.4407  1.0440
10185TIP3   OH252045   4.297   2.034   2.458 -0.7087  0.0162  0.1596
10185TIP3    H152046   4.202   2.028   2.460 -0.7383  0.4278  0.0902
10185TIP3    H252047   4.327   1.945   2.477 -1.1156 -0.9091 -2.9537
10186TIP3   OH252048   1.893   6.138   0.483  0.5617 -0.0482  0.1221
10186TIP3    H152049   1.853   6.218   0.450 -2.8182 -0.7253  2.1011
10186TIP3    H252050   1.924   6.161   0.570  0.8181 -0.5447  0.1668
10187TIP3   OH252051   5.891   2.320  11.537  0.3698  0.3344  0.1884
10187TIP3    H152052   5.848   2.372  11.605  0.3353  2.6053 -1.4409
10187TIP3    H252053   5.985   2.335  11.550  0.6681 -2.5356  2.1466
10188TIP3   OH252054   2.456   1.183  14.945  0.3082  0.0719  0.0763
10188TIP3    H152055   2.473   1.257  15.004  0.6902  0.9014 -1.0293
10188TIP3    H252056   2.523   1.118  14.967  0.1929  0.2009  0.8176
10189TIP3   OH252057   3.467   6.490  14.894 -0.2163 -0.0017  0.2132
10189TIP3    H152058   3.380   6.483  14.854 -0.2055 -0.7029  0.2997
10189TIP3    H252059   3.527   6.504  14.820 -0.3631  0.1487  0.1231
10190TIP3   OH252060   6.630   0.934   0.617 -0.0022 -0.3031 -0.2343
10190TIP3    H152061   6.700   0.989   0.581 -0.8723  2.0101  1.4063
10190TIP3    H252062   6.549   0.972   0.580 -0.6010 -0.7040  0.6432
10191TIP3   OH252063   1.951   1.845   0.852  0.4931  0.3512 -0.9233
10191TIP3    H152064   1.905   1.928   0.850 -1.0296 -0.4373 -0.3234
10191TIP3    H252065   2.038   1.866   0.886 -0.4149  1.4556  0.8392
10192TIP3   OH252066   0.837   2.335   0.793 -0.5174  0.4079  0.5231
10192TIP3    H152067   0.835   2.285   0.874  0.6175 -1.9172 -0.7933
10192TIP3    H252068   0.798   2.277   0.727 -0.3841  1.7856 -0.8409
10193TIP3   OH252069   3.048   0.004   5.898 -0.3638  0.0272 -0.2288
10193TIP3    H152070   3.112   0.043   5.958 -0.2676  1.8476 -1.4244
10193TIP3    H252071   2.964   0.034   5.931 -0.3899  0.0815 -0.3451
10194TIP3   OH252072   4.526   4.587  14.300 -0.2100  0.1242  0.0329
10194TIP3    H152073   4.597   4.552  14.353 -0.3464  0.5300  0.4968
10194TIP3    H252074   4.455   4.523  14.310  0.3129 -0.6637 -1.0255
10195TIP3   OH252075   5.020   2.814   0.838 -0.1266 -0.0530 -0.4354
10195TIP3    H152076   5.052   2.830   0.927 -0.7188  0.5129 -0.3118
10195TIP3    H252077   5.054   2.888   0.787 -1.8891  1.0438 -0.1203
10196TIP3   OH252078   2.247   3.482  16.773 -0.4351 -0.2658 -0.5309
10196TIP3    H152079   2.156   3.484  16.741 -0.6346 -0.4822  0.0184
10196TIP3    H252080   2.244   3.428  16.851 -0.0578  0.7184  0.1882
10197TIP3   OH252081   4.978   5.286   0.133  0.2669  0.0535  0.4901
10197TIP3    H152082   4.931   5.336   0.067 -0.1298  0.7791  1.3039
10197TIP3    H252083   4.909   5.238   0.180  0.5442 -0.4514  0.3954
10198TIP3   OH252084   4.783   6.065  11.393  0.0578 -0.6508 -0.3288
10198TIP3    H152085   4.855   6.037  11.336  0.6475 -1.1844  0.6497
10198TIP3    H252086   4.763   5.989  11.447 -0.5441 -0.1864  0.1304
10199TIP3   OH252087   4.664   1.779  14.203  0.3297  0.6860 -1.0479
10199TIP3    H152088   4.637   1.692  14.231  0.6297  0.8480 -0.2424
10199TIP3    H252089   4.630   1.838  14.270  0.7144  1.1206 -1.2257
10200TIP3   OH252090   1.916   0.448   5.160  0.0390 -0.4139 -0.2446
10200TIP3    H152091   1.851   0.518   5.162  1.4033  0.9679 -1.6501
10200TIP3    H252092   1.872   0.374   5.203 -2.1355  0.6998 -0.3855
10201TIP3   OH252093   4.454   5.704  12.748 -0.2670 -0.7480 -0.2761
10201TIP3    H152094   4.502   5.668  12.823 -0.5934  0.3625  0.5027
10201TIP3    H252095   4.445   5.631  12.687  0.9105 -1.4067  0.3189
10202TIP3   OH252096   4.432   0.479  14.705  0.3144  0.2555 -0.3686
10202TIP3    H152097   4.375   0.402  14.701  1.4260 -0.5462 -1.1896
10202TIP3    H252098   4.514   0.451  14.664  1.2395  1.4456  0.5927
10203TIP3   OH252099   1.691   1.692   6.205  0.8461  0.3520  0.1428
10203TIP3    H152100   1.702   1.677   6.299  1.6590  1.2184  0.1994
10203TIP3    H252101   1.690   1.604   6.167  2.1165  0.0240  0.7920
10204TIP3   OH252102   2.967   6.075   3.653  0.1998  0.1837 -0.3383
10204TIP3    H152103   2.926   6.001   3.698 -0.3857  0.7454  0.0701
10204TIP3    H252104   3.044   6.095   3.706  0.8982 -0.7212 -0.9740
10205TIP3   OH252105   0.331   6.203   5.616  0.2296  0.1307  0.1670
10205TIP3    H152106   0.391   6.259   5.666 -0.9261  1.9875 -0.4048
10205TIP3    H252107   0.294   6.144   5.681  0.6020  0.8427  1.0565
10206TIP3   OH252108   6.078   3.313   4.341  0.4633  0.0013 -0.3503
10206TIP3    H152109   6.035   3.230   4.362 -0.8131  0.6659 -0.2705
10206TIP3    H252110   6.022   3.380   4.378  0.5681  0.9968 -1.8826
10207TIP3   OH252111   5.905   3.505   4.487  0.2406 -0.0997  0.2120
10207TIP3    H152112   5.933   3.572   4.425  2.0281 -0.3681  0.6743
10207TIP3    H252113   5.809   3.505   4.480  0.2663  1.5055 -0.8090
10208TIP3   OH252114   4.187   5.562  14.177 -0.0174  0.4844 -0.0034
10208TIP3    H152115   4.164   5.651  14.152  0.8735  0.3383 -1.4287
10208TIP3    H252116   4.108   5.511  14.161  0.3330  0.5069 -2.0633
10209TIP3   OH252117   1.471   4.840   3.750 -1.2553 -0.3642  0.6233
10209TIP3    H152118   1.434   4.867   3.835  0.0759 -0.4183  1.2521
10209TIP3    H252119   1.445   4.749   3.741 -0.2895 -0.7733  1.6511
10210TIP3   OH252120   2.761   1.322   5.979 -0.7075 -0.6143  0.1009
10210TIP3    H152121   2.798   1.266   6.048 -1.2181  0.1566  1.0231
10210TIP3    H252122   2.678   1.280   5.957 -2.1415  0.8388  2.3138
10211TIP3   OH252123   3.880   4.401  17.105 -0.4445  0.2640 -0.1009
10211TIP3    H152124   3.865   4.306  17.107 -0.5264  0.2774 -0.0918
10211TIP3    H252125   3.828   4.432  17.031 -0.7748  0.3622  0.1668
10212TIP3   OH252126   1.092   2.526  13.224  0.1320 -0.0108 -0.0036
10212TIP3    H152127   1.015   2.479  13.191 -0.2277  0.6781 -0.1644
10212TIP3    H252128   1.157   2.516  13.155 -0.1406  0.2158 -0.2991
10213TIP3   OH252129   2.693   4.659  12.487 -0.1767  0.7572  0.7771
10213TIP3    H152130   2.643   4.646  12.568 -0.4060  1.2978  0.7281
10213TIP3    H252131   2.784   4.655  12.514 -0.2394  1.9982  1.2583
10214TIP3   OH252132   6.717   6.149   4.448  0.4331 -0.1978  0.3353
10214TIP3    H152133   6.751   6.116   4.532 -1.0861  1.2014  1.5876
10214TIP3    H252134   6.765   6.230   4.433  0.3751 -0.2076  0.0916
10215TIP3   OH252135   6.697   0.375   3.964 -0.5597  0.1017 -0.6391
10215TIP3    H152136   6.678   0.410   4.051 -0.8788  2.4483 -1.5714
10215TIP3    H252137   6.716   0.282   3.979 -1.5734  0.2014  1.7811
10216TIP3   OH252138   5.390   6.054   1.388 -0.7856 -0.6652 -0.1911
10216TIP3    H152139   5.303   6.014   1.394 -1.2159  0.3880  1.1646
10216TIP3    H252140   5.448   5.990   1.430 -1.3791 -0.1566  1.4705
10217TIP3   OH252141   3.743   3.192  12.665 -0.4769  0.1704 -0.4467
10217TIP3    H152142   3.719   3.165  12.753 -2.3639  1.3403 -0.5501
10217TIP3    H252143   3.717   3.118  12.609  1.1689 -0.7785 -0.0301
10218TIP3   OH252144   6.657   2.266  10.565  0.1363  0.7879 -0.5548
10218TIP3    H152145   6.630   2.355  10.541  0.2950  0.9856 -0.0126
10218TIP3    H252146   6.591   2.237  10.628  0.7174  0.9489  0.1301
10219TIP3   OH252147   1.243   6.769   4.455  0.6112 -0.2669 -0.4232
10219TIP3    H152148   1.167   6.711   4.448  1.2930 -1.0725 -1.4609
10219TIP3    H252149   1.298   6.729   4.521 -0.9652  1.6775  2.2501
10220TIP3   OH252150   1.837   0.923  13.304  0.3179 -0.6273  0.2289
10220TIP3    H152151   1.792   0.856  13.356  0.2331 -0.5531  0.2508
10220TIP3    H252152   1.917   0.880  13.274  0.5187 -0.5694  0.6762
10221TIP3   OH252153   0.846   3.671  15.494  0.9740  1.1400  0.5235
10221TIP3    H152154   0.884   3.672  15.582 -0.4368  1.4454  1.1541
10221TIP3    H252155   0.920   3.654  15.436  1.4936 -2.5908  2.0123
10222TIP3   OH252156   2.965   0.697   2.794 -0.2859 -0.1856 -0.1398
10222TIP3    H152157   2.952   0.678   2.886  1.2502  0.6497  0.2856
10222TIP3    H252158   3.054   0.730   2.788  0.5737 -2.5104 -2.2955
10223TIP3   OH252159   4.228   1.822   0.185 -0.0039  0.2700 -0.2605
10223TIP3    H152160   4.319   1.794   0.175  0.3880  1.8340 -1.6908
10223TIP3    H252161   4.229   1.882   0.260 -0.2359 -1.0436  0.8288
10224TIP3   OH252162   1.470   4.898  10.813 -0.2245 -0.5119 -0.0186
10224TIP3    H152163   1.464   4.888  10.718  1.3745  1.0894 -0.3457
10224TIP3    H252164   1.563   4.913  10.830 -0.7801  2.0280  1.4432
10225TIP3   OH252165   4.435   2.020   0.420  0.3438 -0.1486  0.0911
10225TIP3    H152166   4.448   1.944   0.477  1.8209  0.3627  0.4683
10225TIP3    H252167   4.508   2.018   0.359 -0.5734 -0.0118 -1.0424
10226TIP3   OH252168   3.860   0.342  17.025 -0.3207 -0.1951  0.0060
10226TIP3    H152169   3.800   0.301  16.963 -0.2737 -0.0174 -0.1557
10226TIP3    H252170   3.804   0.363  17.101 -0.2303 -1.0798  0.3311
10227TIP3   OH252171   4.046   5.499  16.946  0.3830  0.0833 -0.4770
10227TIP3    H152172   3.973   5.437  16.948  1.0507 -0.7201  1.4105
10227TIP3    H252173   4.107   5.467  17.012  1.6351  1.7310 -0.7524
10228TIP3   OH252174   5.323   4.994  13.911  0.1175  0.2339  0.4204
10228TIP3    H152175   5.409   4.953  13.917 -1.0117 -2.1164  4.2270
10228TIP3    H252176   5.280   4.950  13.838  2.1266  1.7670 -1.8331
10229TIP3   OH252177   6.621   0.127   0.370  0.1932 -0.2543 -0.1566
10229TIP3    H152178   6.682   0.103   0.300  0.1390 -0.2653 -0.2001
10229TIP3    H252179   6.541   0.078   0.350  0.1357 -0.1604 -0.1569
10230TIP3   OH252180   5.419   6.151   3.742  0.0597 -0.3684 -0.0875
10230TIP3    H152181   5.457   6.193   3.819 -0.8249  1.3852 -0.5649
10230TIP3    H252182   5.325   6.167   3.749 -0.4849 -3.0562  0.1267
10231TIP3   OH252183   6.459   0.764  15.006 -0.3380 -0.0147 -0.4367
10231TIP3    H152184   6.450   0.793  15.097  0.0634 -0.7268 -0.1609
10231TIP3    H252185   6.466   0.845  14.956 -0.1011  0.3808  0.2236
10232TIP3   OH252186   1.219   1.464   0.489  0.4482  0.0580  0.2814
10232TIP3    H152187   1.142   1.423   0.449  1.6960 -2.2915  0.1026
10232TIP3    H252188   1.270   1.497   0.415 -0.6079  2.1888  0.4308
10233TIP3   OH252189   1.299   4.654   0.816  0.5639 -0.0514 -0.2757
10233TIP3    H152190   1.348   4.594   0.872  0.8698 -1.1104 -1.6383
10233TIP3    H252191   1.354   4.732   0.811  0.0116  0.5469  1.7761
10234TIP3   OH252192   1.492   5.194   1.773 -0.1219 -0.5500 -0.6475
10234TIP3    H152193   1.438   5.120   1.797  0.7404 -0.3776  2.2257
10234TIP3    H252194   1.435   5.270   1.784  0.5975 -0.3514  2.5573
10235TIP3   OH252195   3.607   2.406   4.367 -0.2983  0.0524  0.3398
10235TIP3    H152196   3.593   2.320   4.327 -2.0911  0.2224  0.5110
10235TIP3    H252197   3.701   2.408   4.388 -0.2295 -1.8935  0.4209
10236TIP3   OH252198   2.283   3.538   1.265  0.2748  0.3285  0.3953
10236TIP3    H152199   2.206   3.511   1.315 -0.1266  1.7888  0.6175
10236TIP3    H252200   2.322   3.608   1.317  1.4417 -0.0130  0.0044
10237TIP3   OH252201   0.217   3.010  16.384 -0.1648  0.2791 -0.7438
10237TIP3    H152202   0.264   2.941  16.430  0.2386  1.2788  0.3820
10237TIP3    H252203   0.283   3.053  16.331 -0.5584 -0.6328 -2.0377
10238TIP3   OH252204   0.377   4.245   6.357  0.2511 -0.5878  0.2642
10238TIP3    H152205   0.455   4.298   6.375 -1.3753  1.1264  2.8043
10238TIP3    H252206   0.325   4.250   6.437 -1.2511 -3.9436 -0.3347
10239TIP3   OH252207   4.782   6.055  10.898 -0.0449 -0.4099 -0.1419
10239TIP3    H152208   4.864   6.025  10.859 -0.3581 -0.4745 -0.7600
10239TIP3    H252209   4.718   6.048  10.827 -0.3609  0.6569  0.0254
10240TIP3   OH252210   3.267   1.575   1.764 -0.1732  0.2193 -0.4073
10240TIP3    H152211   3.348   1.618   1.737  0.4379  0.5743  1.7518
10240TIP3    H252212   3.281   1.482   1.743 -0.1326  0.5775 -2.0512
10241TIP3   OH252213   1.527   2.761  15.686  0.0823 -0.6276 -0.0820
10241TIP3    H152214   1.481   2.794  15.609  0.0905 -1.8816 -0.6582
10241TIP3    H252215   1.472   2.689  15.717  0.8352 -1.0987  0.1859
10242TIP3   OH252216   2.919   2.033  12.552  0.4745  0.4812  0.0432
10242TIP3    H152217   2.877   1.981  12.620  0.3681  0.7290  0.1691
10242TIP3    H252218   2.929   1.973  12.478 -1.7272  0.8744 -0.6471
10243TIP3   OH252219   4.839   1.522   6.057  0.1064 -0.2074  0.3413
10243TIP3    H152220   4.763   1.579   6.050  0.1369 -0.0731  0.9854
10243TIP3    H252221   4.806   1.443   6.100  0.1289 -0.5549 -0.2683
10244TIP3   OH252222   1.887   0.278  13.680  0.6198  0.6166  0.1472
10244TIP3    H152223   1.933   0.362  13.677  2.8824 -0.4158  1.9361
10244TIP3    H252224   1.955   0.215  13.706 -1.5024 -1.3294  1.3802
10245TIP3   OH252225   0.411   3.411  14.569 -0.2364  0.0745  0.6542
10245TIP3    H152226   0.413   3.331  14.516  0.3568  0.4172  0.1474
10245TIP3    H252227   0.441   3.480  14.510  1.4300  0.3084  1.7026
10246TIP3   OH252228   5.914   1.300   0.099 -0.2292  0.4236  0.4136
10246TIP3    H152229   5.832   1.348   0.113 -0.6846 -0.4228  0.7418
10246TIP3    H252230   5.901   1.254   0.016  0.7904  2.0185 -0.6872
10247TIP3   OH252231   6.342   1.077  12.086 -0.0500 -0.0600 -0.4712
10247TIP3    H152232   6.424   1.052  12.130  0.1486  0.5079 -0.5174
10247TIP3    H252233   6.283   1.004  12.104 -0.1243  0.3588  1.1383
10248TIP3   OH252234   3.800   5.786  10.713 -0.4055  0.6042  0.3921
10248TIP3    H152235   3.760   5.871  10.694  0.9408  1.2531  0.2847
10248TIP3    H252236   3.847   5.763  10.633  0.1267  0.2884  0.7857
10249TIP3   OH252237   2.591   5.989  16.619 -0.1829  0.4564  0.0071
10249TIP3    H152238   2.606   5.913  16.564  0.5971 -0.8667  1.9504
10249TIP3    H252239   2.513   6.031  16.581  0.3499 -0.3222 -2.0849
10250TIP3   OH252240   3.300   5.628  16.804  0.5523 -0.1827 -0.0165
10250TIP3    H152241   3.316   5.629  16.709 -0.7285 -2.3736 -0.3206
10250TIP3    H252242   3.321   5.538  16.830 -0.6484 -0.0608  1.4800
10251TIP3   OH252243   5.049   3.503   1.998  0.1541 -0.3890  0.9253
10251TIP3    H152244   4.993   3.508   2.076  0.5672 -0.5611  1.2343
10251TIP3    H252245   5.058   3.594   1.969  0.6808 -0.2331  1.5648
10252TIP3   OH252246   4.110   5.261   4.814 -0.1267  0.0749  0.3964
10252TIP3    H152247   4.110   5.276   4.909 -3.8034  2.2338  0.2666
10252TIP3    H252248   4.071   5.174   4.804  0.4996 -0.2667  0.8279
10253TIP3   OH252249   0.677   3.504  14.994  0.0881  0.1181 -0.2213
10253TIP3    H152250   0.665   3.570  15.062  0.0534  1.2023 -1.2634
10253TIP3    H252251   0.687   3.553  14.913  0.4960 -1.1396 -0.9696
10254TIP3   OH252252   4.399   2.093   2.156  0.4081  0.0282 -0.5486
10254TIP3    H152253   4.389   2.016   2.213 -0.0044  0.3528 -0.1736
10254TIP3    H252254   4.311   2.132   2.154  0.7704  0.8967 -0.1504
10255TIP3   OH252255   5.946   1.865  16.556  0.4598  0.6532 -0.2043
10255TIP3    H152256   5.867   1.843  16.605  1.2593  0.8982  1.2602
10255TIP3    H252257   5.918   1.867  16.465 -1.3879  1.4293  0.3224
10256TIP3   OH252258   3.803   0.040  14.113  0.7619 -0.0986 -0.8652
10256TIP3    H152259   3.866   0.094  14.066 -0.9001  3.0128  0.1604
10256TIP3    H252260   3.719   0.084  14.100 -0.6544 -2.1516  0.5784
10257TIP3   OH252261   3.640   3.891  16.729  0.1337 -0.0074 -0.3021
10257TIP3    H152262   3.585   3.969  16.722 -1.3372 -0.9806  0.1168
10257TIP3    H252263   3.644   3.856  16.640  1.4533  0.9370 -0.6530
10258TIP3   OH252264   3.870   2.834   4.851 -0.2983 -0.2282  0.4164
10258TIP3    H152265   3.818   2.760   4.882  2.5998 -2.7312 -0.1790
10258TIP3    H252266   3.812   2.881   4.791 -2.4313 -1.6670  1.2246
10259TIP3   OH252267   6.152   5.476  14.566  0.1036  0.6157  0.4139
10259TIP3    H152268   6.182   5.565  14.551 -1.9999  1.2382 -0.4909
10259TIP3    H252269   6.065   5.472  14.525 -0.4567 -1.4431  1.6094
10260TIP3   OH252270   6.565   1.000   2.756 -0.6117 -0.0291  0.4677
10260TIP3    H152271   6.518   1.016   2.838  0.1748 -1.2356  1.1832
10260TIP3    H252272   6.590   0.908   2.760 -2.6041 -0.8326 -2.2082
10261TIP3   OH252273   6.352   4.930   3.985 -0.0171  0.0062  0.8913
10261TIP3    H152274   6.283   4.901   3.926  1.3958 -0.0905 -0.8146
10261TIP3    H252275   6.356   4.862   4.053  0.3318 -1.5502 -0.6294
10262TIP3   OH252276   1.960   6.353  14.287 -0.5515  0.1173 -0.6233
10262TIP3    H152277   2.053   6.371  14.281 -0.5619  1.6034  2.1535
10262TIP3    H252278   1.941   6.299  14.210  1.9550  2.1484 -2.8546
10263TIP3   OH252279   5.711   3.443  17.010  0.3153  0.2262 -0.3934
10263TIP3    H152280   5.694   3.493  16.930  1.3688  1.3868  0.0788
10263TIP3    H252281   5.806   3.436  17.014  0.2589 -0.1023  0.5929
10264TIP3   OH252282   4.540   0.187   3.312  0.3918 -0.1518 -0.3967
10264TIP3    H152283   4.506   0.233   3.235  1.5182 -2.1944 -2.2319
10264TIP3    H252284   4.610   0.243   3.344 -0.1852  0.7961 -0.7321
10265TIP3   OH252285   6.411   2.052  14.233  0.5540 -0.0427  0.2085
10265TIP3    H152286   6.352   2.126  14.250  0.7586 -0.0317  0.8840
10265TIP3    H252287   6.474   2.054  14.305  1.4404 -0.0026 -0.5665
10266TIP3   OH252288   5.996   5.592   1.217  0.4852  0.2543 -0.4049
10266TIP3    H152289   5.910   5.605   1.256  1.1717  1.3433  0.8669
10266TIP3    H252290   5.987   5.621   1.127 -0.5599  0.0299 -0.3767
10267TIP3   OH252291   1.893   0.977  12.516  0.0405  0.1000 -0.1149
10267TIP3    H152292   1.901   1.011  12.427  0.9151  0.2870  0.0280
10267TIP3    H252293   1.953   0.902  12.519 -0.9861 -0.7501 -0.0716
10268TIP3   OH252294   6.121   3.876  16.549 -0.2726 -0.4946 -0.3224
10268TIP3    H152295   6.030   3.902  16.566 -1.3727 -3.0547 -1.6408
10268TIP3    H252296   6.135   3.800  16.606 -0.4454 -2.6374 -2.9415
10269TIP3   OH252297   1.723   4.731   1.959 -0.3940 -0.1274  0.1184
10269TIP3    H152298   1.644   4.703   2.005  0.3695 -2.9869 -0.1282
10269TIP3    H252299   1.785   4.752   2.029 -0.1834 -1.5916  0.3998
10270TIP3   OH252300   4.089   0.335  11.223  0.0327  0.0719 -0.0208
10270TIP3    H152301   4.019   0.293  11.172 -0.2335  0.8826 -0.3423
10270TIP3    H252302   4.144   0.378  11.157 -0.3299  1.1535  0.3490
10271TIP3   OH252303   6.413   0.111  14.955 -0.3947  0.3536  0.4105
10271TIP3    H152304   6.428   0.066  15.038  0.0736 -0.4189 -0.0849
10271TIP3    H252305   6.431   0.046  14.888 -0.8683  0.9399 -0.3076
10272TIP3   OH252306   4.326   1.764  15.114  0.1238 -0.0736  0.2411
10272TIP3    H152307   4.276   1.717  15.047 -0.5901  2.7647 -1.3489
10272TIP3    H252308   4.405   1.793  15.070  0.4149  0.4805  1.0992
10273TIP3   OH252309   5.367   2.121   1.020  0.1026  0.4714 -0.3360
10273TIP3    H152310   5.370   2.105   0.926 -1.6565 -2.1097 -0.0795
10273TIP3    H252311   5.277   2.149   1.036  0.3253  0.6888  0.5878
10274TIP3   OH252312   4.843   2.325  16.005 -0.6243 -0.3114 -0.0355
10274TIP3    H152313   4.751   2.309  16.023 -0.6096 -0.9604 -0.5129
10274TIP3    H252314   4.843   2.385  15.930 -0.6920 -2.9501 -2.3034
10275TIP3   OH252315   2.154   5.900   4.966  0.5593 -0.5243  0.8265
10275TIP3    H152316   2.189   5.989   4.970 -0.4704 -0.0875  0.3294
10275TIP3    H252317   2.169   5.872   4.876 -0.6491 -0.1952  0.5016
10276TIP3   OH252318   2.180   0.556   2.028  0.0772 -0.6019 -0.1219
10276TIP3    H152319   2.209   0.536   2.117 -0.4418 -0.0899  0.1698
10276TIP3    H252320   2.135   0.640   2.035  0.7742 -0.1325 -1.0239
10277TIP3   OH252321   2.513   2.824  11.558 -0.0037 -0.2043  0.3862
10277TIP3    H152322   2.465   2.906  11.546 -0.1001 -0.5969 -2.5538
10277TIP3    H252323   2.602   2.851  11.582 -0.6007  0.6386  1.7870
10278TIP3   OH252324   1.934   4.838  14.862 -0.0460 -0.2211  0.1782
10278TIP3    H152325   1.864   4.903  14.870  2.4558  2.6173  0.9803
10278TIP3    H252326   1.963   4.845  14.771  0.1792 -0.2706  0.2462
10279TIP3   OH252327   3.109   1.749  12.415 -0.0947  0.7141 -0.3318
10279TIP3    H152328   3.021   1.781  12.393 -0.6470  0.3136  1.1357
10279TIP3    H252329   3.168   1.812  12.376 -1.1131  2.3690  0.6868
10280TIP3   OH252330   3.190   6.151  12.327 -0.6583 -0.1962 -0.3822
10280TIP3    H152331   3.284   6.163  12.316 -0.6220  0.5913  0.6665
10280TIP3    H252332   3.151   6.199  12.254 -0.2808  0.6040 -0.0743
10281TIP3   OH252333   5.595   2.173   3.046  0.0249 -0.1540 -0.5199
10281TIP3    H152334   5.537   2.109   3.005  1.3768 -0.8596 -1.4089
10281TIP3    H252335   5.682   2.152   3.011  0.6748  1.4613  0.0498
10282TIP3   OH252336   2.152   3.083   0.252 -0.0902 -0.3244 -0.0852
10282TIP3    H152337   2.218   3.149   0.274 -0.0020 -0.6311  0.5712
10282TIP3    H252338   2.183   3.003   0.293 -0.0873 -0.8402 -1.0512
10283TIP3   OH252339   0.827   5.490   1.029 -0.3654 -0.1351  0.4127
10283TIP3    H152340   0.824   5.434   1.107 -2.0441 -1.9154 -0.8204
10283TIP3    H252341   0.906   5.542   1.039  2.2931 -3.8718  0.9651
10284TIP3   OH252342   1.296   2.091   2.208 -0.2686 -0.1054 -0.0806
10284TIP3    H152343   1.258   2.149   2.275  0.8215  0.2840  0.2236
10284TIP3    H252344   1.292   2.142   2.127  0.9401  0.5363  0.2385
10285TIP3   OH252345   0.183   1.192  16.046  0.3993  0.3212 -0.2165
10285TIP3    H152346   0.201   1.173  16.138  0.1949 -2.1840 -0.6166
10285TIP3    H252347   0.270   1.208  16.008  0.7320 -0.8705 -0.0039
10286TIP3   OH252348   4.028   1.773  12.318  0.6803 -0.9449  0.1000
10286TIP3    H152349   3.936   1.751  12.303  0.0279  1.3263  0.2768
10286TIP3    H252350   4.075   1.690  12.310 -1.0235 -1.7564 -2.6380
10287TIP3   OH252351   1.310   0.278  12.089 -0.0231 -0.4572  0.1930
10287TIP3    H152352   1.249   0.274  12.162  1.2858  0.9558  1.4289
10287TIP3    H252353   1.303   0.192  12.047 -0.4578 -1.4996  2.2831
10288TIP3   OH252354   1.578   6.709  13.879  0.7785 -0.0834 -0.0498
10288TIP3    H152355   1.647   6.702  13.945  1.9892  0.1812 -1.2453
10288TIP3    H252356   1.581   6.801  13.851 -0.0943 -0.0582 -0.0929
10289TIP3   OH252357   0.582   0.615  14.778 -0.0844  0.0814  0.1611
10289TIP3    H152358   0.622   0.695  14.743 -1.3749  0.9921  0.6578
10289TIP3    H252359   0.541   0.573  14.703  1.6001 -0.7754 -0.3212
10290TIP3   OH252360   2.792   3.692  12.750  0.1363 -0.2810  0.1292
10290TIP3    H152361   2.708   3.666  12.789 -0.2631 -0.3353 -0.7404
10290TIP3    H252362   2.770   3.768  12.696  0.8989  0.5361  0.9346
10291TIP3   OH252363   6.212   5.232  15.686  0.3145  1.0077  0.5575
10291TIP3    H152364   6.178   5.147  15.657 -0.9674  1.5119  0.5183
10291TIP3    H252365   6.284   5.250  15.627 -0.0212  0.3953 -0.0612
10292TIP3   OH252366   6.667   5.112   4.214 -0.0478 -0.5141  0.1151
10292TIP3    H152367   6.713   5.153   4.141  0.2444 -0.1996  0.4682
10292TIP3    H252368   6.647   5.024   4.184  0.3193 -0.4787 -0.2415
10293TIP3   OH252369   4.514   5.220   3.379  0.6067 -0.1996  0.6256
10293TIP3    H152370   4.551   5.179   3.301  1.4774  2.0745 -0.2292
10293TIP3    H252371   4.427   5.180   3.387  0.8641 -1.1876 -0.9373
10294TIP3   OH252372   4.510   0.963  14.136 -0.4940  0.5039  0.3426
10294TIP3    H152373   4.452   0.979  14.062 -0.0451  1.4515  0.1761
10294TIP3    H252374   4.543   0.874  14.122  0.3567  1.0298 -1.1552
10295TIP3   OH252375   2.493   3.594   2.458  0.3120  0.1446 -0.9399
10295TIP3    H152376   2.537   3.552   2.385  2.1628  0.1104  0.1288
10295TIP3    H252377   2.562   3.608   2.523 -1.1012  0.9080  0.4768
10296TIP3   OH252378   6.124   6.789   1.606  0.1026 -0.5250  0.0733
10296TIP3    H152379   6.194   6.849   1.585 -0.4751 -0.5451 -2.0726
10296TIP3    H252380   6.154   6.744   1.685  1.0159  1.7600  1.1127
10297TIP3   OH252381   1.394   6.538  10.873  0.0041 -0.1368  0.0213
10297TIP3    H152382   1.351   6.453  10.882 -1.2966  0.5400  0.4490
10297TIP3    H252383   1.324   6.602  10.887  1.2289  1.0230  1.1447
10298TIP3   OH252384   0.723   0.278   2.725 -0.8774 -0.1262 -0.3211
10298TIP3    H152385   0.763   0.334   2.658  1.0223  0.3437  1.1069
10298TIP3    H252386   0.750   0.190   2.702  1.0453  0.1752  0.5723
10299TIP3   OH252387   2.574   4.841   2.172 -0.5349  0.0094  0.3598
10299TIP3    H152388   2.614   4.912   2.123 -1.2193  0.5758  0.5980
10299TIP3    H252389   2.534   4.785   2.105  0.0244 -0.1658  0.1702
10300TIP3   OH252390   6.007   3.751   0.302 -0.3917 -0.6614 -0.4722
10300TIP3    H152391   5.993   3.831   0.251  1.8988 -0.5125 -1.0000
10300TIP3    H252392   5.975   3.771   0.389 -1.9317  0.0206 -1.1668
10301TIP3   OH252393   6.335   3.570   1.987  0.0923  0.1775  0.7517
10301TIP3    H152394   6.396   3.636   2.016  1.4611 -0.5147 -0.4283
10301TIP3    H252395   6.330   3.507   2.059  1.4341 -0.1876  0.5401
10302TIP3   OH252396   0.607   1.794  13.365 -0.5042 -0.2369 -0.8284
10302TIP3    H152397   0.556   1.874  13.378  0.4040  0.3220 -0.5881
10302TIP3    H252398   0.595   1.744  13.446 -1.7645 -0.7724 -1.3093
10303TIP3   OH252399   3.896   0.147  15.575 -0.0448 -0.1217  0.0280
10303TIP3    H152400   3.984   0.173  15.601 -0.7511  1.5488  0.9577
10303TIP3    H252401   3.863   0.096  15.648  0.3682 -1.3567 -0.6213
10304TIP3   OH252402   0.400   1.572  13.485  0.2495  0.2806  0.6821
10304TIP3    H152403   0.495   1.566  13.478  0.3805  1.7740  0.6974
10304TIP3    H252404   0.385   1.655  13.531 -1.0359 -0.6458  2.0382
10305TIP3   OH252405   1.032   1.182   3.083 -0.1628  0.0209  0.6325
10305TIP3    H152406   1.068   1.100   3.049  1.7209  2.0236 -2.7549
10305TIP3    H252407   0.937   1.170   3.078  0.0525 -1.8987  0.1441
10306TIP3   OH252408   4.775   3.977  11.443  0.4699 -0.4248  0.6519
10306TIP3    H152409   4.777   3.881  11.440 -1.8316 -0.5197  0.0806
10306TIP3    H252410   4.864   4.003  11.420  0.6463 -2.4239 -1.3557
10307TIP3   OH252411   4.248   0.838   2.090 -0.0023  0.8061 -0.3025
10307TIP3    H152412   4.269   0.880   2.173 -0.9608  0.7012  0.0104
10307TIP3    H252413   4.212   0.753   2.115  0.0685  0.6132 -0.8447
10308TIP3   OH252414   3.557   1.988  15.014 -0.0045 -0.2526 -0.5755
10308TIP3    H152415   3.505   1.918  15.052 -0.2657  0.2246 -0.0358
10308TIP3    H252416   3.495   2.060  15.001  0.4739  0.2600 -0.0911
10309TIP3   OH252417   2.824   0.947  15.795  0.4231 -0.3297 -0.3427
10309TIP3    H152418   2.772   0.983  15.867 -0.6408  0.3834 -1.4441
10309TIP3    H252419   2.829   1.017  15.731  0.7933 -1.1708 -1.2605
10310TIP3   OH252420   3.946   2.439   5.246  0.3305 -0.0126 -0.2581
10310TIP3    H152421   3.936   2.514   5.305 -3.6048  0.1944 -0.9381
10310TIP3    H252422   4.014   2.466   5.185  0.3791  2.2114  0.6707
10311TIP3   OH252423   1.777   0.194  12.678 -0.3805 -0.1773  0.1365
10311TIP3    H152424   1.829   0.266  12.641  1.4774 -1.6241 -0.2192
10311TIP3    H252425   1.830   0.161  12.750 -1.2949 -1.0799  0.4120
10312TIP3   OH252426   6.384   0.900  15.490 -0.0756  0.1634 -0.5628
10312TIP3    H152427   6.302   0.870  15.530 -0.3006  0.4336 -0.8179
10312TIP3    H252428   6.405   0.981  15.538 -0.1156  0.2538 -0.6980
10313TIP3   OH252429   0.047   4.594  15.299  0.3357  0.1287 -0.1368
10313TIP3    H152430  -0.024   4.628  15.352 -0.5474 -0.2931 -1.0125
10313TIP3    H252431   0.041   4.642  15.217  0.0727 -0.9749 -0.7934
10314TIP3   OH252432   4.541   0.639  15.211  0.3127  0.5550 -0.0007
10314TIP3    H152433   4.534   0.696  15.134  0.3547  1.2950  0.5385
10314TIP3    H252434   4.453   0.640  15.249  0.0431 -0.5367 -0.5268
10315TIP3   OH252435   0.346   0.692  12.333 -0.5638  0.3226  0.0649
10315TIP3    H152436   0.331   0.639  12.255 -2.1922  0.5839  0.1536
10315TIP3    H252437   0.401   0.765  12.304  0.1745 -0.4380 -0.4605
10316TIP3   OH252438   2.097   3.067   3.961  0.0823  0.2094 -0.2690
10316TIP3    H152439   2.065   2.978   3.942 -0.5364  0.1030  1.1389
10316TIP3    H252440   2.166   3.054   4.026 -0.6003  0.7938  0.5992
10317TIP3   OH252441   0.177   5.662   1.333 -0.0136  0.2759 -0.1601
10317TIP3    H152442   0.217   5.744   1.304 -1.3856  1.0321  0.0012
10317TIP3    H252443   0.085   5.683   1.346 -0.1747 -0.9878  1.0688
10318TIP3   OH252444   1.438   0.646  13.758  0.2502  0.1337  0.2244
10318TIP3    H152445   1.496   0.705  13.807  0.4811  0.1082 -0.0179
10318TIP3    H252446   1.498   0.590  13.709  0.0184  0.0314  0.0593
10319TIP3   OH252447   6.703   2.479  16.329 -0.1481  0.1446  0.0622
10319TIP3    H152448   6.722   2.390  16.358 -0.4638  0.6119  1.8331
10319TIP3    H252449   6.777   2.503  16.273  1.0516 -0.4399  1.3623
10320TIP3   OH252450   1.648   0.865   0.790 -0.8784 -0.2561 -0.2039
10320TIP3    H152451   1.638   0.779   0.748 -0.3428  0.1800 -1.2768
10320TIP3    H252452   1.704   0.914   0.729  0.0128  0.3805  1.0831
10321TIP3   OH252453   0.374   2.647  15.253  0.3609 -0.2260  0.5821
10321TIP3    H152454   0.331   2.688  15.328 -1.9850  0.3837 -0.9894
10321TIP3    H252455   0.411   2.720  15.203 -0.1253 -0.3875 -0.0318
10322TIP3   OH252456   1.616   4.214   4.502  0.0890  0.1095 -0.3854
10322TIP3    H152457   1.569   4.131   4.495 -0.3310  0.0839  1.9941
10322TIP3    H252458   1.703   4.195   4.468 -0.4258 -0.9200 -1.1678
10323TIP3   OH252459   3.534   0.454   6.711 -0.0205  0.0277 -1.0592
10323TIP3    H152460   3.514   0.523   6.775  0.8373  0.6668 -1.4504
10323TIP3    H252461   3.488   0.377   6.743  2.1464 -0.3081  1.5800
10324TIP3   OH252462   2.929   4.702  12.621  0.1447 -0.1132  0.3572
10324TIP3    H152463   3.015   4.737  12.598 -0.4394  0.9019 -0.3116
10324TIP3    H252464   2.948   4.635  12.687  1.4726 -0.1226 -0.0080
10325TIP3   OH252465   2.370   1.474  16.366 -0.0412 -0.0902  0.1349
10325TIP3    H152466   2.420   1.423  16.302 -0.5055 -2.2421  1.4181
10325TIP3    H252467   2.364   1.561  16.327  2.3519 -0.4818 -1.3096
10326TIP3   OH252468   0.878   6.762   1.517 -0.2087  0.2688 -0.4530
10326TIP3    H152469   0.813   6.827   1.543  0.9328  0.7257  1.4217
10326TIP3    H252470   0.927   6.743   1.597  3.2446  1.3684 -2.0930
10327TIP3   OH252471   5.472   1.035  13.340 -1.0594  0.3865 -0.2791
10327TIP3    H152472   5.446   1.054  13.430 -0.5588 -0.3191  0.0228
10327TIP3    H252473   5.543   1.096  13.323 -2.0025  1.4149 -0.6569
10328TIP3   OH252474   4.075   6.607   3.334 -0.1535 -0.2810 -0.6605
10328TIP3    H152475   4.127   6.661   3.393  0.1876  0.2565 -1.4388
10328TIP3    H252476   4.122   6.524   3.330 -0.9679 -0.8742  0.9670
10329TIP3   OH252477   3.247   4.985  12.707 -0.5324 -0.2046 -0.5461
10329TIP3    H152478   3.225   4.934  12.785 -0.3758  0.7098  0.1035
10329TIP3    H252479   3.209   4.934  12.635  0.7426 -1.9314 -0.0668
10330TIP3   OH252480   0.930   1.081  13.541  0.2297  0.3920 -0.6793
10330TIP3    H152481   0.934   1.084  13.637 -0.4309  0.4371 -0.6515
10330TIP3    H252482   1.017   1.052  13.515  1.1866  2.6229 -0.1723
10331TIP3   OH252483   2.332   3.223  12.641  0.8516  0.4866  0.2289
10331TIP3    H152484   2.288   3.157  12.587  0.7366 -0.4206  1.3882
10331TIP3    H252485   2.328   3.303  12.589 -0.5122 -0.0190 -0.4953
10332TIP3   OH252486   4.787   1.575  14.795 -0.0878 -0.0645  0.5987
10332TIP3    H152487   4.697   1.608  14.790 -0.5714 -1.0941  1.8331
10332TIP3    H252488   4.780   1.483  14.771  1.1187  0.4384 -2.0251
10333TIP3   OH252489   2.671   3.655   4.794  0.5454  0.9758  0.2586
10333TIP3    H152490   2.754   3.622   4.828  1.2653  0.1215 -2.1253
10333TIP3    H252491   2.694   3.735   4.747  0.1513  0.4244 -0.9137
10334TIP3   OH252492   2.560   5.396   2.687 -0.2979 -0.2086 -0.3980
10334TIP3    H152493   2.571   5.485   2.653  1.6083  0.1128  0.9272
10334TIP3    H252494   2.520   5.348   2.614 -0.7337  1.5388 -1.3861
10335TIP3   OH252495   6.115   4.888   3.884 -0.1578  0.4031 -0.2288
10335TIP3    H152496   6.054   4.907   3.954  0.2041  2.0132 -0.3163
10335TIP3    H252497   6.060   4.861   3.810 -0.5543 -0.9987  0.5509
10336TIP3   OH252498   0.474   6.399   3.974  0.3890 -0.4039  0.0523
10336TIP3    H152499   0.552   6.429   4.021 -1.2640  3.2965  0.8361
10336TIP3    H252500   0.456   6.470   3.911 -1.6816 -1.7037 -0.9109
10337TIP3   OH252501   0.248   5.098  12.907  0.3981 -0.3644  0.0172
10337TIP3    H152502   0.225   5.083  12.815  0.1039 -1.0368  0.1968
10337TIP3    H252503   0.239   5.193  12.918  0.6195 -0.2529 -0.6927
10338TIP3   OH252504   2.950   3.749   1.100  0.0390 -0.8511  0.5047
10338TIP3    H152505   3.019   3.815   1.104  1.1775 -1.8217 -1.6276
10338TIP3    H252506   2.982   3.677   1.154  0.6400 -1.2353 -0.3545
10339TIP3   OH252507   5.314   4.298  13.147  0.1585 -0.0344  0.1779
10339TIP3    H152508   5.395   4.309  13.195  0.0835  0.7873  0.1286
10339TIP3    H252509   5.334   4.231  13.081  0.9248  0.4646 -0.1136
10340TIP3   OH252510   0.697   5.072   4.645  0.0499  0.3027  0.6374
10340TIP3    H152511   0.739   4.989   4.625 -0.1824  0.1553  0.7565
10340TIP3    H252512   0.769   5.134   4.657  0.2842 -0.2090  2.0665
10341TIP3   OH252513   3.388   0.245   2.995 -0.6909  0.1766  1.0768
10341TIP3    H152514   3.358   0.197   2.917 -0.3070 -2.4418  2.4037
10341TIP3    H252515   3.321   0.228   3.060  0.9209 -1.1944  2.4809
10342TIP3   OH252516   1.694   1.503  13.459 -0.1564  0.2991  0.6241
10342TIP3    H152517   1.627   1.569  13.476 -0.6959  0.1198 -0.6831
10342TIP3    H252518   1.757   1.548  13.401 -1.6389 -0.8898 -2.0809
10343TIP3   OH252519   1.862   6.630   3.327 -0.0924  0.5028  0.1140
10343TIP3    H152520   1.881   6.627   3.233  2.7271  1.2470  0.5639
10343TIP3    H252521   1.861   6.539   3.354 -0.3915  0.3067 -0.5368
10344TIP3   OH252522   0.132   4.270   5.094  0.4876  0.2073 -0.7019
10344TIP3    H152523   0.144   4.201   5.029  2.0769  0.1123 -0.3627
10344TIP3    H252524   0.194   4.338   5.069 -0.8463  1.4113 -0.8575
10345TIP3   OH252525   3.122   1.981   4.224 -0.5997 -0.3803 -0.1371
10345TIP3    H152526   3.114   1.886   4.229 -2.7521 -0.2458 -0.2537
10345TIP3    H252527   3.147   2.008   4.312 -1.3420 -0.9416  0.2459
10346TIP3   OH252528   2.483   2.868   0.593 -0.4513  0.4564 -0.1618
10346TIP3    H152529   2.564   2.820   0.607 -1.0290 -1.0117 -1.5862
10346TIP3    H252530   2.506   2.938   0.532  0.2989  1.8418  1.6021
10347TIP3   OH252531   0.189   5.710  13.822 -0.1908  0.0791  0.2378
10347TIP3    H152532   0.137   5.643  13.867 -1.7786  0.4252 -0.9908
10347TIP3    H252533   0.147   5.793  13.845  1.0226  0.5801  0.7663
10348TIP3   OH252534   4.829   2.782   3.448  0.4971  0.1866 -0.0312
10348TIP3    H152535   4.773   2.836   3.393  1.1244 -0.2973 -1.1938
10348TIP3    H252536   4.836   2.699   3.401  0.2628 -0.6145  1.2799
10349TIP3   OH252537   6.171   1.270  12.456  0.7127 -0.3152  0.1727
10349TIP3    H152538   6.258   1.252  12.420  0.6861  2.0001 -1.2292
10349TIP3    H252539   6.136   1.339  12.400 -0.6481  1.2034  2.7343
10350TIP3   OH252540   3.182   3.838   2.385 -0.0601 -0.2987  0.1504
10350TIP3    H152541   3.238   3.873   2.316  0.6050 -1.1246  0.2579
10350TIP3    H252542   3.205   3.891   2.462  0.4009 -0.4755  0.1364
10351TIP3   OH252543   0.650   4.216   2.695  0.3492 -0.1676 -0.3582
10351TIP3    H152544   0.682   4.142   2.643  0.1918 -0.5540  0.0803
10351TIP3    H252545   0.689   4.202   2.782 -0.0570  0.0087 -0.1463
10352TIP3   OH252546   1.486   0.731   2.498 -0.0168  0.4416  0.4245
10352TIP3    H152547   1.570   0.764   2.467  0.7249  0.0348  1.9105
10352TIP3    H252548   1.485   0.639   2.475  0.3107  0.2593  1.1097
10353TIP3   OH252549   3.195   4.326   5.431  0.4648 -0.8209  0.1908
10353TIP3    H152550   3.128   4.296   5.369  1.2188 -0.0675 -1.0134
10353TIP3    H252551   3.232   4.246   5.467  0.5104 -1.2818 -0.8633
10354TIP3   OH252552   2.815   5.618   1.037  0.5540  0.2058 -0.2525
10354TIP3    H152553   2.904   5.632   1.070  0.8466  0.2362 -1.0455
10354TIP3    H252554   2.799   5.525   1.050  1.2601 -0.1067 -1.4372
10355TIP3   OH252555   1.578   3.513   5.135 -0.0818  0.5509 -0.5659
10355TIP3    H152556   1.664   3.510   5.176 -1.5514 -1.7258  2.7317
10355TIP3    H252557   1.545   3.424   5.140 -2.5997  1.3084 -1.8763
10356TIP3   OH252558   6.091   0.951  13.815 -0.4142 -0.4953  0.0795
10356TIP3    H152559   5.996   0.961  13.828 -0.5361 -0.4030 -0.8118
10356TIP3    H252560   6.127   0.956  13.903 -1.1374  0.6539  0.3485
10357TIP3   OH252561   1.932   3.056  14.542  0.0135  0.0502 -0.1646
10357TIP3    H152562   1.978   3.127  14.498  0.2551  0.0507  0.0784
10357TIP3    H252563   1.839   3.078  14.534  0.0349 -0.1118 -0.9335
10358TIP3   OH252564   0.519   6.304  12.686 -0.3260 -1.0638 -0.7797
10358TIP3    H152565   0.464   6.306  12.608 -2.4912  1.6015  0.6236
10358TIP3    H252566   0.474   6.244  12.746 -1.2023  0.2907 -0.0267
10359TIP3   OH252567   4.697   3.151  14.515  0.2163  0.5453  0.0049
10359TIP3    H152568   4.761   3.166  14.585 -0.4526  1.3037  0.4788
10359TIP3    H252569   4.626   3.212  14.535  0.5213  1.6144 -1.9804
10360TIP3   OH252570   6.124   4.639  14.569 -0.7967  0.2826  0.3533
10360TIP3    H152571   6.136   4.592  14.486 -4.2052 -2.5150  1.2062
10360TIP3    H252572   6.168   4.585  14.634 -2.6722 -0.5276  1.0157
10361TIP3   OH252573   3.553   4.232  15.641 -0.1802  0.1256 -0.0510
10361TIP3    H152574   3.629   4.224  15.699 -1.0552 -0.7543  1.0220
10361TIP3    H252575   3.523   4.322  15.654 -0.6264 -0.1815  1.2449
10362TIP3   OH252576   1.357   2.569  15.779  0.0800 -0.0880  1.0809
10362TIP3    H152577   1.362   2.555  15.873  0.0830 -0.3949  1.0359
10362TIP3    H252578   1.265   2.586  15.762 -0.2659 -1.9237  0.8896
10363TIP3   OH252579   0.435   5.143   0.015  0.0645  0.0191 -0.5958
10363TIP3    H152580   0.453   5.067  -0.041  2.0079 -0.5770  0.7603
10363TIP3    H252581   0.347   5.127   0.048 -1.0403  0.2400 -3.1609
10364TIP3   OH252582   1.989   6.567   2.154  0.3680 -0.9742  0.1255
10364TIP3    H152583   2.057   6.615   2.201  0.2552  0.5018 -1.1417
10364TIP3    H252584   1.923   6.549   2.221 -0.0856  1.6156  0.4831
10365TIP3   OH252585   5.876   6.166   1.919 -0.1902  0.0373 -0.0072
10365TIP3    H152586   5.887   6.241   1.978 -0.5255 -0.0992  0.2297
10365TIP3    H252587   5.826   6.102   1.970  0.5883 -0.5835 -0.0094
10366TIP3   OH252588   2.514   0.408   0.810 -0.0536  0.7903  0.1478
10366TIP3    H152589   2.601   0.449   0.812  0.3747  0.0143 -1.5072
10366TIP3    H252590   2.495   0.397   0.718 -2.3689  1.7993  0.4429
10367TIP3   OH252591   1.066   4.860   0.359  0.5159 -0.3094  0.7440
10367TIP3    H152592   1.139   4.816   0.404  0.3829 -0.9699  0.3357
10367TIP3    H252593   1.026   4.791   0.306 -0.3813  0.0652  0.9251
10368TIP3   OH252594   0.951   3.197  16.499  0.0859  0.9490  0.1451
10368TIP3    H152595   1.027   3.147  16.531  0.6370  0.7960 -1.3313
10368TIP3    H252596   0.989   3.276  16.461 -0.3786  0.4642 -1.4091
10369TIP3   OH252597   5.792   5.280   4.369  0.1835 -0.1535 -0.1249
10369TIP3    H152598   5.719   5.220   4.384 -0.0144  0.4549  1.5698
10369TIP3    H252599   5.750   5.364   4.349  0.4561 -0.4869 -2.4108
10370TIP3   OH252600   2.802   4.278   3.534 -0.0159 -0.3752 -0.6903
10370TIP3    H152601   2.759   4.205   3.490  0.3892 -1.2929  0.3845
10370TIP3    H252602   2.797   4.256   3.627 -0.7996  1.4680 -0.2489
10371TIP3   OH252603   2.982   3.093   2.391 -0.2991 -0.2119  0.7675
10371TIP3    H152604   2.899   3.124   2.427 -0.9220 -0.9726  0.0122
10371TIP3    H252605   2.965   3.003   2.364  1.0161 -0.6816  1.3838
10372TIP3   OH252606   2.250   6.792   1.620  0.1522  0.0699  0.0405
10372TIP3    H152607   2.263   6.861   1.684 -0.8817 -0.2706  0.6549
10372TIP3    H252608   2.336   6.777   1.583  0.4478  1.4822  0.0956
10373TIP3   OH252609   5.218   2.521  15.250  0.2422  0.4245  0.0857
10373TIP3    H152610   5.135   2.479  15.227  1.1778 -0.8602 -1.0905
10373TIP3    H252611   5.192   2.606  15.287 -1.5370  0.9891 -2.2152
10374TIP3   OH252612   5.383   6.153   3.164 -0.1987 -0.0692 -0.2991
10374TIP3    H152613   5.322   6.122   3.231  0.8320 -1.1550  0.1788
10374TIP3    H252614   5.336   6.223   3.119 -1.6354 -0.5998  0.3090
10375TIP3   OH252615   4.951   3.531  17.101 -0.0372  0.5238  0.6567
10375TIP3    H152616   4.872   3.579  17.076  0.1342  1.1942  1.3731
10375TIP3    H252617   4.953   3.537  17.196  0.9063  0.5629  0.6385
10376TIP3   OH252618   0.601   3.304  13.399  0.8777 -0.0662  0.1545
10376TIP3    H152619   0.662   3.376  13.412  0.4136  0.2156  0.8347
10376TIP3    H252620   0.631   3.235  13.457  2.2821 -1.0786 -1.6643
10377TIP3   OH252621   4.885   0.104   0.031 -0.4155  0.2543 -0.0062
10377TIP3    H152622   4.910   0.093  -0.061 -2.6089 -1.1969 -0.5051
10377TIP3    H252623   4.790   0.091   0.032 -0.8129  2.5955  2.1485
10378TIP3   OH252624   3.844   5.817  11.377  0.0952 -0.4837  0.5872
10378TIP3    H152625   3.837   5.782  11.288  1.0982 -0.9315  0.6687
10378TIP3    H252626   3.756   5.845  11.399 -0.1931 -0.4863 -0.5059
10379TIP3   OH252627   2.953   6.764  11.389  0.3075  0.5743 -0.7075
10379TIP3    H152628   2.910   6.690  11.346 -1.7766  0.2535  1.7088
10379TIP3    H252629   2.909   6.841  11.356  2.5522  0.8890 -3.3093
10380TIP3   OH252630   2.016   1.278  14.091  0.8384  0.2376  0.0980
10380TIP3    H152631   2.063   1.217  14.033  0.5976 -0.0726  0.2275
10380TIP3    H252632   2.082   1.306  14.154  0.3280 -2.0398  1.7695
10381TIP3   OH252633   4.270   4.343  12.201  0.2394  0.2098  0.1167
10381TIP3    H152634   4.267   4.404  12.128  0.4505 -1.3332 -1.2401
10381TIP3    H252635   4.182   4.348  12.239 -0.1398  0.4528 -0.7539
10382TIP3   OH252636   4.907   0.101   5.026  0.5334 -0.6811  0.0166
10382TIP3    H152637   4.860   0.141   4.953  1.3256  0.0350 -0.1202
10382TIP3    H252638   4.846   0.037   5.062 -0.9355  0.8710  0.4402
10383TIP3   OH252639   4.730   5.051  16.661  0.5726 -0.1139 -0.0713
10383TIP3    H152640   4.638   5.037  16.640  0.5200  0.8287 -0.5376
10383TIP3    H252641   4.729   5.114  16.733  0.8201 -1.6445  1.3345
10384TIP3   OH252642   4.718   1.761   3.621  0.7259 -0.1673  0.2505
10384TIP3    H152643   4.638   1.813   3.619  1.4032  0.8876 -0.0341
10384TIP3    H252644   4.748   1.765   3.712  0.3716 -0.7108  0.3966
10385TIP3   OH252645   5.291   2.869  16.589 -0.3978  0.7108 -0.2691
10385TIP3    H152646   5.352   2.869  16.515 -0.7419 -0.2323 -0.5739
10385TIP3    H252647   5.337   2.915  16.659  0.6951 -0.0396 -0.4660
10386TIP3   OH252648   4.129   6.463   0.884 -0.1984  0.3163  0.2317
10386TIP3    H152649   4.199   6.513   0.841  0.3695 -0.4103  0.2829
10386TIP3    H252650   4.048   6.499   0.848  0.2111  0.9567 -0.0726
10387TIP3   OH252651   1.773   5.585  11.738  0.0901 -0.4906  0.2301
10387TIP3    H152652   1.852   5.535  11.756  0.0992 -0.6703 -0.2917
10387TIP3    H252653   1.730   5.594  11.823  1.7954  1.5947  0.9542
10388TIP3   OH252654   1.402   5.498   3.154  0.6471  0.7426  0.2521
10388TIP3    H152655   1.485   5.469   3.115  0.3042 -0.7813  0.5613
10388TIP3    H252656   1.343   5.509   3.080  0.7360  0.4441  0.1340
10389TIP3   OH252657   0.166   6.237   6.259  0.0517 -0.2216 -0.7695
10389TIP3    H152658   0.158   6.193   6.344  0.1826 -0.7868 -1.0473
10389TIP3    H252659   0.160   6.330   6.280  1.2250 -0.2990  0.0006
10390TIP3   OH252660   5.634   4.326   5.863  0.6971  0.6110  0.0933
10390TIP3    H152661   5.586   4.401   5.827 -0.3503  0.0833  0.3478
10390TIP3    H252662   5.673   4.284   5.787  0.6012  0.9427 -0.1409
10391TIP3   OH252663   6.325   0.324  12.084  0.0518 -0.1643 -0.2771
10391TIP3    H152664   6.259   0.378  12.040 -0.0112 -0.1018 -0.1054
10391TIP3    H252665   6.314   0.237  12.045  0.4150  0.0339 -0.8389
10392TIP3   OH252666   4.725   6.296   1.174 -0.3297 -0.0053  0.2619
10392TIP3    H152667   4.756   6.384   1.157 -1.3589  0.1564 -0.9092
10392TIP3    H252668   4.664   6.306   1.248 -0.1211  0.1835  0.4097
10393TIP3   OH252669   4.500   2.244   3.803 -0.2385 -0.6070  0.4756
10393TIP3    H152670   4.473   2.302   3.875  0.7410 -1.3630  1.4978
10393TIP3    H252671   4.559   2.182   3.845 -1.5307 -2.5806 -0.5022
10394TIP3   OH252672   5.117   1.859  12.885 -0.1375 -0.0618 -0.0202
10394TIP3    H152673   5.177   1.785  12.896 -1.3753 -0.8796  1.6701
10394TIP3    H252674   5.162   1.917  12.823  1.7787 -1.2559  0.1643
10395TIP3   OH252675   3.321   1.492  10.917  0.1733  0.2815 -0.3928
10395TIP3    H152676   3.239   1.444  10.926  0.0588  0.6554  0.6892
10395TIP3    H252677   3.300   1.566  10.861  0.0515 -0.2373 -1.0454
10396TIP3   OH252678   4.556   3.256  11.798 -0.4042 -0.6464  0.3336
10396TIP3    H152679   4.550   3.222  11.709 -0.8519  1.1780 -0.3740
10396TIP3    H252680   4.616   3.196  11.843 -1.7249 -2.7464 -0.6013
10397TIP3   OH252681   5.164   5.927   2.003 -0.0118  0.8409  0.1237
10397TIP3    H152682   5.179   6.021   2.010 -1.1365  1.2682 -2.3415
10397TIP3    H252683   5.200   5.902   1.918 -2.3580 -0.3365 -0.6203
10398TIP3   OH252684   5.685   3.790  12.922  0.1391 -0.2215 -0.0193
10398TIP3    H152685   5.726   3.766  13.005  0.5305  0.2648 -0.0725
10398TIP3    H252686   5.749   3.846  12.879 -0.8579  1.1554  0.2147
10399TIP3   OH252687   2.461   1.212  10.475 -0.4116 -0.1310  0.2306
10399TIP3    H152688   2.551   1.216  10.504 -0.0816 -0.7076 -0.6523
10399TIP3    H252689   2.447   1.293  10.426 -1.2178  1.2338  2.5584
10400TIP3   OH252690   4.052   3.389   1.372 -0.1522 -0.0970  0.1044
10400TIP3    H152691   4.024   3.332   1.300 -0.6542  1.6378 -1.1417
10400TIP3    H252692   4.132   3.430   1.340  0.8533 -0.9057  1.4507
10401TIP3   OH252693   5.270   4.436  11.644 -0.0571 -0.5706  0.3140
10401TIP3    H152694   5.294   4.512  11.696 -0.3830  0.5416 -1.0891
10401TIP3    H252695   5.238   4.472  11.561 -2.8300 -2.0830  0.5879
10402TIP3   OH252696   2.369   2.512   5.724 -0.0188  0.0612  0.9087
10402TIP3    H152697   2.305   2.448   5.757 -0.0538 -0.1107  0.5092
10402TIP3    H252698   2.440   2.509   5.788  0.1500 -0.6549  0.6985
10403TIP3   OH252699   1.896   1.643  15.471  0.3445 -0.3322  0.7015
10403TIP3    H152700   1.973   1.637  15.414  1.0114 -0.6897  1.6232
10403TIP3    H252701   1.822   1.638  15.411  1.0342  0.4072 -0.2424
10404TIP3   OH252702   2.115   1.098   0.721 -0.6614 -0.0624 -0.3208
10404TIP3    H152703   2.091   1.167   0.660 -0.8726  0.7848  0.6808
10404TIP3    H252704   2.077   1.126   0.805 -0.0509 -0.9854  0.2864
10405TIP3   OH252705   5.568   0.723   0.921 -0.4427 -0.7128 -0.5413
10405TIP3    H152706   5.649   0.706   0.874  1.7049  2.3614  1.6556
10405TIP3    H252707   5.537   0.807   0.887 -1.3038 -0.6167  0.4175
10406TIP3   OH252708   6.590   1.851   0.187  0.5602 -0.4260  0.1236
10406TIP3    H152709   6.550   1.809   0.112  0.0664  0.9053 -0.3979
10406TIP3    H252710   6.581   1.788   0.258  1.9413 -2.1420 -1.1392
10407TIP3   OH252711   0.934   3.653  13.673 -0.3808 -0.6856 -0.4111
10407TIP3    H152712   0.871   3.616  13.611 -0.6331  0.3536 -0.8026
10407TIP3    H252713   0.923   3.748  13.664  1.8521 -0.4346 -1.1108
10408TIP3   OH252714   4.182   3.540   5.015 -0.3737  0.4625 -0.1518
10408TIP3    H152715   4.206   3.630   5.038  1.3860  0.4328 -1.6121
10408TIP3    H252716   4.116   3.550   4.947 -2.1380  0.5727  1.4899
10409TIP3   OH252717   5.599   5.091  12.677 -0.1829  0.3101  0.0294
10409TIP3    H152718   5.552   5.015  12.713  0.4022  0.8184  1.9660
10409TIP3    H252719   5.534   5.133  12.620 -1.0147 -0.7766  0.1261
10410TIP3   OH252720   3.785   5.827  12.796 -0.7870  0.9399  0.5954
10410TIP3    H152721   3.875   5.812  12.826 -1.6815 -0.5111  2.9235
10410TIP3    H252722   3.761   5.745  12.753 -1.2826  0.9845  0.7881
10411TIP3   OH252723   2.336   2.181   1.359 -0.4170 -0.1797  0.1030
10411TIP3    H152724   2.318   2.267   1.396 -0.6265  0.6686 -1.8516
10411TIP3    H252725   2.404   2.144   1.415 -0.4358  1.1899  1.0592
10412TIP3   OH252726   5.217   1.354  16.330  0.6826  0.4315  0.5410
10412TIP3    H152727   5.208   1.435  16.381  2.1791  0.2883  1.0908
10412TIP3    H252728   5.281   1.376  16.263  0.4015 -0.0378  0.1204
10413TIP3   OH252729   3.414   6.454   0.196 -0.3556  0.1396  0.3257
10413TIP3    H152730   3.428   6.496   0.111  0.6542  0.0015  0.4080
10413TIP3    H252731   3.502   6.443   0.232 -0.5991 -1.8651  0.4063
10414TIP3   OH252732   6.218   2.399  14.139  0.7286  0.0802  0.3808
10414TIP3    H152733   6.284   2.448  14.188  0.0135  0.9445  0.5021
10414TIP3    H252734   6.177   2.342  14.204  1.5181 -0.6570  0.2523
10415TIP3   OH252735   1.119   4.127  16.672 -0.1593 -0.0376 -0.4192
10415TIP3    H152736   1.024   4.131  16.684 -0.1149  1.0186 -0.3395
10415TIP3    H252737   1.145   4.051  16.723 -0.8113  0.4539  0.7088
10416TIP3   OH252738   5.488   4.499  13.045 -0.6806  0.3011 -0.3669
10416TIP3    H152739   5.561   4.533  13.098 -0.0036  1.1138 -1.7602
10416TIP3    H252740   5.420   4.477  13.109  0.9591 -0.9743  1.0140
10417TIP3   OH252741   0.569   6.412   1.040 -0.1470 -0.2854  0.7096
10417TIP3    H152742   0.526   6.496   1.057 -0.7415 -0.5287  0.4485
10417TIP3    H252743   0.498   6.354   1.015  0.4089 -0.5483 -0.3143
10418TIP3   OH252744   5.602   4.503   3.032  0.3106  0.1893  0.1332
10418TIP3    H152745   5.667   4.441   3.066 -0.5361  0.0208  1.5491
10418TIP3    H252746   5.634   4.526   2.945  0.3511 -2.6877 -0.7289
10419TIP3   OH252747   0.383   4.558  15.263 -0.1651 -0.2870 -0.3307
10419TIP3    H152748   0.308   4.601  15.305  0.2488  1.6470 -1.4560
10419TIP3    H252749   0.460   4.595  15.307  0.1813 -1.8573  0.4473
10420TIP3   OH252750   1.979   5.665   4.502  0.1088 -0.1547 -0.3463
10420TIP3    H152751   2.006   5.754   4.527 -0.4602  0.3597 -1.4655
10420TIP3    H252752   1.886   5.662   4.524  0.1556 -0.5136 -0.2032
10421TIP3   OH252753   0.244   1.303   5.414 -0.6066  0.1999  0.6100
10421TIP3    H152754   0.178   1.282   5.348  0.9343  0.3788 -1.0745
10421TIP3    H252755   0.241   1.398   5.422 -0.5644  0.2091  0.5232
10422TIP3   OH252756   1.153   4.778   3.821 -0.5756 -0.0115 -0.5934
10422TIP3    H152757   1.171   4.788   3.914  3.8129 -0.9103 -1.1446
10422TIP3    H252758   1.127   4.866   3.792  1.2851  1.1099  0.9287
10423TIP3   OH252759   0.700   6.672   0.926  0.0892  0.1202 -0.2879
10423TIP3    H152760   0.748   6.669   0.843  0.5068 -0.4171 -0.0387
10423TIP3    H252761   0.672   6.581   0.941 -1.2060  0.4699 -0.5329
10424TIP3   OH252762   6.218   2.563  15.657 -0.3781  0.0035 -0.5630
10424TIP3    H152763   6.311   2.548  15.639  0.0193 -0.0265  1.2970
10424TIP3    H252764   6.182   2.476  15.675 -0.8048  0.0004 -1.3879
10425TIP3   OH252765   1.699   4.900   1.488 -0.5181 -0.1028  0.3164
10425TIP3    H152766   1.640   4.975   1.487 -0.6600 -0.2097  0.5717
10425TIP3    H252767   1.712   4.878   1.396 -0.5191  0.2013  0.2433
10426TIP3   OH252768   4.061   2.030   6.022  0.4341 -0.5554  0.0159
10426TIP3    H152769   3.979   2.047   5.975  0.5879 -0.6972 -0.3044
10426TIP3    H252770   4.066   2.102   6.086 -0.4104 -1.0661  0.6923
10427TIP3   OH252771   0.219   4.941  16.294 -0.2559  0.5842 -0.2658
10427TIP3    H152772   0.136   4.892  16.301 -0.2071  0.6056  0.7105
10427TIP3    H252773   0.276   4.884  16.243 -0.1791 -0.4414  0.9157
10428TIP3   OH252774   0.315   1.299   3.631 -0.3585  0.3088  0.3586
10428TIP3    H152775   0.407   1.320   3.615  0.0868 -0.2326  1.9976
10428TIP3    H252776   0.283   1.265   3.547  1.1093 -0.0990 -0.0656
10429TIP3   OH252777   2.097   0.901  12.207  0.0622 -0.2171  0.3639
10429TIP3    H152778   2.010   0.929  12.236 -0.0050  0.5218 -0.5161
10429TIP3    H252779   2.113   0.821  12.256 -0.8644 -0.0514  0.9805
10430TIP3   OH252780   3.848   0.468   4.319  0.0125  0.0600  0.3235
10430TIP3    H152781   3.822   0.512   4.238 -0.7909 -0.4216  0.3007
10430TIP3    H252782   3.782   0.399   4.330  0.9938 -0.8638  0.5730
10431TIP3   OH252783   0.763   5.332   5.429 -0.5162 -0.4596 -0.1591
10431TIP3    H152784   0.843   5.380   5.408 -1.2368  0.4331 -0.9103
10431TIP3    H252785   0.770   5.314   5.523 -0.9345  2.5143  0.5294
10432TIP3   OH252786   0.624   0.956  11.476 -0.0946 -0.2718 -0.3447
10432TIP3    H152787   0.673   1.031  11.442  0.5559 -1.1233 -1.3529
10432TIP3    H252788   0.569   0.929  11.403 -0.9641 -0.2543  0.2960
10433TIP3   OH252789   2.003   2.125  14.724  0.2936 -0.1164  0.1113
10433TIP3    H152790   1.991   2.042  14.770  1.4070 -0.8039 -0.7727
10433TIP3    H252791   2.095   2.125  14.699  0.1492  1.0901 -0.5000
10434TIP3   OH252792   3.392   6.268  14.502  0.3035 -0.4339 -0.0681
10434TIP3    H152793   3.477   6.258  14.546 -0.3163  0.8868  1.5477
10434TIP3    H252794   3.354   6.180  14.505  1.2525 -0.8597 -0.0330
10435TIP3   OH252795   2.492   2.134   3.916 -0.0168  0.3846  0.2763
10435TIP3    H152796   2.463   2.053   3.959 -0.5274 -0.9903 -2.4223
10435TIP3    H252797   2.537   2.104   3.837  1.2025  2.7349  0.0087
10436TIP3   OH252798   3.979   3.684   2.359  0.0055 -0.2637 -0.3429
10436TIP3    H152799   3.894   3.645   2.380  0.2170 -0.0310  1.0996
10436TIP3    H252800   3.979   3.694   2.264 -2.0444  0.7677 -0.2985
10437TIP3   OH252801   3.210   0.777   3.645  0.4738  0.1061  0.3253
10437TIP3    H152802   3.182   0.852   3.697 -1.2228  1.3051 -2.1239
10437TIP3    H252803   3.203   0.807   3.554  1.4442 -2.4767 -0.7006
10438TIP3   OH252804   1.615   3.092  15.707  0.0931 -0.0932 -0.0630
10438TIP3    H152805   1.659   3.079  15.791 -0.3347 -1.1893  0.0173
10438TIP3    H252806   1.605   3.003  15.672 -1.1261  0.2192 -0.5410
10439TIP3   OH252807   3.849   4.531  12.332  0.5762 -0.0424  0.3249
10439TIP3    H152808   3.790   4.473  12.380 -2.6873  1.3086 -1.7098
10439TIP3    H252809   3.866   4.604  12.392  0.1821 -0.4539  0.9435
10440TIP3   OH252810   4.032   4.251   2.826 -0.0907 -0.1020  0.1770
10440TIP3    H152811   4.083   4.173   2.848 -0.1683  0.1915  1.4831
10440TIP3    H252812   3.943   4.218   2.813 -0.1893 -0.1979  1.0482
10441TIP3   OH252813   5.170   5.619   3.837 -0.2257 -0.2555 -0.6840
10441TIP3    H152814   5.098   5.563   3.865  1.0796 -1.2719  0.8398
10441TIP3    H252815   5.212   5.646   3.918  0.8069  0.7236 -1.5139
10442TIP3   OH252816   3.976   1.025  13.392  0.4881  0.2281  0.4496
10442TIP3    H152817   3.902   0.970  13.364 -1.4696  2.4143  1.0271
10442TIP3    H252818   4.027   1.038  13.311 -0.8492  0.2590 -0.4226
10443TIP3   OH252819   0.742   3.560  11.931 -0.6676  0.1493  0.0651
10443TIP3    H152820   0.725   3.607  12.012 -0.5583  0.0510  0.1459
10443TIP3    H252821   0.778   3.476  11.959 -1.0379 -0.0588 -0.0720
10444TIP3   OH252822   0.871   5.645   0.236  0.6620  0.3877 -0.4675
10444TIP3    H152823   0.922   5.719   0.203 -0.3666  1.5070  0.3682
10444TIP3    H252824   0.781   5.678   0.241  0.3310 -0.6153  0.8323
10445TIP3   OH252825   2.613   5.005   0.183  0.8000 -0.2788 -0.5488
10445TIP3    H152826   2.560   5.080   0.156 -1.9596 -2.9924 -3.4106
10445TIP3    H252827   2.681   4.998   0.116  0.2314 -1.0484 -1.0643
10446TIP3   OH252828   0.482   2.458  12.683  0.1787  0.5194  0.7063
10446TIP3    H152829   0.431   2.440  12.604 -0.9733  0.2678  1.4896
10446TIP3    H252830   0.416   2.470  12.752  1.1821 -1.6433  2.1446
10447TIP3   OH252831   0.569   2.214  13.315 -0.3919  0.2538  0.4292
10447TIP3    H152832   0.489   2.192  13.267 -1.4856 -1.0427  2.6477
10447TIP3    H252833   0.562   2.307  13.333 -1.1180  0.2670  0.1038
10448TIP3   OH252834   0.906   3.130  10.675  0.3607  0.0272  0.5974
10448TIP3    H152835   0.968   3.061  10.653 -2.4346 -2.5138  0.0798
10448TIP3    H252836   0.852   3.093  10.745 -1.8784  1.2572 -0.3801
10449TIP3   OH252837   5.987   5.119   3.654 -0.5441  0.2917  0.1862
10449TIP3    H152838   5.996   5.026   3.674 -1.1161  0.5539  1.7596
10449TIP3    H252839   6.070   5.157   3.681  0.0943  0.1151 -1.4175
10450TIP3   OH252840   4.529   2.695  16.762  0.4515  0.4877 -0.3781
10450TIP3    H152841   4.570   2.757  16.702  1.2115 -0.2850 -0.6651
10450TIP3    H252842   4.582   2.616  16.756 -0.2757 -0.0689  0.2777
10451TIP3   OH252843   6.752   2.612   1.013  0.1166 -0.4671 -0.1607
10451TIP3    H152844   6.721   2.676   1.078  1.2829 -0.4029  0.3538
10451TIP3    H252845   6.847   2.608   1.026  0.5970  0.5153 -2.7092
10452TIP3   OH252846   1.631   0.760   1.902  0.4687  0.1187  0.6404
10452TIP3    H152847   1.708   0.787   1.851 -1.3227 -0.1296 -2.4594
10452TIP3    H252848   1.616   0.669   1.875 -1.7183  0.6230  0.0002
10453TIP3   OH252849   6.708   2.789   5.405  0.4274  0.7434  0.8448
10453TIP3    H152850   6.718   2.843   5.327 -0.3085  1.8016  1.4660
10453TIP3    H252851   6.796   2.785   5.442  0.5633  1.1653  0.5750
10454TIP3   OH252852   4.575   2.151   4.827  0.5908  1.0112  0.0965
10454TIP3    H152853   4.624   2.135   4.907 -2.3341 -0.6889  1.7439
10454TIP3    H252854   4.607   2.235   4.795  3.2665  0.7880  1.8925
10455TIP3   OH252855   0.195   1.946  14.145  0.2176 -0.2038  0.3438
10455TIP3    H152856   0.172   1.859  14.179 -0.8433 -0.3849 -0.7991
10455TIP3    H252857   0.280   1.933  14.103 -0.6001 -1.0703 -1.1309
10456TIP3   OH252858   4.548   6.748   0.290 -0.1809  0.7831 -0.2343
10456TIP3    H152859   4.614   6.782   0.351  0.1638 -2.3498  1.3521
10456TIP3    H252860   4.596   6.689   0.232 -0.8721  2.1390 -2.2877
10457TIP3   OH252861   5.418   3.788  12.818  0.0186 -0.2218 -0.5174
10457TIP3    H152862   5.509   3.760  12.831 -0.3892 -0.5243  2.2111
10457TIP3    H252863   5.424   3.855  12.749  2.1164 -1.0506 -1.2542
10458TIP3   OH252864   0.767   1.246   6.157 -0.3090 -0.4691 -0.5838
10458TIP3    H152865   0.740   1.174   6.100 -0.7230  1.6665 -3.2871
10458TIP3    H252866   0.690   1.303   6.162  0.4844  0.5681  0.1834
10459TIP3   OH252867   4.453   5.838  13.760 -0.5588  0.8075  0.0149
10459TIP3    H152868   4.416   5.916  13.719 -0.1621  0.4465 -1.0488
10459TIP3    H252869   4.475   5.867  13.849 -0.3300  1.9339 -0.3898
10460TIP3   OH252870   0.594   5.704  13.117  0.1622  0.1068 -0.2936
10460TIP3    H152871   0.594   5.648  13.195 -0.9882  1.3962  0.6851
10460TIP3    H252872   0.672   5.758  13.125 -0.0157  0.3159  0.0279
10461TIP3   OH252873   0.205   4.281   2.805  0.3465  0.4805  0.2613
10461TIP3    H152874   0.243   4.281   2.718 -0.0157  1.7573  0.0887
10461TIP3    H252875   0.115   4.251   2.792  1.3056 -3.2065  0.7526
10462TIP3   OH252876   6.797   4.818   5.584  0.6119 -0.5070  0.1091
10462TIP3    H152877   6.776   4.748   5.646  1.5147 -0.8749  0.0173
10462TIP3    H252878   6.833   4.888   5.638 -0.4107 -0.0407  0.2170
10463TIP3   OH252879   3.309   0.032   4.666 -0.0311  0.3830 -0.3908
10463TIP3    H152880   3.339  -0.006   4.749  1.8574 -3.0054 -2.4076
10463TIP3    H252881   3.388   0.068   4.626 -0.4633 -0.0409 -1.6795
10464TIP3   OH252882   3.839   1.756   1.980 -0.1606  0.3842  0.4390
10464TIP3    H152883   3.804   1.689   1.922  0.7899 -0.7642  1.1273
10464TIP3    H252884   3.792   1.835   1.957 -0.4961 -0.2530 -1.2103
10465TIP3   OH252885   4.722   2.656   4.909 -0.4977  0.0965 -0.1494
10465TIP3    H152886   4.770   2.675   4.989  0.9210  2.2740 -1.4149
10465TIP3    H252887   4.665   2.583   4.932  0.3121  0.2299  2.6325
10466TIP3   OH252888   2.798   4.285  12.786 -0.2557  0.3416  0.3396
10466TIP3    H152889   2.758   4.373  12.784  0.2880  0.5977  0.6836
10466TIP3    H252890   2.756   4.242  12.860  2.0071  1.5451  2.4756
10467TIP3   OH252891   3.836   4.057   5.343  0.0367  1.0374 -0.0620
10467TIP3    H152892   3.916   4.074   5.293  0.7323  0.9719  0.9962
10467TIP3    H252893   3.810   3.969   5.317  1.8029 -0.0040  1.5062
10468TIP3   OH252894   2.584   4.691  14.783  0.6881 -0.4347 -0.2350
10468TIP3    H152895   2.672   4.688  14.745  1.7985 -1.7464  2.2263
10468TIP3    H252896   2.579   4.613  14.838 -1.7690 -0.0031  0.2524
10469TIP3   OH252897   2.523   3.980   3.782 -0.7414  0.3952 -0.1670
10469TIP3    H152898   2.545   3.916   3.714 -0.9287 -0.4173  0.5197
10469TIP3    H252899   2.521   4.064   3.736 -1.0361 -0.1617 -1.2071
10470TIP3   OH252900   2.553   4.163  15.091 -0.4606  0.3636 -0.2084
10470TIP3    H152901   2.637   4.119  15.106 -0.0318  1.6157  1.4141
10470TIP3    H252902   2.561   4.202  15.004  0.4511  0.0643 -0.2734
10471TIP3   OH252903   6.110   0.007   0.797 -0.8409 -0.0584 -0.2557
10471TIP3    H152904   6.042   0.051   0.849 -1.3032  0.0168 -0.9161
10471TIP3    H252905   6.109   0.053   0.713  3.2454  3.2579  1.1012
10472TIP3   OH252906   1.910   2.599  15.622 -0.1263  0.3810  0.0587
10472TIP3    H152907   1.893   2.607  15.528  1.9622  1.4276 -0.3014
10472TIP3    H252908   2.006   2.603  15.629 -0.1661 -0.7141  2.1624
10473TIP3   OH252909   2.670   5.146  12.172 -0.8731 -0.1705 -0.2777
10473TIP3    H152910   2.755   5.160  12.132 -1.0733  1.3782 -0.2247
10473TIP3    H252911   2.681   5.069  12.227  0.4324 -0.1092 -0.4436
10474TIP3   OH252912   4.032   2.710   2.429  0.0087 -0.2603 -0.4021
10474TIP3    H152913   3.996   2.792   2.398 -0.0392 -0.4094 -0.7423
10474TIP3    H252914   4.114   2.734   2.472 -0.3803  0.0524  0.1837
10475TIP3   OH252915   3.951   6.494  13.718 -0.2246  0.2116 -0.1386
10475TIP3    H152916   4.024   6.432  13.719 -1.5241 -1.4050  0.8675
10475TIP3    H252917   3.944   6.525  13.808 -2.0122 -1.2891  0.3161
10476TIP3   OH252918   4.096   1.213   4.771  0.7175  0.2042  0.0865
10476TIP3    H152919   4.060   1.226   4.683  0.8291 -0.7405 -0.1179
10476TIP3    H252920   4.172   1.271   4.775  0.1282  1.0049 -0.0653
10477TIP3   OH252921   0.243   2.405   6.490  0.2513  0.7358 -0.4820
10477TIP3    H152922   0.220   2.489   6.450  1.7066  0.6066 -1.6826
10477TIP3    H252923   0.251   2.344   6.416 -0.8193 -0.4853  0.3685
10478TIP3   OH252924   5.515   6.397  15.208 -0.3594  0.6065 -0.1334
10478TIP3    H152925   5.580   6.466  15.222  0.0313  0.0627  0.8607
10478TIP3    H252926   5.488   6.372  15.297 -1.1425  0.0949 -0.5135
10479TIP3   OH252927   1.293   0.219   5.800 -0.2503  0.3285  0.6111
10479TIP3    H152928   1.209   0.235   5.757  0.5797 -1.4211 -1.8613
10479TIP3    H252929   1.277   0.144   5.857 -0.5536  0.5852  0.8724
10480TIP3   OH252930   5.907   6.754   0.025  0.0708 -0.2844  0.1160
10480TIP3    H152931   5.833   6.715  -0.022 -0.3144 -0.4473  0.8372
10480TIP3    H252932   5.874   6.767   0.114  0.5716  0.6219  0.1744
10481TIP3   OH252933   3.743   4.687   4.075  0.4370 -0.1359 -0.2767
10481TIP3    H152934   3.671   4.750   4.067  1.3843  1.2065  1.0726
10481TIP3    H252935   3.821   4.738   4.054  1.6532  0.3022  4.1991
10482TIP3   OH252936   2.543   1.962  14.947 -0.3431 -0.3250 -0.5649
10482TIP3    H152937   2.629   1.985  14.912  1.0341 -0.5554  2.3807
10482TIP3    H252938   2.499   2.046  14.961 -0.3979 -0.1826 -1.5084
10483TIP3   OH252939   2.323   4.022   4.062 -0.0513  0.6970 -0.3106
10483TIP3    H152940   2.337   3.942   4.113 -1.4501  0.4316 -0.2955
10483TIP3    H252941   2.410   4.060   4.052  0.4799 -0.1935  0.7269
10484TIP3   OH252942   1.576   0.638   3.663  0.2881  0.1728 -0.0074
10484TIP3    H152943   1.513   0.709   3.648  0.5859  0.7257  1.2039
10484TIP3    H252944   1.633   0.672   3.732  0.0274 -1.5161  1.0811
10485TIP3   OH252945   0.473   0.559   6.179 -0.5762  0.3492 -0.2349
10485TIP3    H152946   0.389   0.569   6.134 -0.4961  1.8488 -0.0860
10485TIP3    H252947   0.452   0.572   6.272 -0.4111 -0.7744 -0.0229
10486TIP3   OH252948   6.341   0.327  14.803  0.1703 -0.0140  0.0179
10486TIP3    H152949   6.343   0.249  14.858  1.5481  0.5133  0.7845
10486TIP3    H252950   6.420   0.375  14.827  1.8221 -0.5598 -3.6027
10487TIP3   OH252951   5.262   1.872   4.028  0.1753 -0.2580 -0.0101
10487TIP3    H152952   5.239   1.898   3.938  0.1345  0.1250  0.1088
10487TIP3    H252953   5.212   1.792   4.042  1.4047 -1.2200 -0.8842
10488TIP3   OH252954   2.800   1.078  11.990 -0.2669 -0.2298  0.4516
10488TIP3    H152955   2.778   1.142  11.922 -1.8303  1.5554  2.4738
10488TIP3    H252956   2.716   1.036  12.010  0.4377 -1.7402  0.3440
10489TIP3   OH252957   2.259   2.315  14.428  0.1816  0.0122  0.0682
10489TIP3    H152958   2.245   2.388  14.368 -0.6008 -0.2343 -0.0615
10489TIP3    H252959   2.346   2.281  14.405  0.8287  1.2846  0.5572
10490TIP3   OH252960   0.869   3.272  15.037 -0.2992 -0.3147 -0.8531
10490TIP3    H152961   0.835   3.358  15.012 -1.6283  0.6298  3.3673
10490TIP3    H252962   0.900   3.284  15.127 -0.8187 -4.3295  0.0625
10491TIP3   OH252963   0.372   4.780  16.108  0.9601  0.0388 -0.6608
10491TIP3    H152964   0.291   4.729  16.116  2.0961 -1.7309  0.5091
10491TIP3    H252965   0.391   4.780  16.014  0.9402 -1.8250 -0.7063
10492TIP3   OH252966   0.287   1.236  12.164 -0.3375  0.1315  0.4645
10492TIP3    H152967   0.374   1.234  12.124 -0.2766  1.3783  0.4978
10492TIP3    H252968   0.259   1.145  12.164  1.2975 -0.4209  1.1561
10493TIP3   OH252969   1.787   0.846  14.044  0.2430  0.0888 -0.4774
10493TIP3    H152970   1.798   0.921  14.103 -1.1293  1.8830 -2.3594
10493TIP3    H252971   1.701   0.860  14.004  0.2778 -2.1307 -1.4544
10494TIP3   OH252972   0.274   0.247  14.052  0.2187  0.1280  0.2910
10494TIP3    H152973   0.249   0.172  13.999  0.0528  2.0536 -2.5737
10494TIP3    H252974   0.369   0.255  14.038  0.2507  0.3840  0.6508
10495TIP3   OH252975   6.574   5.652  15.406 -0.4980  0.1650 -0.5940
10495TIP3    H152976   6.514   5.716  15.444 -0.5251 -1.4200  2.4024
10495TIP3    H252977   6.530   5.620  15.328 -1.3291  2.3759 -1.0960
10496TIP3   OH252978   1.967   5.393   0.189 -0.0636  0.2665  0.6428
10496TIP3    H152979   1.987   5.310   0.234  2.2473  1.2126  1.5278
10496TIP3    H252980   1.879   5.415   0.218 -2.2993 -3.5550 -2.3549
10497TIP3   OH252981   5.573   5.625  16.633  0.1214 -0.6785 -0.3689
10497TIP3    H152982   5.595   5.599  16.543 -0.8460  3.2634 -1.9884
10497TIP3    H252983   5.482   5.654  16.627  0.7168  1.8120  1.2545
10498TIP3   OH252984   6.103   2.465  13.848  0.7698  0.2256 -0.0000
10498TIP3    H152985   6.142   2.436  13.931 -0.6707  0.1570  0.6780
10498TIP3    H252986   6.024   2.412  13.839  0.5331  0.7380 -1.0678
10499TIP3   OH252987   5.011   4.153  14.565 -0.0435  0.4649 -0.3985
10499TIP3    H152988   5.000   4.121  14.655  0.2566  1.4548 -0.0068
10499TIP3    H252989   4.949   4.225  14.558  1.0963  1.4625 -0.4518
10500TIP3   OH252990   1.630   4.144   5.054 -0.4335  0.1514  0.6486
10500TIP3    H152991   1.680   4.096   5.121  0.4951  1.0081  0.6062
10500TIP3    H252992   1.663   4.234   5.061 -0.9393  0.4260 -0.3959
10501TIP3   OH252993   4.335   2.479   3.748 -0.1407 -0.2560  0.4380
10501TIP3    H152994   4.312   2.422   3.821 -1.0663  0.3068  0.6034
10501TIP3    H252995   4.285   2.444   3.674  2.1332 -1.9077 -0.4142
10502TIP3   OH252996   1.227   3.368  13.855  0.3230 -0.1460  0.6765
10502TIP3    H152997   1.141   3.331  13.838  0.4323 -0.2432  0.3299
10502TIP3    H252998   1.285   3.292  13.862  0.9755 -0.0220 -2.3248
10503TIP3   OH252999   6.142   2.363  13.538 -0.4642 -0.1066  0.2770
10503TIP3    H153000   6.196   2.301  13.587 -0.3359 -0.0701  0.1835
10503TIP3    H253001   6.055   2.323  13.536 -0.9959  0.8155  2.2842
10504TIP3   OH253002   5.990   3.961   5.573  0.5448 -0.5078  0.5242
10504TIP3    H153003   6.061   3.956   5.509  0.2133  3.2831 -0.3707
10504TIP3    H253004   5.913   3.984   5.521 -0.5752 -1.0448  1.8850
10505TIP3   OH253005   1.374   1.568   3.917  0.0313 -0.0640  0.2730
10505TIP3    H153006   1.342   1.478   3.910 -2.0730  0.4030  2.7366
10505TIP3    H253007   1.335   1.612   3.841 -0.0704 -0.8929 -0.1766
10506TIP3   OH253008   4.296   4.822  12.336  0.1162 -0.2111 -0.4264
10506TIP3    H153009   4.215   4.809  12.288 -0.2827  1.9534 -0.4455
10506TIP3    H253010   4.356   4.755  12.303 -1.0258 -0.5488 -1.8697
10507TIP3   OH253011   2.741   1.932  10.880  0.2687 -0.3067  0.3367
10507TIP3    H153012   2.706   1.916  10.968  0.4072 -0.7193  0.3179
10507TIP3    H253013   2.835   1.919  10.889  0.2446 -0.6740  0.0547
10508TIP3   OH253014   6.348   3.390  15.622 -0.1721 -0.2350  0.3161
10508TIP3    H153015   6.417   3.343  15.670 -1.0053  0.0949  1.8938
10508TIP3    H253016   6.271   3.334  15.631 -0.6615  0.4600  0.4809
10509TIP3   OH253017   2.537   4.560  15.514 -0.8478  0.1603 -0.3461
10509TIP3    H153018   2.567   4.505  15.443  0.7615  1.1137 -0.4600
10509TIP3    H253019   2.597   4.541  15.586 -2.4157 -0.7547  0.7767
10510TIP3   OH253020   4.266   4.812  15.095 -0.2622 -0.3425  0.2471
10510TIP3    H153021   4.226   4.732  15.130  0.4757 -0.9389 -0.2322
10510TIP3    H253022   4.261   4.801  15.000 -0.1888  0.2134  0.1744
10511TIP3   OH253023   4.491   6.575   1.041 -0.1833 -0.3463 -0.1408
10511TIP3    H153024   4.483   6.554   1.134  0.8601  0.5815  0.1906
10511TIP3    H253025   4.459   6.665   1.034  0.1204 -0.2676 -0.6006
10512TIP3   OH253026   1.753   6.029  13.492 -0.7235 -0.2135 -0.2129
10512TIP3    H153027   1.740   5.935  13.508 -0.0983 -0.0460  1.5545
10512TIP3    H253028   1.782   6.064  13.577  1.9560  1.0563 -1.5158
10513TIP3   OH253029   4.797   1.885   0.357 -0.5379  0.0392  0.0978
10513TIP3    H153030   4.729   1.830   0.395 -0.2986  0.7310  1.5825
10513TIP3    H253031   4.821   1.840   0.276 -2.1096 -0.6907 -0.0058
10514TIP3   OH253032   2.065   0.949  11.928 -0.5402  0.3766 -0.2027
10514TIP3    H153033   1.972   0.969  11.918 -0.5788  0.0289 -0.6005
10514TIP3    H253034   2.078   0.936  12.022 -0.9981 -0.0601 -0.1972
10515TIP3   OH253035   4.142   5.630  14.460 -0.4468 -0.0689 -0.3384
10515TIP3    H153036   4.166   5.714  14.499  1.0540 -1.3287  1.7111
10515TIP3    H253037   4.177   5.633  14.371  0.3605  1.1381  0.0043
10516TIP3   OH253038   1.559   1.776   3.993  0.5617  0.1094 -0.2243
10516TIP3    H153039   1.511   1.696   3.973  0.9754  0.3079 -2.3180
10516TIP3    H253040   1.649   1.747   4.008  0.6770  0.1482 -0.8138
10517TIP3   OH253041   5.657   0.705   3.818 -0.5241 -0.3912 -0.3151
10517TIP3    H153042   5.641   0.718   3.724  1.0516  0.0851 -0.5441
10517TIP3    H253043   5.633   0.788   3.858 -0.0713 -0.1830 -0.4654
10518TIP3   OH253044   1.386   2.846   4.409 -0.5247  0.3254 -0.6932
10518TIP3    H153045   1.417   2.780   4.347  1.7795  0.1256  0.5777
10518TIP3    H253046   1.413   2.929   4.370  2.0570  0.1455  0.5038
10519TIP3   OH253047   5.028   3.201  13.648 -0.3893 -0.0080 -0.2955
10519TIP3    H153048   4.962   3.143  13.611 -1.2687  0.9972 -0.3606
10519TIP3    H253049   5.078   3.231  13.572  0.0140 -0.6097 -0.2701
10520TIP3   OH253050   3.281   2.205  16.407 -0.6105  0.4630 -0.1747
10520TIP3    H153051   3.299   2.280  16.350 -3.0803  1.7719  0.6483
10520TIP3    H253052   3.359   2.197  16.462  1.8826 -0.8474 -3.5486
10521TIP3   OH253053   1.027   0.556  14.657  0.4568  0.3013  0.4747
10521TIP3    H153054   0.974   0.565  14.736  2.4715  0.9781  1.8219
10521TIP3    H253055   1.030   0.645  14.621  1.9948  0.6338  1.3465
10522TIP3   OH253056   1.185   5.241   1.193 -0.1695 -0.2230  0.6873
10522TIP3    H153057   1.258   5.302   1.202 -0.9341  0.7874  0.2331
10522TIP3    H253058   1.166   5.213   1.283  0.8909 -0.6418  0.7861
10523TIP3   OH253059   2.609   5.464   3.616 -0.0314 -0.4115 -0.1249
10523TIP3    H153060   2.673   5.399   3.645  0.4822 -0.0942 -0.5254
10523TIP3    H253061   2.544   5.413   3.567  0.6108 -0.5723 -0.8263
10524TIP3   OH253062   0.356   4.541   3.338 -0.0764 -0.7124  0.3474
10524TIP3    H153063   0.373   4.447   3.347 -0.1316 -0.8710 -1.0838
10524TIP3    H253064   0.264   4.551   3.362 -0.2400 -1.1231 -0.1017
10525TIP3   OH253065   4.618   3.624   3.060  0.1992 -0.3489 -0.4013
10525TIP3    H153066   4.571   3.603   2.980 -1.1115  1.3318 -0.1176
10525TIP3    H253067   4.552   3.622   3.129  1.1230 -0.8455  0.5022
10526TIP3   OH253068   5.871   1.431   2.617 -0.2056  0.1125  0.2820
10526TIP3    H153069   5.851   1.522   2.639 -0.3117  0.9849 -2.9016
10526TIP3    H253070   5.811   1.379   2.671 -0.7119  1.9267  1.5695
10527TIP3   OH253071   1.158   2.277  13.439  0.4999 -0.4793 -0.2356
10527TIP3    H153072   1.101   2.354  13.449 -0.5992 -0.7521 -3.2077
10527TIP3    H253073   1.225   2.306  13.377  0.7176 -1.5721 -0.5263
10528TIP3   OH253074   3.902   5.602  12.060  0.1622  0.6100  0.2956
10528TIP3    H153075   3.964   5.665  12.024 -1.1793  1.5331 -0.4634
10528TIP3    H253076   3.821   5.651  12.072 -0.7032 -0.7854  0.4180
10529TIP3   OH253077   4.072   2.034  14.466  0.0851 -0.0902 -0.3950
10529TIP3    H153078   4.100   1.973  14.534  1.0440 -0.1178 -0.8048
10529TIP3    H253079   4.142   2.033  14.402 -1.1236 -0.5952 -1.7549
10530TIP3   OH253080   5.807   4.900   0.560  0.5474  0.1299 -0.9258
10530TIP3    H153081   5.849   4.871   0.640 -0.7155 -0.8990 -0.6050
10530TIP3    H253082   5.836   4.839   0.493  0.4057  0.0681 -0.9313
10531TIP3   OH253083   5.947   6.122  15.532 -0.1410 -0.0282  0.4490
10531TIP3    H153084   6.007   6.059  15.491  0.1928 -0.5288  1.6855
10531TIP3    H253085   5.863   6.104  15.491  0.0847 -0.8413  0.3218
10532TIP3   OH253086   3.897   4.566   6.496  0.2990  0.2048 -0.3420
10532TIP3    H153087   3.978   4.558   6.445  0.7272  0.2658  0.3215
10532TIP3    H253088   3.889   4.482   6.541 -0.7875 -0.3582 -1.5266
10533TIP3   OH253089   6.690   0.950   5.435  0.7080 -0.4659 -0.1340
10533TIP3    H153090   6.719   0.860   5.448  1.6803 -0.4345 -1.7404
10533TIP3    H253091   6.708   0.967   5.342 -0.1164  1.1542 -0.0310
10534TIP3   OH253092   5.075   4.972  11.429 -0.1570  0.2236  0.0579
10534TIP3    H153093   4.988   5.008  11.413 -0.8424 -0.5922  1.6313
10534TIP3    H253094   5.132   5.049  11.434 -1.0129  0.8726  0.1991
10535TIP3   OH253095   1.737   1.140   3.555 -0.0157 -0.2520 -0.2121
10535TIP3    H153096   1.831   1.156   3.550 -0.1912  0.8778 -0.0452
10535TIP3    H253097   1.724   1.059   3.505  0.7342  0.7553 -2.1121
10536TIP3   OH253098   5.963   1.156   0.328 -0.5655 -0.5616  0.3374
10536TIP3    H153099   5.900   1.210   0.374 -3.4467 -2.3132 -1.2517
10536TIP3    H253100   5.950   1.177   0.235  2.2718  0.0209 -0.0370
10537TIP3   OH253101   1.438   2.378   0.431  0.2840 -0.3720  0.2234
10537TIP3    H153102   1.400   2.463   0.407  0.1087 -0.1925  1.1195
10537TIP3    H253103   1.363   2.320   0.438  0.1343  0.0047  2.0876
10538TIP3   OH253104   3.725   3.014  11.969  0.5790  0.0519 -0.3302
10538TIP3    H153105   3.749   3.055  11.886 -2.3467  0.3494 -1.1491
10538TIP3    H253106   3.653   2.955  11.946  1.3927 -1.8261  1.6388
10539TIP3   OH253107   5.598   0.896   0.270  0.2682 -0.5132 -0.5517
10539TIP3    H153108   5.535   0.850   0.215  0.2005 -0.0459 -0.8774
10539TIP3    H253109   5.575   0.989   0.259 -0.5570 -0.4711  1.2615
10540TIP3   OH253110   3.131   4.135  10.601  0.0917  0.0948  0.5169
10540TIP3    H153111   3.151   4.227  10.621 -0.4351  0.6099 -1.1429
10540TIP3    H253112   3.216   4.093  10.594  0.3312  0.1729  2.3193
10541TIP3   OH253113   0.300   5.444  13.321 -0.3682  0.0214  0.1655
10541TIP3    H153114   0.285   5.536  13.302 -1.0866 -0.0786  0.2298
10541TIP3    H253115   0.221   5.399  13.291 -0.3724 -0.4746  0.8793
10542TIP3   OH253116   5.272   5.594   0.486 -0.3373  0.0291  0.9817
10542TIP3    H153117   5.238   5.508   0.460 -1.4005  0.9223 -0.7501
10542TIP3    H253118   5.212   5.624   0.554  1.1650 -1.3707  3.0304
10543TIP3   OH253119   4.724   1.467   0.795 -0.2705 -0.2770 -0.1211
10543TIP3    H153120   4.702   1.378   0.824 -1.7470 -0.2067 -0.9385
10543TIP3    H253121   4.645   1.499   0.753  1.0426  0.4659 -2.2008
10544TIP3   OH253122   1.044   5.149   5.541 -0.1972 -0.0426 -0.4617
10544TIP3    H153123   0.965   5.195   5.571 -0.5681  0.1335 -1.6549
10544TIP3    H253124   1.037   5.149   5.446  0.3375 -1.6215 -0.5395
10545TIP3   OH253125   5.695   1.136   2.334  0.6497 -0.0358  0.6011
10545TIP3    H153126   5.655   1.050   2.345  2.7185 -1.1592  0.0095
10545TIP3    H253127   5.789   1.119   2.341  1.1475  2.0714 -0.2158
10546TIP3   OH253128   5.373   6.410   1.458 -0.2527  0.0366 -0.0474
10546TIP3    H153129   5.387   6.344   1.389  0.5424 -0.9835  1.0446
10546TIP3    H253130   5.279   6.409   1.473 -0.7074  1.6079 -2.3611
10547TIP3   OH253131   5.450   4.779   3.471 -0.3162 -0.1013 -0.2352
10547TIP3    H153132   5.414   4.691   3.471  0.9152 -0.6205 -0.2994
10547TIP3    H253133   5.522   4.776   3.409  1.8772  0.0125  2.1416
10548TIP3   OH253134   5.448   1.974  14.778  0.2931 -0.2744  0.0133
10548TIP3    H153135   5.430   2.025  14.698  2.2176  1.1504  0.4173
10548TIP3    H253136   5.464   2.040  14.845  1.6228 -1.3950  0.8581
10549TIP3   OH253137   1.112   2.299  16.022 -0.0082 -0.6716 -0.5584
10549TIP3    H153138   1.031   2.248  16.021  1.3180 -2.9571  0.5026
10549TIP3    H253139   1.181   2.233  16.021  1.8443  1.1904 -0.5514
10550TIP3   OH253140   4.956   0.153  11.585 -0.0400  0.0202  0.2879
10550TIP3    H153141   4.922   0.234  11.622 -0.4844 -0.1843  0.3327
10550TIP3    H253142   4.891   0.127  11.519  0.3480 -0.0359 -0.0763
10551TIP3   OH253143   1.489   3.792  12.501  0.0602 -0.5011 -0.2017
10551TIP3    H153144   1.469   3.826  12.587  2.7290 -0.0462  0.3465
10551TIP3    H253145   1.545   3.859  12.461 -0.4453 -1.0694 -1.9545
10552TIP3   OH253146   4.619   0.472  16.004 -0.2181  0.0134 -0.1110
10552TIP3    H153147   4.714   0.483  15.997 -0.3283  0.7271 -0.5962
10552TIP3    H253148   4.590   0.546  16.057 -0.5915  0.2427 -0.6276
10553TIP3   OH253149   4.606   1.876  13.961  0.2727 -0.3001  0.2703
10553TIP3    H153150   4.621   1.823  14.040 -2.9104 -3.5020 -0.9543
10553TIP3    H253151   4.685   1.866  13.909  0.3676 -2.8586  0.7579
10554TIP3   OH253152   5.931   6.568  14.170  0.9940 -0.2634  0.1046
10554TIP3    H153153   5.923   6.643  14.111 -0.0015 -0.8053 -0.4668
10554TIP3    H253154   6.006   6.590  14.226  0.5576  1.2832  0.1330
10555TIP3   OH253155   1.338   6.411  16.414  0.2182  0.2797  0.4168
10555TIP3    H153156   1.396   6.377  16.482 -0.1637  0.5163  0.8684
10555TIP3    H253157   1.285   6.335  16.388  0.1785  0.2491  0.5825
10556TIP3   OH253158   0.450   1.341   0.634 -0.5600 -0.5007  0.1398
10556TIP3    H153159   0.384   1.316   0.570  1.0403 -1.2871 -1.2706
10556TIP3    H253160   0.447   1.437   0.637 -0.5970 -0.4549 -1.1767
10557TIP3   OH253161   5.689   2.069  16.503  0.3455  0.2052 -0.5218
10557TIP3    H153162   5.691   2.010  16.579  1.6233 -0.8093 -1.3047
10557TIP3    H253163   5.760   2.038  16.447  0.5809  2.0571 -1.3081
10558TIP3   OH253164   3.865   4.501  12.895  0.0856  0.3107 -0.0891
10558TIP3    H153165   3.920   4.529  12.969 -0.6988  0.5738  0.4101
10558TIP3    H253166   3.864   4.576  12.836 -0.2674  0.5518  0.2186
10559TIP3   OH253167   3.084   1.837  13.009 -0.3554  0.1776 -0.3364
10559TIP3    H153168   3.082   1.919  13.060 -0.1158  1.5454 -2.4001
10559TIP3    H253169   3.167   1.797  13.033 -0.5564  0.4108  0.8496
10560TIP3   OH253170   2.994   2.072  15.243  0.2940 -0.3502 -0.0046
10560TIP3    H153171   2.963   2.142  15.301 -0.0255 -0.2907 -0.2468
10560TIP3    H253172   3.082   2.100  15.218  0.4737 -0.4296  0.5343
10561TIP3   OH253173   4.041   0.072  16.984  0.2975 -0.0023  0.8460
10561TIP3    H153174   3.974   0.087  17.050 -1.0263  0.0427 -0.4595
10561TIP3    H253175   4.081   0.157  16.969 -2.8134  1.1731 -1.9234
10562TIP3   OH253176   5.230   5.955  11.986  0.7345 -0.4424 -0.3063
10562TIP3    H153177   5.290   5.915  11.924  0.9674 -0.6835  0.0709
10562TIP3    H253178   5.163   5.888  12.001 -0.0652  0.1129 -1.3237
10563TIP3   OH253179   1.725   5.428   0.321 -0.0476 -0.0106 -0.2143
10563TIP3    H153180   1.757   5.477   0.396  0.6646  0.5727 -0.8713
10563TIP3    H253181   1.672   5.357   0.358  2.3627 -1.3110  0.9934
10564TIP3   OH253182   4.716   1.659  13.590 -0.0111  0.2104  0.5421
10564TIP3    H153183   4.775   1.654  13.665  1.7243 -0.1240 -0.7805
10564TIP3    H253184   4.652   1.590  13.606  2.6825 -2.7041 -0.1135
10565TIP3   OH253185   4.764   0.784  13.781 -0.1265  0.0947  0.2457
10565TIP3    H153186   4.771   0.793  13.686  1.5612  2.1168  0.5109
10565TIP3    H253187   4.733   0.694  13.793 -2.3583  0.3923 -2.2407
10566TIP3   OH253188   4.888   1.395   1.728  0.0928  0.2182  0.0609
10566TIP3    H153189   4.867   1.343   1.805 -3.6071  2.2238  0.6840
10566TIP3    H253190   4.803   1.428   1.698  1.8692  3.9264 -1.6118
10567TIP3   OH253191   1.134   3.940  15.712  0.4881  0.9274 -0.1383
10567TIP3    H153192   1.077   3.864  15.725  1.2929  0.4991  1.0966
10567TIP3    H253193   1.221   3.902  15.697  1.5643  1.5188  3.6749
10568TIP3   OH253194   5.357   3.512  11.872 -0.8138 -0.5343  0.3172
10568TIP3    H153195   5.425   3.445  11.861 -0.5074 -0.0104 -1.2612
10568TIP3    H253196   5.397   3.576  11.932 -0.6900 -1.2209  0.9709
10569TIP3   OH253197   6.761   4.417  11.176 -0.3040  0.0809 -0.4802
10569TIP3    H153198   6.780   4.422  11.082 -0.8766  0.5667 -0.5739
10569TIP3    H253199   6.771   4.506  11.208  1.0637 -0.2900  0.1661
10570TIP3   OH253200   4.903   0.520   1.307  0.1968  0.1990  0.2923
10570TIP3    H153201   4.831   0.485   1.255  1.3021 -1.4029 -0.2433
10570TIP3    H253202   4.973   0.536   1.243  1.0652 -0.3827  1.0678
10571TIP3   OH253203   2.736   6.425   5.741 -0.3413  0.3477  0.0756
10571TIP3    H153204   2.720   6.512   5.705  2.0346  0.6714 -0.3161
10571TIP3    H253205   2.686   6.424   5.823 -0.0731  2.2351  0.2961
10572TIP3   OH253206   1.321   5.985  15.163 -0.4357  0.0758  0.1844
10572TIP3    H153207   1.298   5.903  15.208  0.2168  0.2477  0.8658
10572TIP3    H253208   1.404   6.011  15.203 -0.9589  1.4208  0.4435
10573TIP3   OH253209   1.161   5.379   3.613  0.3787 -0.3164  0.2514
10573TIP3    H153210   1.086   5.327   3.644 -0.2549 -0.5202 -1.5174
10573TIP3    H253211   1.219   5.315   3.572  1.1989 -0.0575  0.9935
10574TIP3   OH253212   1.366   6.760   3.646 -0.2033 -0.2634 -0.0716
10574TIP3    H153213   1.408   6.844   3.625 -2.2164  0.7445 -0.3409
10574TIP3    H253214   1.346   6.765   3.739 -2.3188  0.5817 -0.5089
10575TIP3   OH253215   1.854   0.184   4.900  0.3147 -0.4982 -0.3640
10575TIP3    H153216   1.801   0.228   4.967 -0.3899  2.0122 -2.4174
10575TIP3    H253217   1.832   0.091   4.910 -0.4686 -0.1264  2.2197
10576TIP3   OH253218   6.258   5.750   4.241  0.4053 -0.2143  0.0491
10576TIP3    H153219   6.322   5.818   4.264  1.7647 -0.5070 -2.4005
10576TIP3    H253220   6.195   5.795   4.185 -0.1498 -0.4375  0.4937
10577TIP3   OH253221   6.418   5.364   5.853 -0.2542 -0.2184 -0.0571
10577TIP3    H153222   6.365   5.388   5.777 -1.1338  2.4342  1.2693
10577TIP3    H253223   6.362   5.382   5.928  0.2910 -3.4725  1.3407
10578TIP3   OH253224   1.239   0.443   2.936  0.2449 -0.0918 -0.4255
10578TIP3    H153225   1.247   0.348   2.931  0.1163 -0.1875  0.8162
10578TIP3    H253226   1.285   0.476   2.858 -0.5999 -1.1944 -1.4078
10579TIP3   OH253227   2.270   4.021  14.915 -0.2271 -0.3788  0.0773
10579TIP3    H153228   2.364   4.005  14.908 -0.1725 -0.0357  0.0135
10579TIP3    H253229   2.262   4.116  14.913 -0.7435 -0.4053 -2.5211
10580TIP3   OH253230   2.345   0.514  14.232  0.1553  0.0260  0.5205
10580TIP3    H153231   2.307   0.541  14.148 -0.1970  0.8144  0.9162
10580TIP3    H253232   2.318   0.583  14.293 -0.3153 -0.9733  1.4727
10581TIP3   OH253233   2.247   2.490  15.079 -0.0064 -0.3521 -0.1406
10581TIP3    H153234   2.263   2.575  15.039  3.3023 -1.4230 -1.4613
10581TIP3    H253235   2.175   2.453  15.028 -2.1294  1.8480  1.0239
10582TIP3   OH253236   2.536   2.460   5.397 -0.6905 -0.1851  0.2446
10582TIP3    H153237   2.599   2.417   5.455 -1.0076  0.2608  0.9363
10582TIP3    H253238   2.517   2.395   5.330  0.4898 -0.3359  0.0257
10583TIP3   OH253239   2.967   1.352  13.924 -0.4217 -0.3623  0.4097
10583TIP3    H153240   3.043   1.306  13.959 -0.1887 -0.0060  0.3771
10583TIP3    H253241   2.994   1.382  13.838 -0.0549  1.0814  0.9937
10584TIP3   OH253242   5.789   0.919  14.164 -0.2676 -0.0890  0.6541
10584TIP3    H153243   5.803   0.950  14.253 -1.7191 -2.4184  1.7833
10584TIP3    H253244   5.817   0.828  14.165 -0.9858 -0.3785 -1.0796
10585TIP3   OH253245   0.578   0.556  10.976  0.3466 -0.1120 -0.0137
10585TIP3    H153246   0.661   0.519  11.007  0.7318 -1.1967 -2.1652
10585TIP3    H253247   0.515   0.536  11.045  0.9752 -3.0663 -0.1882
10586TIP3   OH253248   4.994   0.848  12.660  0.2298  0.6348  0.0570
10586TIP3    H153249   4.962   0.859  12.571  1.2564 -0.3061 -0.4584
10586TIP3    H253250   4.922   0.807  12.707 -0.0214  0.3573 -0.5666
10587TIP3   OH253251   4.186   4.269  17.125 -0.1022  0.0177 -0.4313
10587TIP3    H153252   4.168   4.360  17.102 -1.3455  0.4677  1.9552
10587TIP3    H253253   4.272   4.271  17.167 -0.8018  0.4403  1.0646
10588TIP3   OH253254   4.339   3.929  16.800 -0.0045  0.9634 -0.5550
10588TIP3    H153255   4.389   3.970  16.871  1.4337  1.2753 -1.6831
10588TIP3    H253256   4.248   3.938  16.826  0.4855  0.7326  1.4162
10589TIP3   OH253257   6.707   4.688  16.716 -0.3704 -0.0109 -0.0587
10589TIP3    H153258   6.678   4.685  16.625  1.1738 -3.7137 -0.5942
10589TIP3    H253259   6.638   4.644  16.765  0.8104 -2.1142 -0.2043
10590TIP3   OH253260   2.484   3.590  13.906  0.6080  0.5018  0.4618
10590TIP3    H153261   2.404   3.618  13.861  0.0213  1.2124  1.8943
10590TIP3    H253262   2.528   3.534  13.842  0.5184  2.5361 -1.5302
10591TIP3   OH253263   2.036   6.650  15.106 -0.0527  0.0486 -0.0825
10591TIP3    H153264   2.088   6.653  15.025  0.9957  1.3057  0.5965
10591TIP3    H253265   2.062   6.729  15.153  0.5578 -1.4288  2.1999
10592TIP3   OH253266   5.085   2.045  13.281 -0.0854  0.6382 -0.0718
10592TIP3    H153267   5.083   2.053  13.186 -0.4221 -0.8927 -0.2112
10592TIP3    H253268   4.994   2.057  13.308 -0.1789 -0.0811 -0.0558
10593TIP3   OH253269   1.190   2.795  15.323  0.5771  0.3509  0.1666
10593TIP3    H153270   1.156   2.711  15.294  1.1748 -0.1980  1.0130
10593TIP3    H253271   1.141   2.860  15.272 -1.1612 -0.4321  0.7801
10594TIP3   OH253272   1.488   2.594   5.754 -0.0562  0.5364 -0.5000
10594TIP3    H153273   1.426   2.608   5.682  0.9682  0.3814 -1.4397
10594TIP3    H253274   1.434   2.597   5.833 -0.9995  2.3439 -1.1436
10595TIP3   OH253275   2.466   4.937  11.798 -0.0110  0.7395  0.4009
10595TIP3    H153276   2.460   4.947  11.703 -1.2749 -0.1917  0.3551
10595TIP3    H253277   2.557   4.911  11.813  0.3460  1.3968 -0.4938
10596TIP3   OH253278   2.857   1.898   4.480  0.7042 -0.2680  0.1793
10596TIP3    H153279   2.935   1.907   4.535  0.5638 -2.4918  0.8457
10596TIP3    H253280   2.866   1.812   4.440 -0.9160 -0.1348 -0.5598
10597TIP3   OH253281   5.681   1.230  14.267  0.4542 -0.0921  0.4754
10597TIP3    H153282   5.682   1.135  14.251  0.7255 -0.0463  0.2211
10597TIP3    H253283   5.703   1.269  14.183 -1.7946  0.2916  0.0265
10598TIP3   OH253284   4.332   0.525   3.406  0.3706 -0.1428 -0.5020
10598TIP3    H153285   4.241   0.505   3.384 -0.9149  2.1577  2.0165
10598TIP3    H253286   4.344   0.616   3.379  0.8886  0.5154  1.6675
10599TIP3   OH253287   2.494   6.455   1.825  0.4088 -0.2830  0.2196
10599TIP3    H153288   2.573   6.510   1.824 -0.3676  0.8534 -0.8696
10599TIP3    H253289   2.422   6.516   1.842 -0.5357 -0.8565 -1.5233
10600TIP3   OH253290   2.658   2.040  16.060  0.4482  0.2435  0.4195
10600TIP3    H153291   2.573   2.000  16.075  0.0213  0.9487 -0.0939
10600TIP3    H253292   2.640   2.133  16.044  1.0354 -0.0185 -2.2365
10601TIP3   OH253293   2.918   0.935   5.226  0.0924  0.1039  0.0427
10601TIP3    H153294   2.955   0.906   5.309 -0.5495  0.9247  0.6275
10601TIP3    H253295   2.959   1.020   5.209 -1.9543  1.3604  1.0525
10602TIP3   OH253296   0.027   3.942   4.305  0.2536  0.1918 -0.1937
10602TIP3    H153297  -0.036   4.003   4.267 -0.6542 -2.3132 -3.1918
10602TIP3    H253298  -0.025   3.883   4.359  0.9205  1.1514  1.5869
10603TIP3   OH253299   6.132   1.097   5.849 -0.5225 -0.3884  0.2060
10603TIP3    H153300   6.132   1.020   5.791 -0.3137 -1.4194  1.5260
10603TIP3    H253301   6.066   1.076   5.915  0.5699 -0.0936  1.4268
10604TIP3   OH253302   0.610   5.392   0.391 -0.0305 -0.3477 -0.4088
10604TIP3    H153303   0.609   5.348   0.306 -0.6856 -1.4766  0.1613
10604TIP3    H253304   0.702   5.408   0.408  0.4430 -3.0722  0.1136
10605TIP3   OH253305   5.342   2.827   5.955 -0.0364  0.0263  0.7661
10605TIP3    H153306   5.412   2.855   5.896 -0.0107  0.0030  0.7860
10605TIP3    H253307   5.383   2.764   6.014  0.2646  1.0641  1.6914
10606TIP3   OH253308   1.584   5.030  16.075  0.8505 -0.1138  0.6479
10606TIP3    H153309   1.617   4.944  16.046  0.2890  0.6317 -2.6711
10606TIP3    H253310   1.661   5.087  16.073  0.6185  0.1977 -0.7542
10607TIP3   OH253311   3.237   0.261   6.305  0.5910 -0.3576  0.1980
10607TIP3    H153312   3.320   0.213   6.299 -0.1488 -1.7199  0.2800
10607TIP3    H253313   3.260   0.346   6.341  3.0612  2.1366 -5.8506
10608TIP3   OH253314   6.397   1.818   2.966  0.4544  0.6269  0.0153
10608TIP3    H153315   6.491   1.836   2.970  0.6116 -0.3053  1.0302
10608TIP3    H253316   6.374   1.792   3.055 -0.5092 -0.4176 -0.5132
10609TIP3   OH253317   0.906   3.882   0.109 -0.5536  0.1098 -0.0312
10609TIP3    H153318   0.887   3.970   0.077 -1.6712 -0.2538 -0.4459
10609TIP3    H253319   0.959   3.895   0.187  0.2005  1.1064 -0.6928
10610TIP3   OH253320   1.389   2.527  12.592  0.1020  0.0820 -0.2042
10610TIP3    H153321   1.357   2.438  12.583  0.3377 -0.1035  0.7359
10610TIP3    H253322   1.435   2.528  12.676  2.6335  0.3121 -1.4966
10611TIP3   OH253323   5.369   4.144   3.242 -0.1911 -0.6852  0.2101
10611TIP3    H153324   5.458   4.116   3.221  0.2207 -0.7073  1.8696
10611TIP3    H253325   5.362   4.131   3.336 -1.7933 -0.2047  0.1720
10612TIP3   OH253326   4.943   1.547   2.512 -0.0744  0.0095  0.6910
10612TIP3    H153327   4.947   1.536   2.418 -2.1310  1.6194  0.3258
10612TIP3    H253328   4.993   1.627   2.530  0.3028 -0.2854  0.9709
10613TIP3   OH253329   4.459   5.588   0.574  0.9432  0.4365 -0.3702
10613TIP3    H153330   4.546   5.622   0.554  1.5335 -1.2882 -0.8867
10613TIP3    H253331   4.461   5.497   0.544 -1.3895  0.6529 -1.3907
10614TIP3   OH253332   0.677   3.024   6.299  0.0942 -0.2616 -0.5135
10614TIP3    H153333   0.684   2.945   6.245 -1.0292  0.4435 -1.7570
10614TIP3    H253334   0.649   2.992   6.385 -0.2568 -1.2279 -0.9692
10615TIP3   OH253335   3.056   1.395  16.853 -0.1860  0.6434  0.2068
10615TIP3    H153336   3.053   1.459  16.923  1.9610  1.8370 -0.6909
10615TIP3    H253337   3.140   1.351  16.865 -0.7751 -0.6886 -0.3390
10616TIP3   OH253338   1.953   0.184   4.398 -0.0301 -0.3982 -0.4949
10616TIP3    H153339   1.953   0.132   4.478  0.2300  0.1256 -0.1433
10616TIP3    H253340   2.023   0.146   4.345 -0.0792 -0.6299 -0.3938
10617TIP3   OH253341   5.875   3.985  16.605  0.5984 -0.2496  0.1456
10617TIP3    H153342   5.784   4.000  16.581  0.8127  1.9509  0.4605
10617TIP3    H253343   5.883   4.020  16.694  1.6838 -0.6609  0.2302
10618TIP3   OH253344   2.998   3.064  14.346  0.0360  0.0913 -0.5501
10618TIP3    H153345   3.018   3.137  14.288 -1.5902 -0.4856 -1.8973
10618TIP3    H253346   2.925   3.094  14.399 -1.2965 -0.8556 -1.7929
10619TIP3   OH253347   1.751   5.592   5.279 -0.2204 -0.2896  0.2633
10619TIP3    H153348   1.670   5.636   5.253 -0.9036 -1.4370  0.3712
10619TIP3    H253349   1.774   5.538   5.203  0.9373  0.6775 -0.0983
10620TIP3   OH253350   1.702   3.335  16.978  0.2994  0.7153  0.2355
10620TIP3    H153351   1.674   3.319  17.068  1.0156 -1.0688  0.1763
10620TIP3    H253352   1.789   3.372  16.985  0.4800  0.2864  0.2772
10621TIP3   OH253353   5.620   5.361  11.179  0.4515 -0.4224  0.5654
10621TIP3    H153354   5.594   5.452  11.196  0.0836 -0.3797 -0.1805
10621TIP3    H253355   5.657   5.331  11.262  0.4761  0.3724  0.8539
10622TIP3   OH253356   5.157   2.365   4.317 -0.0869  0.1063  0.0500
10622TIP3    H153357   5.190   2.279   4.344  0.1566 -0.1914 -1.1555
10622TIP3    H253358   5.073   2.347   4.276 -1.6325  0.8127  2.6679
10623TIP3   OH253359   0.736   1.219  13.375  0.2686  0.1178  0.1755
10623TIP3    H153360   0.772   1.152  13.432 -0.0597  1.3998  1.9722
10623TIP3    H253361   0.654   1.182  13.342  0.4593 -0.6391  0.5419
10624TIP3   OH253362   4.589   6.143  13.316 -0.0222  0.2003 -0.3785
10624TIP3    H153363   4.597   6.124  13.409  0.9252  1.8811 -0.0900
10624TIP3    H253364   4.629   6.067  13.273  0.8939  0.0997  0.6186
10625TIP3   OH253365   0.066   0.495   6.544  0.0721 -0.0955 -0.5846
10625TIP3    H153366   0.160   0.483   6.561  0.6602 -1.0747 -3.8420
10625TIP3    H253367   0.060   0.581   6.502 -0.6765  0.4179  0.5351
10626TIP3   OH253368   3.753   3.754  15.374 -0.6493 -0.4154 -0.0367
10626TIP3    H153369   3.823   3.731  15.313 -1.5211 -1.5460 -0.6369
10626TIP3    H253370   3.730   3.672  15.417 -2.5923 -0.3819 -0.9115
10627TIP3   OH253371   4.839   3.814  14.763 -0.1172  0.2786  0.2827
10627TIP3    H153372   4.883   3.741  14.805 -2.1706  0.0622  2.1842
10627TIP3    H253373   4.746   3.799  14.777 -0.7001  2.3659 -0.8088
10628TIP3   OH253374   5.609   5.920   6.074  0.0013  0.1323 -0.4481
10628TIP3    H153375   5.519   5.899   6.097 -0.0018  0.5534 -0.0699
10628TIP3    H253376   5.651   5.942   6.157  0.2239  0.7913 -0.7273
10629TIP3   OH253377   4.706   6.640   5.643  0.3902 -0.2732 -0.4149
10629TIP3    H153378   4.644   6.578   5.605 -0.8968  0.0626  1.0304
10629TIP3    H253379   4.652   6.701   5.693  1.7387  1.1939 -0.6476
10630TIP3   OH253380   2.635   1.480  16.141  0.4333  0.0136  0.1896
10630TIP3    H153381   2.576   1.555  16.130 -1.0062 -1.0683  0.1856
10630TIP3    H253382   2.619   1.425  16.064  0.4083 -0.9690  0.8759
10631TIP3   OH253383   1.392   2.226  12.255 -0.0730  0.6097  0.1737
10631TIP3    H153384   1.355   2.184  12.178  0.5378 -1.3351  0.8932
10631TIP3    H253385   1.317   2.262  12.302 -1.1730 -2.7914  1.3309
10632TIP3   OH253386   4.200   0.461   2.649  0.2531 -0.3211  0.4272
10632TIP3    H153387   4.190   0.413   2.567  0.4345 -0.6420  0.5879
10632TIP3    H253388   4.284   0.430   2.685  0.1211 -0.2711  0.7857
10633TIP3   OH253389   4.284   6.335   3.769  0.3629 -0.2763  0.0178
10633TIP3    H153390   4.331   6.322   3.687  0.3398  2.5487 -0.5531
10633TIP3    H253391   4.193   6.348   3.744  0.3612  0.6567  0.4331
10634TIP3   OH253392   0.973   6.399  11.162  0.0075  0.0270 -0.6630
10634TIP3    H153393   0.959   6.395  11.068 -1.3515  0.3147 -0.4960
10634TIP3    H253394   1.061   6.364  11.175 -0.2803 -1.2424 -1.9176
10635TIP3   OH253395   1.798   3.837   2.486  0.6284 -0.8140  0.1708
10635TIP3    H153396   1.712   3.796   2.499 -0.3027  0.6402 -1.0871
10635TIP3    H253397   1.841   3.831   2.572 -0.8258 -1.3392  0.8942
10636TIP3   OH253398   0.642   1.014  12.890  0.0114  0.0991  0.0845
10636TIP3    H153399   0.731   1.019  12.924 -0.5606 -0.0616  1.7259
10636TIP3    H253400   0.623   1.102  12.859  1.6954 -0.5129 -3.0228
10637TIP3   OH253401   2.317   6.346  16.376 -0.0245  0.4809 -0.5792
10637TIP3    H153402   2.346   6.437  16.386 -0.2128  0.4769  0.0004
10637TIP3    H253403   2.255   6.349  16.303 -0.4277  0.9106 -0.2277
10638TIP3   OH253404   1.706   3.861  14.719 -0.3842 -0.2518  0.1022
10638TIP3    H153405   1.760   3.870  14.797  0.0454 -1.6203 -0.0049
10638TIP3    H253406   1.622   3.900  14.743  0.3240  1.0299  0.6005
10639TIP3   OH253407   1.188   0.405   3.973 -0.7180 -0.0632 -0.2245
10639TIP3    H153408   1.238   0.438   4.048 -0.0338 -0.8813 -0.3153
10639TIP3    H253409   1.244   0.423   3.897 -1.6028  1.1812 -0.6166
10640TIP3   OH253410   5.830   3.300  12.681  0.3137 -0.0298 -0.0290
10640TIP3    H153411   5.914   3.257  12.669  0.4061  0.7502 -2.6797
10640TIP3    H253412   5.851   3.393  12.684 -0.4072  0.1429 -0.1969
10641TIP3   OH253413   3.889   2.492   2.443  0.6827  0.2406  0.1678
10641TIP3    H153414   3.848   2.473   2.359  0.8192  0.4395  0.0546
10641TIP3    H253415   3.933   2.576   2.430 -0.3832  0.9394  0.8135
10642TIP3   OH253416   5.993   4.879   4.352  0.3563  0.1427  0.1483
10642TIP3    H153417   5.967   4.820   4.423 -3.1246  0.2164 -0.9060
10642TIP3    H253418   5.991   4.966   4.391 -2.2911  0.2601 -0.1191
10643TIP3   OH253419   6.773   2.181  14.873 -0.1179  0.4667  0.0155
10643TIP3    H153420   6.706   2.246  14.899 -0.8031 -0.3591  0.3528
10643TIP3    H253421   6.855   2.230  14.875 -0.8057  1.7663 -1.3082
10644TIP3   OH253422   4.404   0.101  13.787 -0.0457 -0.4892  0.2527
10644TIP3    H153423   4.362   0.127  13.870 -2.8562 -0.3918 -1.0802
10644TIP3    H253424   4.470   0.038  13.813 -1.1264 -0.7996  2.5710
10645TIP3   OH253425   3.080   2.429  11.869  0.0167 -0.6397  0.5924
10645TIP3    H153426   3.061   2.423  11.775  2.3542  1.2835 -0.1193
10645TIP3    H253427   2.994   2.436  11.910 -1.0568  1.1130 -1.6724
10646TIP3   OH253428   4.068   3.142   0.714  0.0010  0.3916 -0.5602
10646TIP3    H153429   4.033   3.109   0.797 -2.0397  2.9992 -0.2412
10646TIP3    H253430   4.163   3.129   0.721 -0.3248 -1.5561  1.1582
10647TIP3   OH253431   6.459   2.346   1.190  0.2972  0.0137 -0.4515
10647TIP3    H153432   6.499   2.305   1.267  1.0630  0.6968 -0.4697
10647TIP3    H253433   6.419   2.273   1.142 -0.0708 -0.4416  0.5109
10648TIP3   OH253434   3.710   3.689  10.576  0.3882 -0.3761 -0.3096
10648TIP3    H153435   3.786   3.708  10.632 -0.1024  0.2742  0.1463
10648TIP3    H253436   3.655   3.767  10.582 -1.7462 -1.8922  1.6723
10649TIP3   OH253437   2.473   1.438   0.093  0.0902  0.2410 -0.2589
10649TIP3    H153438   2.542   1.414   0.155  1.0825 -0.0346 -1.4402
10649TIP3    H253439   2.480   1.534   0.085  0.9877  0.1208 -1.0924
10650TIP3   OH253440   1.631   5.382  11.069 -0.3647 -0.0771 -0.2338
10650TIP3    H153441   1.641   5.287  11.072  1.7551  0.0510 -1.2673
10650TIP3    H253442   1.626   5.402  10.976  1.7264  0.9786 -0.1753
10651TIP3   OH253443   3.885   1.870  16.478 -0.6588  0.5559  0.6864
10651TIP3    H153444   3.852   1.846  16.391 -1.6976 -1.2352  1.5344
10651TIP3    H253445   3.860   1.961  16.489 -2.0043  0.3191 -0.2310
10652TIP3   OH253446   1.813   5.715  11.505  0.0653 -0.1543  0.5754
10652TIP3    H153447   1.812   5.665  11.586 -2.2333 -1.2375 -0.0344
10652TIP3    H253448   1.796   5.650  11.437 -0.7498  1.0978 -0.4720
10653TIP3   OH253449   1.532   5.985   2.346 -0.3144 -0.0706 -0.4389
10653TIP3    H153450   1.524   5.967   2.439  1.4186  0.0514 -0.2231
10653TIP3    H253451   1.506   6.076   2.336  0.0818  0.1009  0.0448
10654TIP3   OH253452   3.673   4.968   5.181 -0.1493  0.3019  0.3922
10654TIP3    H153453   3.605   4.933   5.123  1.4487 -0.9893 -0.7977
10654TIP3    H253454   3.699   4.893   5.235 -0.0314  0.9213  1.2185
10655TIP3   OH253455   2.008   5.522   3.171  0.0229  1.0716  0.2225
10655TIP3    H153456   2.051   5.481   3.096 -0.5839  0.1816  0.3476
10655TIP3    H253457   1.989   5.611   3.141  1.3205  1.2731 -0.0658
10656TIP3   OH253458   1.588   0.169   6.771  0.0429  0.7025 -0.3795
10656TIP3    H153459   1.522   0.122   6.720  0.5276 -1.6799  1.0116
10656TIP3    H253460   1.649   0.203   6.706 -1.9056  2.0330 -1.6231
10657TIP3   OH253461   1.670   5.051   0.879 -0.6003  0.6462 -0.2507
10657TIP3    H153462   1.666   5.066   0.973 -0.1068  2.4543 -0.4880
10657TIP3    H253463   1.609   4.978   0.864  0.4485 -0.7178  1.6201
10658TIP3   OH253464   0.166   2.738  12.084 -0.1714 -0.7610 -0.3911
10658TIP3    H153465   0.200   2.765  11.999  0.4686 -2.1700 -0.6092
10658TIP3    H253466   0.220   2.786  12.147  0.1781 -0.6521 -0.7683
10659TIP3   OH253467   0.376   0.678  10.407 -0.3731 -0.9584  0.2624
10659TIP3    H153468   0.300   0.712  10.453 -0.3287  0.4815 -0.6655
10659TIP3    H253469   0.445   0.743  10.423 -0.7668  0.4542 -2.9661
10660TIP3   OH253470   1.671   2.565   5.181  0.1507 -0.2841  0.0329
10660TIP3    H153471   1.605   2.498   5.200 -0.5507  0.2096 -0.6090
10660TIP3    H253472   1.649   2.596   5.093 -0.9527  2.3662  1.1449
10661TIP3   OH253473   0.889   3.500   2.479  0.0213 -0.0147 -0.1492
10661TIP3    H153474   0.896   3.595   2.473  1.6300 -0.1049 -0.0315
10661TIP3    H253475   0.867   3.484   2.571 -0.0548  0.2202 -0.1245
10662TIP3   OH253476   6.058   0.327  14.282 -0.0335  0.0287 -0.1200
10662TIP3    H153477   6.058   0.247  14.229 -2.1536  0.1294 -0.3588
10662TIP3    H253478   6.073   0.398  14.220 -1.7766  0.0817 -0.5365
10663TIP3   OH253479   3.536   4.315  14.546  0.0868  0.1390 -0.1413
10663TIP3    H153480   3.607   4.261  14.580 -0.1418  0.3372  0.6793
10663TIP3    H253481   3.487   4.343  14.624 -1.8317 -1.2661 -0.7438
10664TIP3   OH253482   5.252   2.854  16.209 -0.9185  0.0328 -0.0344
10664TIP3    H153483   5.249   2.782  16.146 -1.9755  1.5254 -1.8016
10664TIP3    H253484   5.343   2.884  16.206 -0.3405 -1.4826  1.0928
10665TIP3   OH253485   2.636   6.315  11.311  0.5343  0.0440  0.1625
10665TIP3    H153486   2.546   6.296  11.337  0.1486  0.0607 -1.0937
10665TIP3    H253487   2.674   6.229  11.292  1.2811 -0.1067  2.1442
10666TIP3   OH253488   4.467   1.617   5.453  1.1049  0.8167 -0.5044
10666TIP3    H153489   4.540   1.556   5.455 -0.4269 -1.0891  0.0670
10666TIP3    H253490   4.393   1.565   5.422 -0.3518  2.2900  0.3692
10667TIP3   OH253491   2.023   1.081  16.355 -0.3937  0.2603  0.1661
10667TIP3    H153492   2.054   1.068  16.265 -0.7314  1.1199 -0.0794
10667TIP3    H253493   1.947   1.139  16.346 -2.0862 -1.7231  0.7459
10668TIP3   OH253494   2.443   5.238   0.124  0.7258 -0.0978 -0.1067
10668TIP3    H153495   2.442   5.251   0.029  2.8142  1.8743  0.0277
10668TIP3    H253496   2.357   5.203   0.145 -0.1381  0.3117 -2.6100
10669TIP3   OH253497   6.152   4.091  17.043 -0.3612 -0.0516 -0.0417
10669TIP3    H153498   6.228   4.034  17.025 -0.2427  0.3772 -0.9522
10669TIP3    H253499   6.191   4.173  17.073 -0.4872 -0.0644  0.1528
10670TIP3   OH253500   6.772   6.564   2.052 -0.0053 -0.3911  0.4635
10670TIP3    H153501   6.738   6.569   2.142 -2.0203 -0.3386 -0.2694
10670TIP3    H253502   6.806   6.652   2.035 -1.7568  0.3214  0.4022
10671TIP3   OH253503   3.213   6.387  12.462 -0.0176  0.0535  0.1564
10671TIP3    H153504   3.243   6.456  12.403  0.2034 -0.2463 -0.0853
10671TIP3    H253505   3.135   6.351  12.419  0.0061 -0.0088  0.1661
10672TIP3   OH253506   5.641   0.351  13.589 -0.5365  0.2949 -0.4307
10672TIP3    H153507   5.730   0.328  13.561 -1.5038 -1.7006 -2.1231
10672TIP3    H253508   5.592   0.360  13.507 -1.9485  1.2387  0.4794
10673TIP3   OH253509   2.637   6.548   1.044  0.5147 -0.7047  0.7800
10673TIP3    H153510   2.655   6.611   1.114  0.0631  0.3258  0.0020
10673TIP3    H253511   2.559   6.582   1.000  1.3052 -0.8154 -0.7970
10674TIP3   OH253512   4.272   6.828   3.135  0.4186  0.0220  0.0908
10674TIP3    H153513   4.178   6.827   3.154  0.2959 -2.1490 -0.2745
10674TIP3    H253514   4.277   6.809   3.041  1.2122 -0.6704  0.2630
10675TIP3   OH253515   1.469   3.694   2.554  0.1976 -0.2612 -0.6068
10675TIP3    H153516   1.384   3.673   2.517 -1.0152 -0.5863  2.0751
10675TIP3    H253517   1.469   3.651   2.640  1.5066  2.7527  1.0692
10676TIP3   OH253518   3.824   6.017   2.790  0.8668  0.1080  0.7230
10676TIP3    H153519   3.779   6.050   2.867  0.8543  1.2864  0.2379
10676TIP3    H253520   3.916   6.041   2.803  0.5105  2.7416 -0.7562
10677TIP3   OH253521   6.743   1.117  10.666 -0.6769 -0.2263 -0.2488
10677TIP3    H153522   6.834   1.138  10.645 -0.4227  0.4561  1.4004
10677TIP3    H253523   6.723   1.041  10.611  1.3912 -1.3692  0.4782
10678TIP3   OH253524   4.907   3.858  16.582 -0.5198 -0.4764 -0.0745
10678TIP3    H153525   4.877   3.869  16.672  0.0235 -1.3273  0.2231
10678TIP3    H253526   4.997   3.825  16.590  0.7672  2.4338 -0.9312
10679TIP3   OH253527   4.710   5.243  15.402 -0.0032 -0.2194 -0.0592
10679TIP3    H153528   4.769   5.199  15.463 -1.7201 -0.3698  1.5747
10679TIP3    H253529   4.761   5.317  15.369  0.6872  0.5360  2.4280
10680TIP3   OH253530   3.712   6.022  14.227 -0.5444  0.4018  0.3415
10680TIP3    H153531   3.750   5.938  14.251 -0.0134  0.4387 -0.3622
10680TIP3    H253532   3.740   6.037  14.137 -2.5708  0.2264 -0.3822
10681TIP3   OH253533   5.014   0.225   2.627  0.2560 -0.5253 -0.0288
10681TIP3    H153534   4.937   0.173   2.602  0.1408 -0.2890 -0.1651
10681TIP3    H253535   5.054   0.248   2.543  0.8200 -1.1629  0.0543
10682TIP3   OH253536   5.519   3.349  17.204 -0.3090  0.3571  0.2546
10682TIP3    H153537   5.589   3.372  17.143  0.1068 -1.9090 -0.2327
10682TIP3    H253538   5.445   3.327  17.148  0.1895 -2.1123  0.4288
10683TIP3   OH253539   6.399   2.491   3.868  0.0734  0.2329 -0.2366
10683TIP3    H153540   6.312   2.487   3.907  0.0840 -0.0258 -0.2335
10683TIP3    H253541   6.437   2.573   3.899  0.2277 -0.1513  0.6082
10684TIP3   OH253542   3.302   6.333  13.335 -0.7327 -0.1997  0.8597
10684TIP3    H153543   3.343   6.385  13.266 -1.0256 -0.6023  0.3858
10684TIP3    H253544   3.228   6.289  13.293  1.8344 -4.3386  0.1042
10685TIP3   OH253545   5.659   6.327  13.409  0.9753 -0.2738 -0.0932
10685TIP3    H153546   5.637   6.274  13.485  0.9237 -2.6767 -1.6571
10685TIP3    H253547   5.695   6.408  13.445 -0.1874 -0.7920  2.4465
10686TIP3   OH253548   6.300   5.512   2.394 -0.1761  0.9527  0.0308
10686TIP3    H153549   6.350   5.561   2.460  1.7683  0.9428 -1.3357
10686TIP3    H253550   6.275   5.431   2.439 -0.7644  1.8392  1.3812
10687TIP3   OH253551   2.461   1.896  13.377 -0.8971 -0.5135 -0.4317
10687TIP3    H153552   2.408   1.835  13.325 -3.8309  0.6162  1.0339
10687TIP3    H253553   2.419   1.900  13.462  0.6371  1.7031  0.3430
10688TIP3   OH253554   0.870   0.806   0.200 -0.4544  0.4276 -0.0311
10688TIP3    H153555   0.794   0.836   0.249  0.5467 -0.0179  1.8979
10688TIP3    H253556   0.856   0.837   0.111 -1.5611  2.7388  0.8871
10689TIP3   OH253557   2.336   1.759   3.311  0.1493  0.2934 -0.8845
10689TIP3    H153558   2.282   1.835   3.331  1.7293  1.0406  0.7462
10689TIP3    H253559   2.332   1.752   3.216 -0.5008  2.0452 -1.0272
10690TIP3   OH253560   5.313   5.937  16.588  0.3775 -0.0440  0.6852
10690TIP3    H153561   5.389   5.991  16.567  0.6911 -0.1269  1.5835
10690TIP3    H253562   5.240   5.998  16.588  0.5835  0.2028  0.7127
10691TIP3   OH253563   5.829   0.440   1.112  0.0194 -0.0264  0.6088
10691TIP3    H153564   5.846   0.471   1.023 -0.8519  1.1492  0.8379
10691TIP3    H253565   5.791   0.353   1.100 -1.8326  0.8508 -0.2864
10692TIP3   OH253566   2.971   2.391   3.526  0.4347 -0.1734 -0.0855
10692TIP3    H153567   3.031   2.353   3.590 -2.5593 -1.8447  1.9761
10692TIP3    H253568   2.962   2.482   3.553  1.4990 -0.0600 -0.0541
10693TIP3   OH253569   6.301   6.137  13.335 -0.0472 -0.6565  0.1768
10693TIP3    H153570   6.237   6.196  13.297  1.7099 -0.2789 -2.4599
10693TIP3    H253571   6.348   6.190  13.399 -0.9715 -0.3547  0.6262
10694TIP3   OH253572   6.629   5.384  14.842  0.1802  0.7711  0.0824
10694TIP3    H153573   6.702   5.386  14.780  1.1371  0.6772  1.1452
10694TIP3    H253574   6.556   5.348  14.793  1.3790 -0.9742 -0.5151
10695TIP3   OH253575   4.247   0.092   1.880  0.1206  0.4530 -0.1521
10695TIP3    H153576   4.228   0.014   1.931 -2.2816  1.3039  0.3489
10695TIP3    H253577   4.189   0.160   1.915 -0.5014  1.5053 -2.9176
10696TIP3   OH253578   1.606   3.630   4.869 -0.2621  0.0244 -0.2010
10696TIP3    H153579   1.522   3.672   4.848 -0.1672  0.6492  0.6203
10696TIP3    H253580   1.623   3.654   4.960  2.0168  2.0549 -1.0487
10697TIP3   OH253581   1.398   3.942   2.728 -0.1181 -0.0616 -0.1961
10697TIP3    H153582   1.431   3.935   2.639  0.4072 -1.1696  0.0702
10697TIP3    H253583   1.303   3.951   2.718 -0.0735 -0.2975 -0.8669
10698TIP3   OH253584   2.486   0.276   5.427 -0.3547  0.6657  0.2756
10698TIP3    H153585   2.443   0.191   5.419  0.9556  0.0921 -1.3376
10698TIP3    H253586   2.455   0.326   5.352  0.1512  0.9997  0.2809
10699TIP3   OH253587   6.407   3.225  13.369 -0.1264 -0.0150  0.7327
10699TIP3    H153588   6.498   3.215  13.344 -0.5913  1.0343 -1.5767
10699TIP3    H253589   6.394   3.320  13.378 -1.3517 -0.0191 -0.6097
10700TIP3   OH253590   3.940   5.330  12.790  0.7453  0.0057 -0.8670
10700TIP3    H153591   3.951   5.420  12.758  0.8997  0.4229  0.3061
10700TIP3    H253592   4.019   5.313  12.842  0.6050 -0.7182 -0.8744
10701TIP3   OH253593   3.004   2.351   4.942  0.8251 -0.5652 -0.1507
10701TIP3    H153594   2.960   2.420   4.992  2.0038 -0.0429  0.2016
10701TIP3    H253595   3.031   2.394   4.861 -1.0700 -1.4057 -1.2978
10702TIP3   OH253596   0.313   1.409  15.363 -0.0725  0.5425 -0.2179
10702TIP3    H153597   0.277   1.372  15.444  0.7391  1.1655  0.4507
10702TIP3    H253598   0.239   1.454  15.322 -0.8533 -1.0355 -0.5979
10703TIP3   OH253599   0.840   2.833  10.675 -0.0017  0.0017 -0.2482
10703TIP3    H153600   0.801   2.872  10.597  0.4973 -0.6437 -0.8427
10703TIP3    H253601   0.769   2.784  10.715  0.0320 -0.7186 -1.0225
10704TIP3   OH253602   0.410   2.461  13.095 -0.0617 -0.5511  0.1147
10704TIP3    H153603   0.417   2.371  13.127  0.7072 -0.6243 -0.2577
10704TIP3    H253604   0.325   2.465  13.052 -0.4439 -0.8771  0.8201
10705TIP3   OH253605   4.070   4.913  14.528  0.3750 -0.2837 -0.1297
10705TIP3    H153606   4.004   4.847  14.507  0.6463 -0.9826  1.0674
10705TIP3    H253607   4.125   4.917  14.450 -1.0976  0.3675 -1.1782
10706TIP3   OH253608   2.966   5.000  13.927  0.4068 -0.5699  0.3470
10706TIP3    H153609   2.871   5.009  13.920  0.6289  0.9161 -2.0142
10706TIP3    H253610   2.980   4.906  13.937 -1.2961 -0.8836  0.1577
10707TIP3   OH253611   3.634   1.789   2.195  0.1041 -0.1504 -0.0755
10707TIP3    H153612   3.715   1.753   2.159 -0.8166 -0.8816 -1.5304
10707TIP3    H253613   3.566   1.727   2.169 -1.1092  1.0999 -0.0281
10708TIP3   OH253614   0.879   1.802   1.584  0.8144  0.6386 -0.0910
10708TIP3    H153615   0.884   1.721   1.634 -0.9642 -0.6368 -1.8065
10708TIP3    H253616   0.966   1.811   1.544  1.4966  0.4219  1.2798
10709TIP3   OH253617   4.205   0.290  14.768 -0.4799  0.1857  0.2065
10709TIP3    H153618   4.176   0.236  14.841 -0.4703 -0.4944 -0.2828
10709TIP3    H253619   4.229   0.227  14.699 -2.9981  0.8082 -1.3648
10710TIP3   OH253620   6.240   6.181  14.800  0.1163  0.0325 -0.3581
10710TIP3    H153621   6.213   6.218  14.885 -3.2761  0.1305 -1.3394
10710TIP3    H253622   6.268   6.092  14.820  0.1423  0.3213  0.9712
10711TIP3   OH253623   1.589   5.247  11.965  0.2514 -0.7022 -0.4066
10711TIP3    H153624   1.619   5.183  11.900 -0.3555 -1.0972 -0.3058
10711TIP3    H253625   1.495   5.231  11.974  0.5802 -1.8412  1.8167
10712TIP3   OH253626   4.660   2.800   4.394 -0.1084 -0.4952  0.2764
10712TIP3    H153627   4.748   2.765   4.379  0.0534 -0.9207  2.0011
10712TIP3    H253628   4.659   2.883   4.346  0.7297 -1.1569 -0.9421
10713TIP3   OH253629   4.434   2.184  13.025  0.1256 -0.1005 -0.2970
10713TIP3    H153630   4.480   2.123  12.967 -0.1712 -0.3514 -0.2680
10713TIP3    H253631   4.410   2.257  12.968  1.5520  0.5737 -0.0859
10714TIP3   OH253632   2.136   1.665   6.352  0.2545 -0.8877 -0.1149
10714TIP3    H153633   2.070   1.663   6.422  0.0882  0.3106 -0.2143
10714TIP3    H253634   2.099   1.611   6.283 -2.4694  2.5788 -1.6933
10715TIP3   OH253635   2.079   1.833   1.440  0.0656  0.5750  0.8300
10715TIP3    H153636   2.161   1.788   1.421  0.1956  0.7456  0.9955
10715TIP3    H253637   2.092   1.874   1.525  0.4495  2.1358  0.0453
10716TIP3   OH253638   0.652   2.971  15.104  0.1493  0.0209 -0.0643
10716TIP3    H153639   0.598   2.970  15.025  0.3241 -0.1127 -0.1833
10716TIP3    H253640   0.591   2.957  15.176 -0.1654  1.1552 -0.0876
10717TIP3   OH253641   0.037   5.161  14.663 -0.2576  0.3477 -0.1744
10717TIP3    H153642   0.087   5.080  14.662 -1.0720 -0.1723  0.3531
10717TIP3    H253643   0.061   5.205  14.582  1.0308  0.1054  0.0467
10718TIP3   OH253644   6.179   3.630   4.898 -0.2395 -0.2450 -0.5086
10718TIP3    H153645   6.179   3.718   4.860  0.5083 -0.7277 -1.6875
10718TIP3    H253646   6.149   3.574   4.827  2.1200 -1.3032 -0.7679
10719TIP3   OH253647   4.567   4.893  11.822 -0.6388  0.2521 -0.4146
10719TIP3    H153648   4.596   4.886  11.731 -2.4599  2.5038 -1.2670
10719TIP3    H253649   4.498   4.959  11.820 -1.8129 -0.7380  2.3732
10720TIP3   OH253650   6.290   1.267  16.732 -0.5744 -0.3610  0.5263
10720TIP3    H153651   6.232   1.265  16.655 -1.0237 -0.7100  0.8669
10720TIP3    H253652   6.235   1.298  16.803 -0.1419  0.0192  0.7002
10721TIP3   OH253653   4.955   2.532  10.738  0.0486  0.0434  0.3304
10721TIP3    H153654   4.951   2.439  10.716  1.5717 -0.0726  0.4793
10721TIP3    H253655   4.886   2.572  10.686 -0.0677 -1.0456 -0.3712
10722TIP3   OH253656   0.804   6.800   3.583 -0.2329 -0.5438  0.2710
10722TIP3    H153657   0.899   6.791   3.595 -0.2136 -2.5305 -0.8356
10722TIP3    H253658   0.768   6.785   3.670  0.4882  2.6016  1.2327
10723TIP3   OH253659   2.500   0.981   0.587  0.2233  0.2070  0.5867
10723TIP3    H153660   2.535   0.923   0.519  0.0176  0.1534  0.5264
10723TIP3    H253661   2.440   0.926   0.637  0.7626  0.1072  1.1344
10724TIP3   OH253662   0.042   1.456   4.453 -0.0257  0.7130  0.2491
10724TIP3    H153663   0.082   1.533   4.494 -1.1374  1.9457 -0.8942
10724TIP3    H253664   0.107   1.386   4.466  1.1513  1.8929  1.0548
10725TIP3   OH253665   4.745   6.174   0.007  0.6834  0.2823 -0.0853
10725TIP3    H153666   4.697   6.176  -0.076  0.4043 -0.4094  0.0551
10725TIP3    H253667   4.775   6.264   0.019 -0.8032  0.7994 -0.0394
10726TIP3   OH253668   3.882   5.547   3.869 -0.2281 -0.2569 -0.3496
10726TIP3    H153669   3.894   5.545   3.774 -1.9015 -0.9343 -0.5777
10726TIP3    H253670   3.886   5.455   3.896 -0.4229 -0.1241  0.1439
10727TIP3   OH253671   2.054   6.264   1.029 -0.0579 -0.3318  0.0100
10727TIP3    H153672   2.014   6.351   1.026  0.8623  0.0982 -0.1060
10727TIP3    H253673   1.981   6.204   1.013 -0.1844  0.5356 -3.4615
10728TIP3   OH253674   1.594   3.555   1.589  0.2210  0.0621  0.4348
10728TIP3    H153675   1.627   3.477   1.635 -0.2509 -0.4119 -0.0138
10728TIP3    H253676   1.669   3.613   1.584  1.2230 -1.2811 -1.1719
10729TIP3   OH253677   4.319   6.216  16.453 -0.4368 -0.4218 -0.3737
10729TIP3    H153678   4.383   6.243  16.387  1.1150 -1.0131  0.8444
10729TIP3    H253679   4.272   6.297  16.474 -0.2631 -0.0199 -1.4375
10730TIP3   OH253680   5.546   3.762   5.140 -0.3394 -0.0062 -0.0706
10730TIP3    H153681   5.615   3.756   5.074  1.1603 -1.1510  1.4729
10730TIP3    H253682   5.555   3.681   5.190 -1.0383  1.0258  1.8295
10731TIP3   OH253683   5.225   5.200   3.952 -0.7591  0.7805 -0.2448
10731TIP3    H153684   5.319   5.188   3.939 -0.7856  1.1454 -0.7946
10731TIP3    H253685   5.185   5.134   3.895 -0.8265 -0.2854  0.9976
10732TIP3   OH253686   0.103   0.869   1.999 -0.2124 -0.1902  0.0996
10732TIP3    H153687   0.088   0.920   2.078  2.7356  0.2693  0.4810
10732TIP3    H253688   0.086   0.779   2.025  1.6766 -0.1649  1.6127
10733TIP3   OH253689   5.229   2.010  12.683 -0.7122  0.2593  0.4060
10733TIP3    H153690   5.189   2.041  12.602  2.7603  0.7424 -1.3587
10733TIP3    H253691   5.281   2.084  12.714  0.6603 -0.9667  1.1695
10734TIP3   OH253692   2.355   2.842  12.654 -0.3579 -0.9792  0.2444
10734TIP3    H153693   2.292   2.827  12.724  1.1045 -0.2653  1.7946
10734TIP3    H253694   2.439   2.819  12.692  0.2932 -2.5563 -1.9840
10735TIP3   OH253695   4.749   5.795  15.327 -0.0575  0.2494 -0.0945
10735TIP3    H153696   4.689   5.740  15.377  0.0105  0.7779  0.5921
10735TIP3    H253697   4.793   5.849  15.393  1.8238 -0.7144 -0.4819
10736TIP3   OH253698   0.830   5.014  12.989  0.3484 -0.4316  0.8404
10736TIP3    H153699   0.892   5.087  12.977  1.6594 -1.4264  1.3456
10736TIP3    H253700   0.744   5.053  12.973  1.1379  0.8616 -0.5243
10737TIP3   OH253701   2.517   3.859  16.203 -0.2027  0.4007  0.1599
10737TIP3    H153702   2.478   3.781  16.241  2.3077 -1.1158 -0.1103
10737TIP3    H253703   2.554   3.829  16.119  2.7495  1.2082  1.0366
10738TIP3   OH253704   0.940   0.037   4.230 -0.5620  0.3916  0.1776
10738TIP3    H153705   1.013   0.040   4.168 -0.9430 -0.3921 -0.3179
10738TIP3    H253706   0.978   0.002   4.311 -0.5345 -0.6698 -0.2894
10739TIP3   OH253707   6.653   0.585   4.396 -0.0210  0.2998  0.0804
10739TIP3    H153708   6.648   0.652   4.464 -3.9665  1.0722 -0.7614
10739TIP3    H253709   6.593   0.516   4.425  1.4435 -1.3780 -0.6713
10740TIP3   OH253710   1.807   3.998  15.826  0.0463 -0.0836  0.8922
10740TIP3    H153711   1.769   4.085  15.815  0.6468  0.0348 -0.4801
10740TIP3    H253712   1.865   4.006  15.902  2.3753  1.5920 -0.8890
10741TIP3   OH253713   1.806   3.766   6.154 -0.0410  0.1588  0.1037
10741TIP3    H153714   1.899   3.767   6.175  0.1434 -0.3916 -0.6204
10741TIP3    H253715   1.782   3.858   6.146  0.9053  0.3087 -1.5426
10742TIP3   OH253716   5.460   5.691  13.510 -0.1722  0.0708 -0.2938
10742TIP3    H153717   5.460   5.600  13.480  0.6595  0.4837 -1.5965
10742TIP3    H253718   5.552   5.714  13.517 -0.3601  0.4459  1.2612
10743TIP3   OH253719   0.293   5.469  10.798  0.4095  0.1180 -0.1321
10743TIP3    H153720   0.205   5.448  10.767  0.2980 -0.0772  0.3039
10743TIP3    H253721   0.352   5.430  10.733  0.1796 -0.1944 -0.1547
10744TIP3   OH253722   4.406   1.264  13.706  0.5710  0.0672  0.3048
10744TIP3    H153723   4.423   1.186  13.759 -0.7486 -0.7377 -0.3973
10744TIP3    H253724   4.464   1.255  13.631 -0.9248 -1.2893 -0.7521
10745TIP3   OH253725   1.510   5.745   2.227  0.5117  0.1662  0.0543
10745TIP3    H153726   1.511   5.833   2.264  0.6365  0.4125 -0.5232
10745TIP3    H253727   1.603   5.725   2.212  0.4887 -0.0935  0.2525
10746TIP3   OH253728   2.412   4.053   3.356  0.3455  0.0989 -0.1815
10746TIP3    H153729   2.380   3.972   3.397  2.8283 -0.3720  1.0771
10746TIP3    H253730   2.384   4.122   3.416 -0.9061  0.0762 -0.7208
10747TIP3   OH253731   3.001   3.194   4.595 -0.4844  0.1937  0.6742
10747TIP3    H153732   2.994   3.099   4.598 -0.5106  0.1638 -0.1002
10747TIP3    H253733   2.953   3.219   4.516 -1.0489  0.9068  1.2296
10748TIP3   OH253734   1.095   0.154  11.744 -0.3134  0.3984  0.0115
10748TIP3    H153735   1.126   0.244  11.736  0.8584  0.0055 -0.0674
10748TIP3    H253736   1.144   0.118  11.817 -0.2808 -0.3730 -0.3755
10749TIP3   OH253737   3.702   1.199  15.922 -0.1763 -0.1348  0.7420
10749TIP3    H153738   3.774   1.258  15.945  0.7063 -1.1906  0.7162
10749TIP3    H253739   3.695   1.205  15.827  1.6455 -1.9953  0.4302
10750TIP3   OH253740   1.748   4.322   1.567 -0.1534  0.3544  0.5202
10750TIP3    H153741   1.765   4.416   1.570 -1.1786  0.5986 -0.5491
10750TIP3    H253742   1.804   4.285   1.635 -0.2277  1.8125  1.4035
10751TIP3   OH253743   2.277   4.363   3.148 -0.5591 -0.0644 -0.0782
10751TIP3    H153744   2.353   4.405   3.189  0.4410 -0.0319 -1.8756
10751TIP3    H253745   2.308   4.276   3.122 -0.3427  0.7365 -2.8738
10752TIP3   OH253746   0.316   2.504  12.141 -0.0879  0.0483  0.0678
10752TIP3    H153747   0.255   2.557  12.089  0.1365 -0.7526 -1.0452
10752TIP3    H253748   0.262   2.468  12.212 -0.9502 -0.6899 -0.9242
10753TIP3   OH253749   2.608   2.834   4.709 -0.6936 -0.3820 -0.4777
10753TIP3    H153750   2.631   2.741   4.705 -1.4204 -0.5713 -0.4865
10753TIP3    H253751   2.684   2.876   4.749 -1.1186 -1.2582  1.3544
10754TIP3   OH253752   2.468   0.109   0.215 -0.0429  0.3421  0.5066
10754TIP3    H153753   2.522   0.184   0.190 -0.4606  0.6673  0.5743
10754TIP3    H253754   2.506   0.080   0.298  0.4477  0.1482  0.2182
10755TIP3   OH253755   4.927   5.004  12.194 -0.0986 -0.8093  0.8062
10755TIP3    H153756   4.888   4.954  12.123  0.1246 -1.5269  1.1776
10755TIP3    H253757   4.997   4.947  12.228  1.3254  0.4469  0.1168
10756TIP3   OH253758   3.395   3.840  14.157 -0.1086  0.4719 -0.4195
10756TIP3    H153759   3.474   3.837  14.102 -0.3661 -1.2077 -0.7702
10756TIP3    H253760   3.345   3.763  14.130 -0.9049  0.3735  1.2112
10757TIP3   OH253761   3.691   5.596   1.157  0.0919  0.0217  0.2518
10757TIP3    H153762   3.639   5.674   1.177 -0.2130 -0.4198  1.2826
10757TIP3    H253763   3.722   5.610   1.068 -1.6592  0.3801 -0.3409
10758TIP3   OH253764   0.843   0.558  13.494 -0.2058 -0.0938  0.2084
10758TIP3    H153765   0.755   0.580  13.462 -0.9692 -2.0121  0.8827
10758TIP3    H253766   0.894   0.543  13.414 -0.4240  1.0987 -0.1899
10759TIP3   OH253767   5.946   3.516   3.303  0.2163  0.5034 -0.5231
10759TIP3    H153768   6.038   3.489   3.305 -0.0727 -0.4611  0.9808
10759TIP3    H253769   5.900   3.451   3.356 -1.6779 -0.2203 -2.8703
10760TIP3   OH253770   3.431   4.477  14.745 -0.5943  1.0496  0.1618
10760TIP3    H153771   3.416   4.568  14.772  0.3968  0.8155  1.5973
10760TIP3    H253772   3.370   4.426  14.798 -0.2176  0.7706  0.3326
10761TIP3   OH253773   4.504   0.990  13.689  0.0515 -0.3252  0.3881
10761TIP3    H153774   4.529   0.906  13.651  0.0277 -0.4263  0.6004
10761TIP3    H253775   4.587   1.035  13.703  0.0139  0.2508 -1.0189
10762TIP3   OH253776   6.517   1.853  12.066  0.3234  0.0442  0.4625
10762TIP3    H153777   6.591   1.851  12.005  1.8875 -1.6721  2.2395
10762TIP3    H253778   6.489   1.761  12.072  0.4738  0.0772  2.5111
10763TIP3   OH253779   6.759   4.745   3.835 -0.4033 -0.5400 -0.0730
10763TIP3    H153780   6.782   4.809   3.902  1.6921 -0.1796 -1.0616
10763TIP3    H253781   6.713   4.794   3.768 -1.8367 -0.7637  0.7026
10764TIP3   OH253782   1.076   5.741   6.332  0.2327  0.2384 -0.1780
10764TIP3    H153783   1.033   5.745   6.247  1.2621  0.1936 -0.7245
10764TIP3    H253784   1.011   5.774   6.394 -0.0620  1.6056 -1.1670
10765TIP3   OH253785   6.048   2.466  11.228 -0.2500  0.4713  0.0061
10765TIP3    H153786   6.078   2.390  11.277 -1.6831  1.7171  3.0966
10765TIP3    H253787   6.079   2.451  11.139  3.4467 -1.4974  1.3990
10766TIP3   OH253788   5.228   2.872   2.382  0.0402 -0.0021  0.9808
10766TIP3    H153789   5.178   2.877   2.301  0.7880  1.0254  0.5626
10766TIP3    H253790   5.187   2.801   2.431  0.1606 -1.3242 -0.6967
10767TIP3   OH253791   2.807   6.195  13.818 -0.2295 -0.2331  0.0701
10767TIP3    H153792   2.827   6.145  13.740  0.4224  0.1116  0.0067
10767TIP3    H253793   2.712   6.200  13.820 -0.2581 -0.4578 -0.5618
10768TIP3   OH253794   1.999   3.257  11.924 -0.4464 -0.3208  0.1384
10768TIP3    H153795   2.033   3.336  11.882 -2.3850 -0.3503 -1.6378
10768TIP3    H253796   2.035   3.185  11.871 -0.0376 -0.5545  0.7281
10769TIP3   OH253797   0.493   2.869  16.675 -0.4085  0.2587 -0.0202
10769TIP3    H153798   0.408   2.834  16.649  0.0062 -0.4776 -0.3989
10769TIP3    H253799   0.519   2.816  16.750  0.6940 -0.9696 -1.2302
10770TIP3   OH253800   4.603   2.662  14.341  0.7334  0.2583 -1.0739
10770TIP3    H153801   4.528   2.667  14.282 -0.4236 -0.0059  0.3265
10770TIP3    H253802   4.608   2.748  14.381 -1.1221 -0.6989  1.4826
10771TIP3   OH253803   5.099   4.727   5.150 -0.0164  0.1303 -0.1782
10771TIP3    H153804   5.021   4.692   5.108 -0.1476 -0.7095  0.7318
10771TIP3    H253805   5.153   4.650   5.168  0.4129  0.5623  0.4251
10772TIP3   OH253806   0.396   0.421  11.164 -0.2848  0.0601  0.2548
10772TIP3    H153807   0.351   0.505  11.155  1.5965  0.9447 -2.3621
10772TIP3    H253808   0.330   0.355  11.141 -1.3618  0.9189  0.8029
10773TIP3   OH253809   4.283   0.141  11.565  0.3670  0.1520  0.3541
10773TIP3    H153810   4.207   0.096  11.601  0.7733  0.3595  1.5188
10773TIP3    H253811   4.274   0.131  11.470 -1.8396  1.3303  0.3546
10774TIP3   OH253812   5.800   2.418  17.113  0.1946 -0.2455  0.5109
10774TIP3    H153813   5.734   2.479  17.079 -0.2372 -0.5381  0.8150
10774TIP3    H253814   5.877   2.434  17.059 -0.9866 -1.9510 -1.8404
10775TIP3   OH253815   0.315   0.850   1.791  0.7128 -0.3639  0.5663
10775TIP3    H153816   0.306   0.877   1.883  2.4760 -0.2681  0.7376
10775TIP3    H253817   0.297   0.930   1.741  2.1688  0.2411  0.9464
10776TIP3   OH253818   3.123   3.438  11.842  0.5498 -0.1396  0.1171
10776TIP3    H153819   3.057   3.396  11.787 -1.1387 -1.2211  2.7719
10776TIP3    H253820   3.195   3.375  11.845  0.6700 -0.0630 -0.8040
10777TIP3   OH253821   0.212   0.920   5.144  0.0461  0.3214 -0.1287
10777TIP3    H153822   0.120   0.915   5.170  0.5721  0.2186  1.9003
10777TIP3    H253823   0.247   0.994   5.193  1.0540  0.3517 -0.8617
10778TIP3   OH253824   1.579   0.565  10.953 -0.0238  0.0814  0.3783
10778TIP3    H153825   1.555   0.653  10.981  1.4891  0.1884  1.4920
10778TIP3    H253826   1.513   0.541  10.888 -1.3381  1.4280  1.1578
10779TIP3   OH253827   3.760   0.099  15.058  0.5561 -0.4094 -0.6138
10779TIP3    H153828   3.810   0.061  15.130 -0.4529 -0.2869  0.1780
10779TIP3    H253829   3.705   0.027  15.026  1.1706 -0.5278 -1.4303
10780TIP3   OH253830   2.556   2.747   0.889  0.2883 -0.1675 -0.4459
10780TIP3    H153831   2.634   2.722   0.939  1.3057  0.3683 -1.7046
10780TIP3    H253832   2.559   2.843   0.886  0.5167 -0.1975 -1.8985
10781TIP3   OH253833   5.772   6.022   1.352  0.7216 -0.2469 -0.3404
10781TIP3    H153834   5.703   6.073   1.310 -0.2425  0.5259  2.0232
10781TIP3    H253835   5.731   5.985   1.429  3.0707  0.8007  1.5547
10782TIP3   OH253836   6.701   3.461   2.131  0.5215 -0.2662 -0.1530
10782TIP3    H153837   6.751   3.389   2.170  1.9463  0.4248 -0.6084
10782TIP3    H253838   6.678   3.517   2.204 -2.3653 -2.1156  0.5123
10783TIP3   OH253839   3.483   5.961   5.491  0.2715 -0.0610  0.1268
10783TIP3    H153840   3.575   5.979   5.511  0.4866 -0.1169 -0.7823
10783TIP3    H253841   3.472   5.867   5.507 -0.0207  0.2030  1.6752
10784TIP3   OH253842   3.130   0.225   2.578  0.4412  0.4584  0.4299
10784TIP3    H153843   3.140   0.320   2.587  1.1202  0.3926  0.3843
10784TIP3    H253844   3.205   0.188   2.625  0.6344 -0.0379 -0.2593
10785TIP3   OH253845   4.352   4.506   4.764 -0.1828 -0.3926  0.2679
10785TIP3    H153846   4.316   4.592   4.744  1.5886  1.4108  3.9675
10785TIP3    H253847   4.282   4.460   4.811 -0.0345  0.4061  1.2995
10786TIP3   OH253848   1.660   3.783   4.594 -0.0438 -0.5849 -0.8317
10786TIP3    H153849   1.709   3.818   4.668 -0.2385 -1.0420 -0.4883
10786TIP3    H253850   1.578   3.833   4.594 -0.7998 -1.7793  0.3317
10787TIP3   OH253851   4.630   5.505   2.391 -0.1077 -0.0509 -0.8952
10787TIP3    H153852   4.583   5.483   2.471  1.1158 -0.6507 -0.3132
10787TIP3    H253853   4.720   5.475   2.407  0.4313  0.8675 -2.0397
10788TIP3   OH253854   3.025   4.602  15.805 -0.3276 -0.3245 -0.3261
10788TIP3    H153855   3.040   4.520  15.758  0.8586 -0.4267  0.1882
10788TIP3    H253856   3.079   4.667  15.759 -2.4224  0.5572 -1.6722
10789TIP3   OH253857   2.316   2.797   2.402  0.6586 -0.3907  0.5019
10789TIP3    H153858   2.385   2.733   2.416  0.9846 -0.2190 -0.2371
10789TIP3    H253859   2.352   2.880   2.435 -0.1503 -0.7502  2.4090
10790TIP3   OH253860   1.116   6.482   5.116 -0.1234  0.3757  0.3426
10790TIP3    H153861   1.126   6.489   5.211 -1.7065  0.5953  0.5130
10790TIP3    H253862   1.194   6.434   5.088  0.5300  0.5812  1.7019
10791TIP3   OH253863   0.012   6.769   3.025  0.1819  0.0847  0.3812
10791TIP3    H153864  -0.082   6.783   3.017 -0.0989 -1.7448  0.1051
10791TIP3    H253865   0.048   6.857   3.035 -1.1100  1.3003 -3.7003
10792TIP3   OH253866   1.753   2.646  13.718  0.2139 -0.3249  0.2417
10792TIP3    H153867   1.836   2.685  13.689 -0.7798  1.3624 -0.5260
10792TIP3    H253868   1.739   2.573  13.658  2.1253 -2.0364  1.7062
10793TIP3   OH253869   2.472   0.320  16.421  0.6213 -0.4382 -0.1716
10793TIP3    H153870   2.558   0.279  16.420  0.7740 -0.1443 -1.7332
10793TIP3    H253871   2.488   0.410  16.450  0.4956 -0.9664  1.7102
10794TIP3   OH253872   4.670   0.216   6.722 -0.3592  0.1096 -0.0515
10794TIP3    H153873   4.620   0.280   6.773 -0.6193  0.5433 -0.8357
10794TIP3    H253874   4.651   0.132   6.764  1.5501  0.7141  2.2570
10795TIP3   OH253875   2.302   3.924   2.063  0.0148 -0.4844 -0.4987
10795TIP3    H153876   2.288   4.016   2.039  1.3510 -0.2523 -0.4657
10795TIP3    H253877   2.258   3.914   2.148  1.3894  0.6420  0.4005
10796TIP3   OH253878   6.459   4.758  16.292  0.0317  0.2707 -0.0437
10796TIP3    H153879   6.410   4.831  16.254  0.1888  0.4690  0.1309
10796TIP3    H253880   6.484   4.704  16.217  1.8903  1.6021 -0.4425
10797TIP3   OH253881   6.595   1.502  11.112 -0.1634 -0.2957 -0.7380
10797TIP3    H153882   6.504   1.504  11.081 -0.5694 -2.4458  0.1561
10797TIP3    H253883   6.634   1.581  11.074 -2.0489  0.0325 -2.1952
10798TIP3   OH253884   5.818   1.772  15.184 -0.1978  0.4730  0.0533
10798TIP3    H153885   5.855   1.816  15.108 -0.6244  1.7392  0.5587
10798TIP3    H253886   5.757   1.708  15.148  1.4359 -0.7361 -0.7421
10799TIP3   OH253887   6.642   4.010  16.420  0.2733 -0.5672 -0.4466
10799TIP3    H153888   6.565   3.954  16.435  0.2600 -0.6814 -0.9343
10799TIP3    H253889   6.607   4.099  16.415  0.3495 -0.4514  0.8288
10800TIP3   OH253890   5.009   2.554   4.661  0.4967 -0.3450 -0.1035
10800TIP3    H153891   4.952   2.530   4.589  1.3908 -0.6529 -0.7306
10800TIP3    H253892   4.986   2.495   4.732 -0.1289 -0.2965 -0.2671
10801TIP3   OH253893   1.106   1.887   0.700  0.3737 -0.5749  0.2430
10801TIP3    H153894   1.116   1.974   0.737 -0.5705 -1.1902  2.0765
10801TIP3    H253895   1.023   1.890   0.652 -0.4140 -0.8463  1.5546
10802TIP3   OH253896   4.720   0.155   6.469 -0.2067  0.1497  0.1407
10802TIP3    H153897   4.815   0.154   6.478 -0.1426  1.6266 -0.1681
10802TIP3    H253898   4.688   0.185   6.555 -0.1596  3.1730 -0.7719
10803TIP3   OH253899   0.820   0.422   0.441  0.6092  0.2225  0.0689
10803TIP3    H153900   0.828   0.511   0.474  1.4323  0.2456 -0.1778
10803TIP3    H253901   0.785   0.371   0.514  0.5092  0.6670  0.3298
10804TIP3   OH253902   0.638   4.243   0.912  0.0553  0.3753  1.0394
10804TIP3    H153903   0.608   4.312   0.971 -2.2874 -0.4639  0.9142
10804TIP3    H253904   0.645   4.286   0.827  0.0799  0.7912  1.2481
10805TIP3   OH253905   2.124   3.212  12.838  0.2846 -0.0257  0.1843
10805TIP3    H153906   2.055   3.263  12.796 -2.5446 -2.9207  0.9715
10805TIP3    H253907   2.196   3.214  12.775 -0.7824  2.3259 -1.1120
10806TIP3   OH253908   0.116   0.155  13.389 -0.0943 -0.2937  0.2888
10806TIP3    H153909   0.182   0.139  13.455 -0.8431 -1.1203  0.8708
10806TIP3    H253910   0.035   0.168  13.438 -0.4470  0.2803 -0.4189
10807TIP3   OH253911   2.733   3.210   2.470 -0.4969 -0.3691 -0.2056
10807TIP3    H153912   2.725   3.118   2.447  0.0447 -0.6235  0.5941
10807TIP3    H253913   2.648   3.233   2.508 -0.5836 -0.5758 -0.2724
10808TIP3   OH253914   5.591   0.635  16.952  0.0292  0.0911  0.6390
10808TIP3    H153915   5.567   0.683  16.873  1.1313 -0.8402 -0.3014
10808TIP3    H253916   5.615   0.703  17.015  0.0987  0.8244 -0.1516
10809TIP3   OH253917   6.109   4.577  12.100  0.2444 -0.2516  0.0478
10809TIP3    H153918   6.160   4.506  12.140  0.2124  0.2810  1.0919
10809TIP3    H253919   6.027   4.535  12.073  0.2117 -0.6154  0.6797
10810TIP3   OH253920   2.468   5.362   4.827  0.1132  0.2612 -0.0516
10810TIP3    H153921   2.435   5.402   4.747 -1.1125 -1.1151 -0.2709
10810TIP3    H253922   2.401   5.379   4.893  0.3694  0.0248  0.2780
10811TIP3   OH253923   0.781   1.533  10.746  0.0095 -0.2439 -0.3342
10811TIP3    H153924   0.770   1.532  10.651 -1.8133 -0.0704 -0.1465
10811TIP3    H253925   0.767   1.624  10.771  0.0173 -0.3735  0.1544
10812TIP3   OH253926   2.324   3.624  15.626 -0.2489 -0.9535 -0.3046
10812TIP3    H153927   2.265   3.658  15.694 -1.2412 -0.0524 -1.5665
10812TIP3    H253928   2.272   3.557  15.580 -1.0386  1.0154 -2.5195
10813TIP3   OH253929   5.940   1.528   6.373  0.2190  0.2194  0.1644
10813TIP3    H153930   5.854   1.497   6.401  1.0145  0.4980  3.2361
10813TIP3    H253931   5.982   1.450   6.336 -0.8977 -0.2029 -0.2693
10814TIP3   OH253932   1.804   4.176   0.263 -0.0434  0.0916 -0.1555
10814TIP3    H153933   1.789   4.094   0.215 -1.1196 -0.0595  0.4104
10814TIP3    H253934   1.777   4.157   0.353 -1.6647  1.4431 -0.2954
10815TIP3   OH253935   1.617   2.313  12.970 -0.2159 -0.1748 -0.9696
10815TIP3    H153936   1.674   2.339  13.042  0.8930 -2.0767 -1.1035
10815TIP3    H253937   1.558   2.248  13.009  0.1161 -0.8993 -1.6478
10816TIP3   OH253938   3.367   3.040   5.611 -0.3772 -0.0818 -0.1559
10816TIP3    H153939   3.459   3.064   5.627 -0.3143 -0.7336  0.5078
10816TIP3    H253940   3.340   3.098   5.541  0.8127 -0.4809 -0.9881
10817TIP3   OH253941   1.294   2.210   1.959 -0.1605  0.2205  0.6504
10817TIP3    H153942   1.245   2.287   1.988 -1.2018  0.0763 -0.6395
10817TIP3    H253943   1.375   2.245   1.922  0.1088  0.5635  1.5327
10818TIP3   OH253944   2.190   2.463  14.669 -0.1470  0.0860  0.0640
10818TIP3    H153945   2.217   2.554  14.654 -0.6694  0.4222  1.0869
10818TIP3    H253946   2.230   2.414  14.597  3.5782  0.4681  1.6325
10819TIP3   OH253947   1.704   0.626  12.820 -0.3239  0.1831  0.6317
10819TIP3    H153948   1.760   0.661  12.751 -1.3253  1.6004  0.5049
10819TIP3    H253949   1.667   0.546  12.783  0.6747 -0.1334  0.2828
10820TIP3   OH253950   2.170   3.914  15.935 -0.0167 -0.4939  0.4489
10820TIP3    H153951   2.225   3.854  15.985  1.6885  0.4644 -0.2272
10820TIP3    H253952   2.185   4.000  15.974  0.2838  0.0432 -0.8043
10821TIP3   OH253953   1.185   2.824   1.755  0.0867  0.2798 -0.3607
10821TIP3    H153954   1.250   2.882   1.715  1.7579 -1.6564 -0.6119
10821TIP3    H253955   1.139   2.785   1.681  0.8104 -0.6888 -0.3246
10822TIP3   OH253956   0.035   6.366  12.346  0.3091 -0.3270  0.2830
10822TIP3    H153957   0.112   6.423  12.336  0.6818 -0.7049  0.9805
10822TIP3    H253958  -0.032   6.422  12.385  0.2638 -0.0361 -0.1960
10823TIP3   OH253959   4.024   2.301   3.051 -0.2599 -0.8227 -0.4456
10823TIP3    H153960   3.948   2.322   2.997  0.2591  0.5689 -0.6848
10823TIP3    H253961   4.074   2.239   2.998 -0.4246 -0.4945 -1.0013
10824TIP3   OH253962   3.433   2.720  10.635  0.6096  0.3232  0.1513
10824TIP3    H153963   3.390   2.635  10.620 -0.4162  0.7471  0.5994
10824TIP3    H253964   3.522   2.708  10.601 -0.3588 -0.0222 -2.4720
10825TIP3   OH253965   2.830   4.602   0.628  0.1133 -0.0557 -0.1277
10825TIP3    H153966   2.752   4.609   0.573  1.2544  0.3397 -1.7835
10825TIP3    H253967   2.827   4.680   0.684 -0.4345  0.2035 -0.5110
10826TIP3   OH253968   2.565   1.962   2.313  0.1747  0.5477  0.1629
10826TIP3    H153969   2.653   1.948   2.348  0.6407  2.6349 -0.0314
10826TIP3    H253970   2.568   1.928   2.224  0.6829  0.2712  0.2852
10827TIP3   OH253971   6.714   6.813  14.611 -0.2581 -0.1451 -0.0711
10827TIP3    H153972   6.738   6.733  14.658 -0.4890 -0.2834 -0.1850
10827TIP3    H253973   6.719   6.882  14.677  1.5471  0.0227 -0.3402
10828TIP3   OH253974   0.071   6.766  13.227  0.3210  0.7078  0.1320
10828TIP3    H153975   0.099   6.848  13.267  2.8875 -0.1252  0.2089
10828TIP3    H253976   0.081   6.701  13.296  0.7839 -0.0773 -0.6684
10829TIP3   OH253977   5.392   1.231   1.041 -0.0521  0.0978  0.1814
10829TIP3    H153978   5.435   1.317   1.047 -0.0215  0.2790 -2.0010
10829TIP3    H253979   5.442   1.176   1.102  1.6539  0.9695 -0.3451
10830TIP3   OH253980   3.342   3.549  15.209 -0.3374 -0.0433  0.5109
10830TIP3    H153981   3.386   3.631  15.231 -0.6921 -0.2911  2.2811
10830TIP3    H253982   3.411   3.493  15.175  0.4391  0.1257  1.7321
10831TIP3   OH253983   1.260   0.795  11.073 -0.3309 -0.1862  0.1950
10831TIP3    H153984   1.225   0.875  11.034  0.0801  0.7822  1.7523
10831TIP3    H253985   1.353   0.811  11.083 -0.2526 -0.8371  0.5620
10832TIP3   OH253986   0.253   4.132   4.275  0.1905 -0.3804 -0.1114
10832TIP3    H153987   0.168   4.126   4.230  0.2630 -3.4687 -0.0601
10832TIP3    H253988   0.235   4.101   4.364  1.1687  0.1897  0.3025
10833TIP3   OH253989   3.052   2.077   1.557  0.0439 -0.0922 -0.0239
10833TIP3    H153990   3.026   2.005   1.499  0.2790  0.8293 -1.3180
10833TIP3    H253991   3.139   2.053   1.588  0.9425  0.4397 -1.9349
10834TIP3   OH253992   4.668   4.053   4.826 -0.6306 -0.5768  0.3435
10834TIP3    H153993   4.688   4.069   4.919 -1.7325  3.1657  0.1022
10834TIP3    H253994   4.743   4.004   4.793  1.1925  0.5019  2.5885
10835TIP3   OH253995   3.574   4.163   1.867  0.0424  0.1332 -0.3885
10835TIP3    H153996   3.487   4.125   1.865  0.1540 -0.5158  2.4938
10835TIP3    H253997   3.611   4.143   1.781 -1.6717 -1.9582 -0.7173
10836TIP3   OH253998   2.419   6.776  14.462 -0.8953 -0.0925  0.4325
10836TIP3    H153999   2.459   6.811  14.542 -1.4591  1.8394 -0.0789
10836TIP3    H254000   2.491   6.733  14.416  0.1128  1.3381  0.6057
10837TIP3   OH254001   1.229   3.742  11.694  0.3996 -0.0005 -0.3653
10837TIP3    H154002   1.199   3.754  11.604 -2.3916  0.3206  0.4901
10837TIP3    H254003   1.154   3.770  11.747  1.6000 -1.1030  2.0396
10838TIP3   OH254004   5.887   1.781   5.511 -0.1047 -0.5830  0.1303
10838TIP3    H154005   5.809   1.735   5.543 -0.6159 -0.6110 -1.1068
10838TIP3    H254006   5.946   1.784   5.587 -0.5467 -2.2083  0.5852
10839TIP3   OH254007   0.597   2.080   5.691 -0.3557 -0.1982  0.0563
10839TIP3    H154008   0.619   2.173   5.679  0.4483 -0.4658 -0.5975
10839TIP3    H254009   0.551   2.077   5.775  0.3005  0.6823  0.4623
10840TIP3   OH254010   3.659   2.784   4.544 -0.3503 -0.1817 -0.0149
10840TIP3    H154011   3.656   2.695   4.580 -1.5456 -0.3744 -0.5340
10840TIP3    H254012   3.626   2.840   4.615  0.2284 -0.1557  0.2463
10841TIP3   OH254013   0.374   2.181  13.129  0.4230 -0.2080  0.3646
10841TIP3    H154014   0.394   2.119  13.059  0.2518  0.2598 -0.1025
10841TIP3    H254015   0.279   2.192  13.126  0.7511  3.0939 -2.2001
10842TIP3   OH254016   1.544   0.399  11.218  0.6134 -0.3945  0.7062
10842TIP3    H154017   1.572   0.345  11.291  1.6018  0.2794  0.8432
10842TIP3    H254018   1.623   0.415  11.167  0.5875  1.7008  1.2039
10843TIP3   OH254019   5.280   3.966   2.053 -0.0572 -0.0348 -0.6311
10843TIP3    H154020   5.355   3.931   2.101 -0.0480 -0.8687 -1.2206
10843TIP3    H254021   5.218   3.992   2.121  0.1840 -0.6726 -0.1570
10844TIP3   OH254022   1.330   2.923   4.052 -0.1901 -0.1780  0.4620
10844TIP3    H154023   1.368   2.992   4.107  0.5436  0.0246 -0.2670
10844TIP3    H254024   1.241   2.913   4.084  0.3781 -0.4616  2.0555
10845TIP3   OH254025   3.247   3.398   3.465  0.1212  0.6478  0.1326
10845TIP3    H154026   3.240   3.302   3.464 -2.4835  0.7600 -1.3241
10845TIP3    H254027   3.243   3.421   3.558 -1.0567 -0.6100  0.4321
10846TIP3   OH254028   4.942   2.258  12.241  0.2348 -0.3661  0.2668
10846TIP3    H154029   4.915   2.184  12.296  3.6993 -1.8833  0.2329
10846TIP3    H254030   4.961   2.218  12.156  0.0670  1.0027 -0.4430
10847TIP3   OH254031   6.415   1.313   5.971  0.3592 -0.2297  0.3435
10847TIP3    H154032   6.498   1.359   5.982  0.5120 -0.6904  1.2201
10847TIP3    H254033   6.433   1.244   5.907 -0.1320  1.5082 -1.8022
10848TIP3   OH254034   2.039   0.257  12.817  0.3450 -0.0831  0.3950
10848TIP3    H154035   2.103   0.226  12.881  1.4909  0.3178 -0.5249
10848TIP3    H254036   1.980   0.313  12.867  0.5137 -0.7156  1.3252
10849TIP3   OH254037   4.650   0.956   5.051 -0.3566 -0.3210 -0.6804
10849TIP3    H154038   4.647   1.005   4.969  0.9930 -0.1326 -0.6319
10849TIP3    H254039   4.561   0.922   5.062 -1.2389  1.7440 -0.9289
10850TIP3   OH254040   5.880   2.484  13.012 -0.5144 -0.2409 -0.3435
10850TIP3    H154041   5.874   2.500  12.917  1.5573  3.2515 -0.0721
10850TIP3    H254042   5.973   2.473  13.028 -0.6879  0.5006  1.4130
10851TIP3   OH254043   1.687   1.624  11.749 -0.1316 -0.0080 -0.5369
10851TIP3    H154044   1.622   1.576  11.698  1.2520 -0.6214 -1.8112
10851TIP3    H254045   1.757   1.643  11.686  0.4662  1.5374  0.5323
10852TIP3   OH254046   1.865   1.011  12.249  0.0246  0.5883  0.1624
10852TIP3    H154047   1.909   1.095  12.240 -1.4035  1.2692 -0.8210
10852TIP3    H254048   1.772   1.031  12.235 -0.3002 -1.2039 -0.5319
10853TIP3   OH254049   1.981   1.499   3.224  0.0919  0.6183  0.1926
10853TIP3    H154050   2.049   1.442   3.261  0.7044 -0.0025 -1.7402
10853TIP3    H254051   1.911   1.498   3.288  1.1015 -0.3471  1.3345
10854TIP3   OH254052   4.859   4.835   1.204 -0.2169 -0.0628 -0.1515
10854TIP3    H154053   4.906   4.817   1.285 -1.7097  0.9890  1.0184
10854TIP3    H254054   4.927   4.848   1.138  1.0483 -0.3641  1.0656
10855TIP3   OH254055   2.661   5.587   4.213  0.6549  0.3414  0.3408
10855TIP3    H154056   2.624   5.570   4.127  1.6252 -2.3613  0.3495
10855TIP3    H254057   2.729   5.653   4.198  0.3178  0.4353 -0.8334
10856TIP3   OH254058   3.858   3.424  10.935  0.1315  0.0672 -0.5309
10856TIP3    H154059   3.820   3.511  10.936  0.6142  0.2786 -0.0962
10856TIP3    H254060   3.936   3.432  10.880  0.3809 -0.0002 -0.1881
10857TIP3   OH254061   4.177   5.070  16.605 -0.0940  0.1372 -0.3814
10857TIP3    H154062   4.106   5.009  16.623  0.8254 -0.6032  0.9496
10857TIP3    H254063   4.182   5.126  16.682  0.0632  0.9038 -0.9313
10858TIP3   OH254064   1.843   4.424  16.447  0.0761  0.4721  0.1550
10858TIP3    H154065   1.917   4.484  16.458  0.0182  0.8581 -1.3708
10858TIP3    H254066   1.861   4.352  16.508  2.8957 -0.5558 -1.6969
10859TIP3   OH254067   6.172   2.104   4.911  0.5402  0.2208 -0.2452
10859TIP3    H154068   6.258   2.109   4.870  0.2727 -0.9293 -1.0073
10859TIP3    H254069   6.157   2.010   4.922 -0.0729  0.4632  1.0619
10860TIP3   OH254070   3.556   2.250   2.292 -0.5017  0.2731 -0.1891
10860TIP3    H154071   3.482   2.308   2.309  1.2189  2.4106  0.5113
10860TIP3    H254072   3.607   2.253   2.373 -0.7821 -3.0370  0.2300
10861TIP3   OH254073   1.205   1.058  13.274  0.2533  0.2252 -0.3981
10861TIP3    H154074   1.286   1.102  13.247  0.0350 -0.3039 -2.0293
10861TIP3    H254075   1.137   1.124  13.266  0.4543  0.5651  0.6101
10862TIP3   OH254076   5.287   3.238   6.358  0.2685  0.4038  0.4848
10862TIP3    H154077   5.206   3.252   6.309  0.8164 -0.9000 -0.8784
10862TIP3    H254078   5.266   3.167   6.419  0.8739 -1.5022 -1.3647
10863TIP3   OH254079   4.643   6.081  13.578 -0.7417 -0.3855 -0.3557
10863TIP3    H154080   4.697   6.011  13.615 -1.7353 -1.2912 -0.5754
10863TIP3    H254081   4.556   6.067  13.616 -1.2644 -0.0507 -1.3822
10864TIP3   OH254082   3.513   3.604   2.207  0.1869  0.0147 -0.0380
10864TIP3    H154083   3.536   3.545   2.136 -1.4793 -0.1508 -0.4865
10864TIP3    H254084   3.533   3.691   2.173 -2.5998  0.1389 -1.6488
10865TIP3   OH254085   3.155   6.588   2.509  0.0104  0.3385  0.1625
10865TIP3    H154086   3.083   6.602   2.571 -1.0428  1.4324 -1.2199
10865TIP3    H254087   3.155   6.666   2.454  0.3185 -0.9229 -1.7558
10866TIP3   OH254088   0.478   1.382   1.408 -0.2614  0.0161  0.1085
10866TIP3    H154089   0.541   1.402   1.478 -1.3494  0.4695  0.9851
10866TIP3    H254090   0.393   1.382   1.451 -0.8931 -0.4236 -1.0918
10867TIP3   OH254091   6.543   1.387   3.681  0.2993  0.4903  1.2023
10867TIP3    H154092   6.618   1.339   3.716  1.0245 -1.0412 -1.9908
10867TIP3    H254093   6.481   1.319   3.656 -1.5466  1.6672  2.4042
10868TIP3   OH254094   1.801   4.467   3.891  0.4267  0.1218 -0.2117
10868TIP3    H154095   1.828   4.405   3.959  0.2308  1.1183  0.8089
10868TIP3    H254096   1.764   4.541   3.940 -0.3493  0.5676 -1.4389
10869TIP3   OH254097   6.172   0.019  13.426  0.2664 -0.2641  0.1737
10869TIP3    H154098   6.085  -0.019  13.415  0.7386 -1.1582 -0.6609
10869TIP3    H254099   6.216   0.002  13.343  0.9066  1.0920  0.2116
10870TIP3   OH254100   0.026   3.149   3.374 -0.7580 -0.3520  0.2957
10870TIP3    H154101   0.042   3.197   3.292  1.8719 -1.1331  0.2829
10870TIP3    H254102   0.043   3.058   3.352 -1.4894 -0.7693  1.3841
10871TIP3   OH254103   5.054   3.794   5.533  0.5168 -0.6148  0.5963
10871TIP3    H154104   5.144   3.825   5.542  0.7381 -0.8291 -0.7829
10871TIP3    H254105   5.061   3.699   5.537  0.6180 -0.7254 -1.5217
10872TIP3   OH254106   3.372   4.972   3.682  0.2218 -0.5096  0.2359
10872TIP3    H154107   3.438   4.909   3.651  0.5751 -0.2243  0.3998
10872TIP3    H254108   3.289   4.938   3.648  0.7241  0.4674 -2.1637
10873TIP3   OH254109   6.150   1.228   1.236  0.6814 -0.1816  1.0781
10873TIP3    H154110   6.114   1.276   1.162 -1.7977  0.0913  2.3495
10873TIP3    H254111   6.156   1.137   1.207  0.3977  0.0361  0.3350
10874TIP3   OH254112   2.826   3.348  14.961 -0.1356 -0.7370 -0.1977
10874TIP3    H154113   2.751   3.381  14.911  0.3631  0.6378 -0.0688
10874TIP3    H254114   2.898   3.347  14.899  0.8729  2.4126  0.7347
10875TIP3   OH254115   0.463   5.879   6.832 -0.2627 -1.0411 -0.6151
10875TIP3    H154116   0.465   5.916   6.920 -0.2218 -0.4157 -0.8688
10875TIP3    H254117   0.400   5.934   6.785  0.6134 -0.5947 -1.3065
10876TIP3   OH254118   4.773   1.221   2.629 -0.1927  0.1274 -0.1149
10876TIP3    H154119   4.739   1.306   2.600  0.5504  0.1774 -0.8887
10876TIP3    H254120   4.849   1.243   2.684 -0.5798 -0.0171  0.4855
10877TIP3   OH254121   3.713   0.278   2.082  0.1313 -0.1149  0.0524
10877TIP3    H154122   3.700   0.292   1.988 -1.4005  1.8217  0.4846
10877TIP3    H254123   3.625   0.256   2.115  0.1123  1.7000  1.3669
10878TIP3   OH254124   1.940   3.929  12.446  0.5857 -0.0736  0.0097
10878TIP3    H154125   1.918   3.920  12.353 -0.1722 -0.1946  0.1924
10878TIP3    H254126   2.006   3.863  12.462  0.2703 -0.4683 -0.3041
10879TIP3   OH254127   4.851   6.717  15.237 -0.1348  1.1234  0.2522
10879TIP3    H154128   4.942   6.740  15.256  0.9442 -1.1626 -1.6499
10879TIP3    H254129   4.829   6.765  15.158 -0.4766  1.4164  0.5227
10880TIP3   OH254130   1.485   6.124  10.761 -0.1598  0.0569 -0.1858
10880TIP3    H154131   1.520   6.066  10.828  0.8911 -0.0634 -0.8025
10880TIP3    H254132   1.414   6.172  10.804  0.3014 -0.2242  0.9164
10881TIP3   OH254133   6.606   5.653  13.371  0.1453 -0.1747 -0.6411
10881TIP3    H154134   6.587   5.559  13.371 -1.2495  0.0896 -0.7358
10881TIP3    H254135   6.529   5.694  13.332 -0.2488  1.1961  1.3848
10882TIP3   OH254136   6.526   6.029  16.703 -0.2461 -0.1110  0.0848
10882TIP3    H154137   6.437   6.015  16.735 -0.2959 -0.9967 -0.4260
10882TIP3    H254138   6.521   6.011  16.609  0.1947  1.1134 -0.1961
10883TIP3   OH254139   4.182   2.399   1.590 -0.5360 -0.5106  0.4664
10883TIP3    H154140   4.125   2.398   1.514 -1.0317  0.8840  0.7859
10883TIP3    H254141   4.222   2.312   1.592 -1.5984 -1.0420 -0.5504
10884TIP3   OH254142   0.820   2.771  16.328  0.5767  0.1129  0.0974
10884TIP3    H154143   0.827   2.854  16.375  1.4702 -0.1259  0.3931
10884TIP3    H254144   0.822   2.796  16.236  0.0720  0.4779  0.1776
10885TIP3   OH254145   2.071   3.464  13.208  0.2859  0.2969 -0.0165
10885TIP3    H154146   1.980   3.437  13.201  0.0183  0.9115  0.9761
10885TIP3    H254147   2.119   3.398  13.157 -0.7083  0.0192 -0.6207
10886TIP3   OH254148   2.264   0.218   4.811 -0.1203  0.1971 -0.2174
10886TIP3    H154149   2.272   0.123   4.800  1.5794  0.0975  1.4589
10886TIP3    H254150   2.173   0.231   4.840  0.0913 -1.1350  1.1774
10887TIP3   OH254151   3.574   1.249  13.540 -0.3356 -0.0009 -0.0265
10887TIP3    H154152   3.500   1.241  13.481  0.1456 -0.1717 -0.6234
10887TIP3    H254153   3.552   1.191  13.613 -0.6584 -0.2817 -0.3391
10888TIP3   OH254154   3.251   0.336   0.162 -0.8524 -0.0777 -0.0338
10888TIP3    H154155   3.182   0.269   0.157  0.0521 -0.9880 -0.6258
10888TIP3    H254156   3.331   0.287   0.178 -0.5122  1.0942  2.2422
10889TIP3   OH254157   0.709   2.321   4.950 -0.0865  0.2300  0.1203
10889TIP3    H154158   0.717   2.244   5.006  1.8802 -1.6051 -2.4666
10889TIP3    H254159   0.622   2.356   4.970 -0.6367 -2.0347  2.1299
10890TIP3   OH254160   0.313   3.633   4.391  0.3323  0.7424  0.2075
10890TIP3    H154161   0.356   3.635   4.477 -1.3142 -1.7283  1.2157
10890TIP3    H254162   0.364   3.570   4.340 -0.0501  0.4091  0.2275
10891TIP3   OH254163   1.182   1.343  11.986  0.5200 -0.5078  0.1823
10891TIP3    H154164   1.273   1.369  11.995  0.1156  1.0185  0.1030
10891TIP3    H254165   1.148   1.398  11.916 -0.9172  0.2484  1.4070
10892TIP3   OH254166   1.886   5.752   3.052  0.1084  0.2052  0.1761
10892TIP3    H154167   1.944   5.799   2.992 -0.9406  3.8192  1.7344
10892TIP3    H254168   1.810   5.730   2.999  0.3394  0.9203 -0.4737
10893TIP3   OH254169   5.715   4.907   4.536 -0.1733 -0.6937  0.9310
10893TIP3    H154170   5.792   4.963   4.531 -0.6839 -0.1098 -1.0738
10893TIP3    H254171   5.675   4.930   4.620  0.1060  1.3283  0.5693
10894TIP3   OH254172   5.041   0.131  13.432 -0.3350 -0.1815 -0.1057
10894TIP3    H154173   5.071   0.174  13.352  0.1210 -0.6072 -0.1713
10894TIP3    H254174   4.999   0.051  13.401  0.4452 -0.6893  0.1050
10895TIP3   OH254175   1.851   5.285   3.871 -0.8578  1.2616  0.8063
10895TIP3    H154176   1.939   5.277   3.835 -0.0399 -1.3492  2.9931
10895TIP3    H254177   1.863   5.277   3.966 -3.5857 -3.7922  1.0918
10896TIP3   OH254178   2.768   1.802  12.643 -0.5435 -0.3801 -0.0050
10896TIP3    H154179   2.713   1.753  12.581  0.2521 -0.6652 -0.5081
10896TIP3    H254180   2.817   1.734  12.690  2.5687 -0.1630 -2.5320
10897TIP3   OH254181   4.174   5.197   3.205 -0.2925  0.0953 -0.2874
10897TIP3    H154182   4.226   5.265   3.163  0.1990  1.5060  2.4169
10897TIP3    H254183   4.083   5.224   3.193 -0.1471  0.6084 -0.2393
10898TIP3   OH254184   0.207   5.861  16.661  0.1237  0.1162  0.0697
10898TIP3    H154185   0.211   5.848  16.756  0.6057 -0.9678 -0.0795
10898TIP3    H254186   0.125   5.907  16.647  0.9982  2.1596  1.1836
10899TIP3   OH254187   5.608   4.760   1.532  0.0646  0.3676  0.6027
10899TIP3    H154188   5.517   4.746   1.558  0.5023 -2.1973  1.0712
10899TIP3    H254189   5.615   4.854   1.517 -2.5499  0.6834  0.9151
10900TIP3   OH254190   3.587   4.028   6.547  0.5485 -0.3039 -0.7775
10900TIP3    H154191   3.669   3.991   6.514 -0.1770  0.0428 -3.1152
10900TIP3    H254192   3.528   3.953   6.556  0.2244 -0.2001 -1.9492
10901TIP3   OH254193   6.694   0.564   1.100  0.8743 -0.1160 -0.0774
10901TIP3    H154194   6.612   0.561   1.050 -0.5063  0.5363  1.9920
10901TIP3    H254195   6.722   0.472   1.104 -0.2425 -0.4820 -0.1165
10902TIP3   OH254196   5.040   3.902   1.037 -0.2266 -0.2954  0.6860
10902TIP3    H154197   5.093   3.950   1.101 -1.1920  0.6195  0.8227
10902TIP3    H254198   4.959   3.881   1.083 -0.3289 -0.9429  0.2226
10903TIP3   OH254199   2.352   1.813  11.075 -0.0501  0.5482 -0.0866
10903TIP3    H154200   2.322   1.804  10.985  0.7680  1.6700 -0.4869
10903TIP3    H254201   2.297   1.752  11.125 -1.3987  0.8579 -1.1334
10904TIP3   OH254202   4.387   2.263   1.774  0.1099  0.1128 -0.2583
10904TIP3    H154203   4.420   2.323   1.707  2.8385  0.1790  1.0005
10904TIP3    H254204   4.460   2.253   1.835 -1.2717 -2.1913  1.1659
10905TIP3   OH254205   1.463   3.113  14.340 -0.5335 -0.5795  0.0639
10905TIP3    H154206   1.434   3.203  14.331 -0.0721 -0.3724  0.6106
10905TIP3    H254207   1.399   3.073  14.400 -0.6489 -0.5785 -0.0574
10906TIP3   OH254208   3.609   3.811   4.555 -0.0799  0.0146 -0.1611
10906TIP3    H154209   3.625   3.718   4.538  2.0026  0.2450  0.3268
10906TIP3    H254210   3.657   3.857   4.487  0.0550  0.7481  0.4151
10907TIP3   OH254211   2.849   0.089   1.522  0.1514 -0.5025  0.3336
10907TIP3    H154212   2.912   0.143   1.474  2.8232 -3.5812  0.0640
10907TIP3    H254213   2.861   0.114   1.614  0.0031  0.5821  0.0743
10908TIP3   OH254214   1.493   6.564   4.088 -0.5858  0.1836 -0.1582
10908TIP3    H154215   1.431   6.623   4.044 -0.2255  0.7856  0.1411
10908TIP3    H254216   1.521   6.612   4.166 -0.1765 -0.3240  0.0103
10909TIP3   OH254217   3.771   1.283   3.090  0.3199 -0.9224 -0.3724
10909TIP3    H154218   3.843   1.345   3.098 -1.2539  1.3167 -2.2177
10909TIP3    H254219   3.703   1.319   3.147 -0.3324 -1.4255 -0.8273
10910TIP3   OH254220   3.051   3.440  16.821 -0.4146  0.1080  0.5395
10910TIP3    H154221   3.111   3.371  16.847 -1.6537 -0.9282  0.7249
10910TIP3    H254222   2.967   3.397  16.810 -0.8451  1.2528 -1.1541
10911TIP3   OH254223   1.405   3.817  15.682 -0.7826 -0.5046  0.2493
10911TIP3    H154224   1.391   3.733  15.640 -0.8758 -1.1525  1.5268
10911TIP3    H254225   1.427   3.877  15.610 -3.4409 -0.9346 -1.0771
10912TIP3   OH254226   1.678   6.529   4.819  0.4272 -0.2548  0.2280
10912TIP3    H154227   1.651   6.440   4.843  0.0427 -0.3618 -0.6035
10912TIP3    H254228   1.621   6.586   4.870 -1.6297 -0.4657 -1.6869
10913TIP3   OH254229   3.955   4.527  11.581 -0.4235 -0.5605  0.2490
10913TIP3    H154230   3.966   4.531  11.676  0.3880  0.7459  0.1180
10913TIP3    H254231   3.884   4.464  11.569 -0.7809 -0.4961  1.7359
10914TIP3   OH254232   3.947   0.700   3.253 -0.1987  0.4127  0.8987
10914TIP3    H154233   3.881   0.718   3.186  0.9500  0.2407 -0.3321
10914TIP3    H254234   3.993   0.783   3.265  2.6718 -0.5199 -2.0713
10915TIP3   OH254235   5.573   6.380   3.274 -0.1401 -0.0387  0.0831
10915TIP3    H154236   5.653   6.431   3.281 -0.1615  0.1685 -0.9835
10915TIP3    H254237   5.574   6.322   3.351  1.1108 -0.1572 -0.0053
10916TIP3   OH254238   5.869   4.306  11.261  0.0669 -0.0220 -0.2594
10916TIP3    H154239   5.934   4.254  11.214  0.2194 -0.3624  0.3192
10916TIP3    H254240   5.846   4.376  11.200 -0.6437 -1.1393 -1.3459
10917TIP3   OH254241   6.129   5.221   2.945 -0.3137  0.3325 -0.1036
10917TIP3    H154242   6.109   5.261   3.030 -0.2472 -0.0264  0.0793
10917TIP3    H254243   6.177   5.289   2.898  0.0858  0.3539  0.3288
10918TIP3   OH254244   0.084   5.595   0.901  0.0833  0.2210 -0.2507
10918TIP3    H154245   0.078   5.649   0.979  0.7183  0.8897 -0.6532
10918TIP3    H254246   0.176   5.598   0.876  0.0652 -0.7574 -0.4905
10919TIP3   OH254247   6.792   0.352  12.403  0.1904  0.1283  0.0228
10919TIP3    H154248   6.855   0.402  12.351 -0.4955  3.6640  2.3378
10919TIP3    H254249   6.711   0.354  12.351  0.7624 -0.7293 -0.9618
10920TIP3   OH254250   3.826   0.834   1.820  0.5183 -0.1939 -0.2917
10920TIP3    H154251   3.803   0.908   1.877 -0.4023 -0.9500  0.3381
10920TIP3    H254252   3.867   0.875   1.744 -1.3995  1.0951 -0.6939
10921TIP3   OH254253   0.351   6.387  16.490  0.2201 -0.2098  0.0470
10921TIP3    H154254   0.292   6.417  16.421 -0.0009  0.4757  0.5241
10921TIP3    H254255   0.438   6.389  16.450 -0.0248 -0.9333 -0.5635
10922TIP3   OH254256   5.138   0.080   6.636 -0.2910  0.0055  0.6370
10922TIP3    H154257   5.094   0.091   6.721 -0.4130  0.2547  0.5406
10922TIP3    H254258   5.169  -0.011   6.638  2.5442  0.8803  2.2975
10923TIP3   OH254259   1.821   5.114  14.813 -0.4904  0.4842 -0.0736
10923TIP3    H154260   1.745   5.056  14.818  0.2881 -0.4486  1.5033
10923TIP3    H254261   1.783   5.201  14.803 -1.7430 -0.0445 -0.1522
10924TIP3   OH254262   3.343   3.012  12.346  0.1473  0.4471  0.1459
10924TIP3    H154263   3.283   3.075  12.307 -2.3534 -1.1233  1.1500
10924TIP3    H254264   3.349   3.037  12.438 -1.2944 -0.9631  0.6781
10925TIP3   OH254265   3.509   5.022  17.112  0.3884 -0.1833  0.2075
10925TIP3    H154266   3.474   5.100  17.154  0.3021 -0.5723  0.8767
10925TIP3    H254267   3.435   4.985  17.065  0.4800  0.2470 -0.2812
10926TIP3   OH254268   1.391   0.103   3.331 -0.0316  0.2836 -0.9863
10926TIP3    H154269   1.347   0.026   3.295 -0.1764 -0.8282  1.3635
10926TIP3    H254270   1.483   0.077   3.336 -0.0708  0.2802 -0.2406
10927TIP3   OH254271   5.275   1.463   3.265 -1.0587 -0.0844  0.0397
10927TIP3    H154272   5.277   1.558   3.275  0.1386 -0.0910  0.0422
10927TIP3    H254273   5.368   1.437   3.260 -1.3701 -1.0570 -1.7859
10928TIP3   OH254274   0.707   3.137  16.363 -0.2745  0.3819  0.1955
10928TIP3    H154275   0.783   3.169  16.413 -0.1760  2.0626 -0.9437
10928TIP3    H254276   0.744   3.112  16.279 -1.0730  2.2909 -0.7885
10929TIP3   OH254277   4.624   3.269   5.605 -0.3590 -0.2888  0.5065
10929TIP3    H154278   4.688   3.287   5.674 -0.5614 -0.2470  0.6824
10929TIP3    H254279   4.616   3.352   5.557  0.0068 -0.4028  0.2461
10930TIP3   OH254280   0.008   2.439   0.789 -0.0612  0.2654  0.5547
10930TIP3    H154281   0.094   2.465   0.757 -0.1178  0.4396  0.5437
10930TIP3    H254282  -0.016   2.507   0.852  0.1244 -0.1669  1.0959
10931TIP3   OH254283   4.430   3.915   1.077  0.0984 -0.3759  0.1850
10931TIP3    H154284   4.480   3.837   1.098  1.6400  0.4304 -0.2966
10931TIP3    H254285   4.494   3.974   1.035 -1.8442 -0.3854 -3.2102
10932TIP3   OH254286   1.298   3.102  13.922 -0.4120  0.5260  0.2500
10932TIP3    H154287   1.214   3.059  13.908  0.0142 -0.5142  0.7554
10932TIP3    H254288   1.341   3.049  13.988  0.9025  0.6693 -0.4590
10933TIP3   OH254289   2.673   6.738   2.080 -0.5080  0.0894  0.2313
10933TIP3    H154290   2.760   6.778   2.078 -0.8752  0.9771  1.1379
10933TIP3    H254291   2.671   6.691   2.164 -1.1257  0.6080  0.5106
10934TIP3   OH254292   0.931   5.605  13.763 -0.0583 -0.0006 -0.1706
10934TIP3    H154293   0.836   5.598  13.772 -0.0483  1.4300  1.7766
10934TIP3    H254294   0.961   5.514  13.756 -1.4161 -0.6179  1.3524
10935TIP3   OH254295   0.150   4.726  14.790 -0.0928  0.3362  1.0416
10935TIP3    H154296   0.089   4.655  14.771  0.0073  0.6370 -0.4774
10935TIP3    H254297   0.143   4.784  14.715  2.8072 -0.1373  0.3052
10936TIP3   OH254298   1.662   2.291   4.368  0.1172 -0.5184  0.2303
10936TIP3    H154299   1.663   2.278   4.273 -0.9626 -0.7627  0.2327
10936TIP3    H254300   1.569   2.290   4.391  0.3882 -1.1979  1.3887
10937TIP3   OH254301   2.610   3.462  13.701 -0.2701  0.5988  0.0374
10937TIP3    H154302   2.700   3.456  13.733  0.1933  1.5373 -0.9743
10937TIP3    H254303   2.583   3.372  13.687  0.7782  0.3211 -0.2958
10938TIP3   OH254304   3.766   3.835   5.216  0.3521  0.1055 -0.0482
10938TIP3    H154305   3.748   3.754   5.167  0.6657 -0.9527  1.4923
10938TIP3    H254306   3.709   3.900   5.177 -0.3852 -1.0286 -0.9359
10939TIP3   OH254307   3.803   5.045  17.111 -0.1719 -0.0080  0.6331
10939TIP3    H154308   3.861   4.989  17.162  0.0710 -1.6553 -1.2996
10939TIP3    H254309   3.718   5.037  17.154 -0.0032 -1.4118  0.7518
10940TIP3   OH254310   2.028   1.043   5.866 -0.7433 -0.2273  0.6078
10940TIP3    H154311   2.036   1.073   5.956  1.0553 -0.0848  0.4322
10940TIP3    H254312   1.936   1.017   5.857 -1.2423  0.8976  2.1099
10941TIP3   OH254313   2.211   5.191  14.722  0.2971 -0.0733  0.0308
10941TIP3    H154314   2.167   5.188  14.807  0.8954 -2.5491  0.3341
10941TIP3    H254315   2.301   5.163  14.741  0.1880 -1.6334 -1.5187
10942TIP3   OH254316   1.678   2.597  15.027  0.2944  0.1027  0.1566
10942TIP3    H154317   1.617   2.578  15.098 -1.0978  0.0350 -1.0053
10942TIP3    H254318   1.678   2.693  15.020  0.7722  0.1347  0.5104
10943TIP3   OH254319   2.663   2.237   1.222 -0.4602 -0.2615  0.3644
10943TIP3    H154320   2.665   2.318   1.170 -0.6124 -0.9831 -0.8116
10943TIP3    H254321   2.572   2.228   1.250 -0.4683 -0.0956  0.3899
10944TIP3   OH254322   2.967   4.703   3.584  0.3563  0.2317  0.1350
10944TIP3    H154323   2.897   4.710   3.519  0.1524 -0.6385  0.2393
10944TIP3    H254324   2.930   4.744   3.662 -0.8284 -1.8734  0.7716
10945TIP3   OH254325   5.828   1.853   2.695  0.2146 -0.1196  0.3929
10945TIP3    H154326   5.904   1.807   2.660  0.3381  1.5022 -1.6991
10945TIP3    H254327   5.759   1.787   2.697  0.5623 -0.6545 -1.8593
10946TIP3   OH254328   1.855   6.109  14.135  0.9253  0.3447 -0.0692
10946TIP3    H154329   1.830   6.084  14.224 -0.2227 -0.1936 -0.5314
10946TIP3    H254330   1.774   6.142  14.096  0.9983 -1.0516 -1.4758
10947TIP3   OH254331   0.851   0.121  15.967 -0.1508  0.1588  0.0275
10947TIP3    H154332   0.882   0.042  15.924  1.7146  1.5350 -1.3508
10947TIP3    H254333   0.769   0.143  15.923 -0.7343 -1.0246  0.4958
10948TIP3   OH254334   2.994   1.279   1.747 -0.0338  0.7826  0.1443
10948TIP3    H154335   2.956   1.279   1.659 -2.2282  1.6367  1.0434
10948TIP3    H254336   2.922   1.257   1.805  1.6806 -1.2786  1.6782
10949TIP3   OH254337   1.913   6.715  13.649  0.1338  0.2193 -0.4758
10949TIP3    H154338   1.898   6.639  13.705  0.9698  0.2824 -0.1520
10949TIP3    H254339   1.964   6.775  13.704  0.0995  0.7069 -0.9673
10950TIP3   OH254340   4.016   6.010   2.999  0.0600 -0.0745  0.1710
10950TIP3    H154341   4.056   5.971   2.922 -0.5339 -1.0259  0.3244
10950TIP3    H254342   4.048   5.957   3.072  0.2293  0.5083  0.5269
10951TIP3   OH254343   2.524   0.981  12.081 -0.3798  0.2335 -0.4118
10951TIP3    H154344   2.461   0.915  12.054 -0.5510 -0.3061  1.2150
10951TIP3    H254345   2.472   1.044  12.132  0.2405  0.1584  0.3399
10952TIP3   OH254346   6.452   4.557  15.269 -0.8258 -0.4356 -0.0039
10952TIP3    H154347   6.510   4.574  15.342 -1.4779 -0.0354  0.4378
10952TIP3    H254348   6.364   4.562  15.307 -1.1366 -2.3441 -0.3714
10953TIP3   OH254349   6.122   5.710  15.699  0.6738 -0.2376  0.3546
10953TIP3    H154350   6.192   5.645  15.703 -0.4668 -1.4956  0.5347
10953TIP3    H254351   6.042   5.659  15.695 -0.1980  1.1438 -1.1809
10954TIP3   OH254352   3.750   5.139  12.872  0.0501 -0.2409  0.7187
10954TIP3    H154353   3.820   5.176  12.926 -0.9144 -1.1789  2.7372
10954TIP3    H254354   3.787   5.059  12.836  0.3712 -0.1715  0.8909
10955TIP3   OH254355   5.640   0.085  14.492 -0.2065 -0.0065 -0.0898
10955TIP3    H154356   5.592   0.044  14.421  1.4549  0.0138 -1.2918
10955TIP3    H254357   5.728   0.047  14.487  0.2705  0.8273  1.2465
10956TIP3   OH254358   2.293   2.700  11.161 -0.1528  0.2987  0.7200
10956TIP3    H154359   2.266   2.788  11.187 -1.1784  0.8885 -1.9823
10956TIP3    H254360   2.353   2.714  11.088  2.2631 -1.2292  2.2863
10957TIP3   OH254361   2.181   1.345   2.601  0.5307  0.3640  0.4975
10957TIP3    H154362   2.264   1.297   2.606  0.7775  0.6568 -0.5575
10957TIP3    H254363   2.202   1.426   2.556 -0.3459  0.3999  0.1227
10958TIP3   OH254364   3.036   2.691  15.081 -0.0259  0.3620  0.0012
10958TIP3    H154365   2.940   2.692  15.083 -0.0260 -0.0734  0.2561
10958TIP3    H254366   3.058   2.710  14.990 -0.4130 -2.3386 -0.7354
10959TIP3   OH254367   5.126   1.046   2.731 -1.5696  0.1980  0.3887
10959TIP3    H154368   5.045   0.999   2.711 -1.6926  0.9218 -0.9059
10959TIP3    H254369   5.113   1.133   2.694 -0.7709  0.7985  1.4720
10960TIP3   OH254370   4.325   1.947  12.602 -0.1504  0.1415 -0.1242
10960TIP3    H154371   4.333   1.852  12.601 -1.2627  0.0326 -1.0465
10960TIP3    H254372   4.231   1.964  12.596  0.0137  1.3019  0.1983
10961TIP3   OH254373   5.880   6.674  15.199  0.3795 -0.4063  0.8052
10961TIP3    H154374   5.954   6.727  15.230  0.7192 -0.7850  0.6375
10961TIP3    H254375   5.908   6.640  15.115 -0.8481  1.2774 -0.3606
10962TIP3   OH254376   3.967   1.047   5.708 -0.3373  0.0489 -0.0639
10962TIP3    H154377   4.022   0.986   5.756  0.1643  0.7949  0.3207
10962TIP3    H254378   3.955   1.007   5.622 -1.3169 -1.3493  0.6821
10963TIP3   OH254379   2.588   4.912  16.849 -0.1418 -0.5143 -0.1029
10963TIP3    H154380   2.556   4.932  16.761 -0.1211 -1.1182 -0.2513
10963TIP3    H254381   2.676   4.950  16.851 -1.2242  2.2140  0.7061
10964TIP3   OH254382   2.222   2.324  15.916  0.6266  0.4092  0.5829
10964TIP3    H154383   2.127   2.334  15.915  0.7244  1.4932 -1.2191
10964TIP3    H254384   2.240   2.280  15.999 -1.5714 -1.3050  0.2280
10965TIP3   OH254385   3.756   3.391  15.225 -0.0736 -0.1252 -0.0155
10965TIP3    H154386   3.690   3.413  15.291  0.5935 -1.2873  1.0688
10965TIP3    H254387   3.810   3.323  15.265  0.5936 -0.6079 -1.6163
10966TIP3   OH254388   3.646   3.868  16.450  0.2543 -0.0740 -0.3084
10966TIP3    H154389   3.574   3.857  16.388 -0.3257  0.3141  0.2813
10966TIP3    H254390   3.719   3.819  16.412 -0.1830 -0.0882 -1.1408
10967TIP3   OH254391   3.262   4.777   6.278  0.2683 -0.2517  0.1143
10967TIP3    H154392   3.233   4.853   6.329 -1.0920 -1.0425  0.5886
10967TIP3    H254393   3.252   4.703   6.339  1.4878 -0.8299 -0.3597
10968TIP3   OH254394   3.424   2.685  15.650  0.5917  0.7956  0.5464
10968TIP3    H154395   3.371   2.696  15.571  1.2776 -0.6079 -0.1298
10968TIP3    H254396   3.427   2.773  15.688 -0.2037  1.3899 -0.6877
10969TIP3   OH254397   4.733   5.390  12.055  0.4946  0.3233  0.2599
10969TIP3    H154398   4.789   5.358  11.984 -0.0175 -0.7122  0.2987
10969TIP3    H254399   4.757   5.335  12.130 -0.7478 -0.3331  0.2055
10970TIP3   OH254400   1.433   0.422   6.368  0.0146  0.2088 -0.1039
10970TIP3    H154401   1.420   0.338   6.410 -1.6068  1.4644  2.1250
10970TIP3    H254402   1.350   0.440   6.324 -0.1047  1.1343  0.4606
10971TIP3   OH254403   6.277   3.776   3.728 -0.5080 -0.6112 -0.3083
10971TIP3    H154404   6.345   3.724   3.685 -0.4611 -0.8903  0.1062
10971TIP3    H254405   6.324   3.841   3.779 -0.5621  0.4715 -1.5605
10972TIP3   OH254406   6.479   0.423  16.527  0.6672  0.0969 -0.1659
10972TIP3    H154407   6.393   0.430  16.487  0.4280 -1.9644 -0.1348
10972TIP3    H254408   6.489   0.503  16.578 -1.1247  0.4795 -0.3711
10973TIP3   OH254409   5.257   1.247  13.229  0.5354 -0.2701 -0.6021
10973TIP3    H154410   5.317   1.190  13.277  0.2413 -1.1097 -1.2226
10973TIP3    H254411   5.259   1.214  13.139 -0.9833 -0.4202 -0.6003
10974TIP3   OH254412   2.795   5.099   1.763 -0.0787  0.0848  0.2363
10974TIP3    H154413   2.833   5.139   1.685  2.7141 -0.7151  1.0735
10974TIP3    H254414   2.814   5.005   1.754 -2.7721 -0.5573  0.3103
10975TIP3   OH254415   3.877   2.737  11.776 -0.3647 -0.5084  0.1405
10975TIP3    H154416   3.876   2.643  11.759  0.2824 -0.4329 -0.3729
10975TIP3    H254417   3.936   2.747  11.850 -0.6730 -0.5379  0.3889
10976TIP3   OH254418   0.841   1.314   5.609  0.4501  0.2156  0.3582
10976TIP3    H154419   0.754   1.335   5.575 -0.1726 -1.3198  0.9540
10976TIP3    H254420   0.899   1.378   5.566 -1.1385  2.2780  1.1150
10977TIP3   OH254421   3.443   4.914  15.551 -0.2720  0.3732  0.9781
10977TIP3    H154422   3.483   5.001  15.545 -2.0983  1.1550 -1.6111
10977TIP3    H254423   3.499   4.858  15.497 -0.6104  0.6225  0.3555
10978TIP3   OH254424   5.231   2.833  14.519 -0.1076 -0.0538 -0.2224
10978TIP3    H154425   5.253   2.765  14.456  1.2749 -1.5551  1.7631
10978TIP3    H254426   5.308   2.890  14.520  1.7894 -2.3395  2.8958
10979TIP3   OH254427   1.716   3.874  13.485  0.3611 -0.5059 -0.2124
10979TIP3    H154428   1.747   3.796  13.529  1.6191 -0.0514 -0.2559
10979TIP3    H254429   1.756   3.947  13.532 -0.7927  0.1278 -0.1640
10980TIP3   OH254430   2.867   2.188   2.711 -0.2802 -0.4692  0.8796
10980TIP3    H154431   2.862   2.136   2.791 -0.9473 -0.5579  0.7865
10980TIP3    H254432   2.913   2.132   2.649 -0.4681 -0.7179  0.9612
10981TIP3   OH254433   4.511   5.256   1.096 -0.1461 -0.1806  0.2840
10981TIP3    H154434   4.462   5.310   1.034  0.9387  0.3456 -0.1376
10981TIP3    H254435   4.454   5.182   1.114 -0.5126 -0.3190 -1.3077
10982TIP3   OH254436   4.003   4.617   2.096 -0.1371 -0.1167  0.6931
10982TIP3    H154437   3.950   4.543   2.065  0.4387 -0.4969  0.5989
10982TIP3    H254438   4.071   4.627   2.030  0.5504 -0.3342  1.3532
10983TIP3   OH254439   5.486   0.320   1.824 -0.0394 -0.4664 -0.1412
10983TIP3    H154440   5.420   0.270   1.775 -1.6897 -0.2883  1.7768
10983TIP3    H254441   5.440   0.351   1.902  2.0100  0.7443  0.6694
10984TIP3   OH254442   5.518   2.121  15.133 -0.2398  0.0311 -0.1986
10984TIP3    H154443   5.543   2.108  15.225  1.0771  0.2753 -0.5057
10984TIP3    H254444   5.463   2.200  15.135  0.2968  0.4036  0.3055
10985TIP3   OH254445   5.915   0.502   2.331  0.6194  0.3979 -0.0265
10985TIP3    H154446   5.992   0.514   2.387  0.8183  0.0867 -0.2256
10985TIP3    H254447   5.897   0.589   2.296  0.6596  0.5427  0.3070
10986TIP3   OH254448   6.714   5.103   4.708 -0.9971  0.1079 -0.4098
10986TIP3    H154449   6.758   5.061   4.634  0.5218 -1.1332  1.1036
10986TIP3    H254450   6.626   5.065   4.708 -0.5380 -1.0039 -0.7300
10987TIP3   OH254451   5.455   5.302   0.448  1.3506  0.4579  0.2177
10987TIP3    H154452   5.472   5.224   0.500  0.8398  0.4020  0.3090
10987TIP3    H254453   5.515   5.295   0.374  1.3247 -0.0132  0.2376
10988TIP3   OH254454   2.980   4.776   4.554 -0.0595  0.1666 -0.1230
10988TIP3    H154455   3.036   4.712   4.511 -0.8131  1.0089 -2.5689
10988TIP3    H254456   2.891   4.740   4.545 -0.2153  0.1680  1.1881
10989TIP3   OH254457   3.589   4.407   5.662  0.3552  0.0576  0.4190
10989TIP3    H154458   3.617   4.322   5.628 -2.3504 -0.7065 -0.0905
10989TIP3    H254459   3.591   4.465   5.586  0.5102  0.0213  0.3937
10990TIP3   OH254460   5.829   0.686   5.374 -0.0862 -0.1623  0.1646
10990TIP3    H154461   5.878   0.754   5.329 -0.4369 -0.6955 -1.0759
10990TIP3    H254462   5.891   0.647   5.435  1.2805 -1.2538 -1.8092
10991TIP3   OH254463   0.756   5.488  16.999 -0.0033  0.4070  0.5977
10991TIP3    H154464   0.765   5.511  17.091 -3.3760  1.7507  0.7319
10991TIP3    H254465   0.765   5.572  16.952 -0.0133  0.0125 -0.1291
10992TIP3   OH254466   6.558   5.950  10.897  0.1129 -0.5632 -0.1956
10992TIP3    H154467   6.535   5.935  10.989 -0.2441 -0.7665 -0.3156
10992TIP3    H254468   6.605   5.871  10.871 -0.7594 -1.0030 -0.4989
10993TIP3   OH254469   3.857   3.307  16.096  0.0884 -0.5461  0.1234
10993TIP3    H154470   3.939   3.344  16.064  0.0681 -0.2661  0.3965
10993TIP3    H254471   3.881   3.255  16.172  0.0583 -0.7310  0.0069
10994TIP3   OH254472   3.846   4.051  11.722 -0.3135 -0.2004 -0.2911
10994TIP3    H154473   3.827   4.012  11.807  1.3498 -0.5808 -0.0460
10994TIP3    H254474   3.761   4.077  11.687 -0.9548  1.1372  2.0368
10995TIP3   OH254475   3.478   6.309  11.036 -0.3485 -0.4298 -0.0449
10995TIP3    H154476   3.574   6.307  11.036 -0.3593 -1.7451  0.4715
10995TIP3    H254477   3.456   6.393  11.077  0.6042 -0.8054  1.3096
10996TIP3   OH254478   3.898   3.758  15.121 -0.0221 -0.2876  0.4385
10996TIP3    H154479   3.932   3.679  15.080  0.3876  0.3428 -0.4684
10996TIP3    H254480   3.976   3.810  15.142 -0.2387 -0.4426  1.7454
10997TIP3   OH254481   5.185   2.008   0.399 -0.1897 -0.5264  0.7940
10997TIP3    H154482   5.277   2.030   0.384 -0.7203  0.2754 -1.8697
10997TIP3    H254483   5.161   2.055   0.478  1.2686  0.5756  0.6113
10998TIP3   OH254484   0.777   1.085   2.850 -0.2091  0.6086  0.0324
10998TIP3    H154485   0.723   1.034   2.789  1.7546 -0.7634 -0.6755
10998TIP3    H254486   0.820   1.151   2.795  0.0694  0.6438  0.2874
10999TIP3   OH254487   1.581   4.638   2.182  0.0452 -0.2002 -0.2246
10999TIP3    H154488   1.578   4.674   2.271  0.5627  0.8354 -0.6079
10999TIP3    H254489   1.632   4.557   2.191  1.1034  0.4912  0.2449
11000TIP3   OH254490   3.931   5.521   6.054  0.2189  0.0451 -0.1455
11000TIP3    H154491   3.934   5.549   6.146 -1.4485  0.3906 -0.1644
11000TIP3    H254492   3.888   5.436   6.057  1.0438 -0.3899 -0.5290
11001TIP3   OH254493   3.714   6.677  11.275 -0.3654  0.2336 -0.1164
11001TIP3    H154494   3.757   6.762  11.259 -0.1544  0.5312  1.8131
11001TIP3    H254495   3.694   6.678  11.369  0.6121 -2.2947  0.1853
11002TIP3   OH254496   1.655   0.685  15.944 -0.2136  0.0691  0.6273
11002TIP3    H154497   1.653   0.595  15.910 -1.1142 -0.8149  2.8807
11002TIP3    H254498   1.573   0.724  15.913 -0.0644 -0.0189  0.0955
11003TIP3   OH254499   2.044   1.860   0.252 -0.0852  0.2907  0.1379
11003TIP3    H154500   2.021   1.898   0.337 -2.3348  1.9331 -1.0989
11003TIP3    H254501   2.099   1.785   0.273 -1.2463  0.1482  3.0776
11004TIP3   OH254502   0.809   5.079  12.076  0.5705 -0.7620 -0.9450
11004TIP3    H154503   0.860   5.028  12.013  2.4093 -0.3227  0.1095
11004TIP3    H254504   0.795   5.163  12.033  1.0770 -0.7581 -1.1107
11005TIP3   OH254505   6.194   5.770   2.764  0.3694 -0.0873 -0.4650
11005TIP3    H154506   6.140   5.713   2.819  0.8575  0.1377  0.2765
11005TIP3    H254507   6.173   5.859   2.795  0.2271  0.0787 -1.0380
11006TIP3   OH254508   6.577   2.597  12.603 -0.0075  0.4158 -0.4114
11006TIP3    H154509   6.496   2.550  12.584 -0.7420  1.0989  0.8820
11006TIP3    H254510   6.590   2.655  12.528  0.0123 -0.6218 -1.2366
11007TIP3   OH254511   6.755   0.557  12.659  0.2698  0.5665  1.1507
11007TIP3    H154512   6.831   0.525  12.708  1.5583  1.0242 -0.4570
11007TIP3    H254513   6.792   0.600  12.582 -1.6300  0.8646  0.3361
11008TIP3   OH254514   2.690   5.253  14.898  0.1568  0.4089  0.1037
11008TIP3    H154515   2.655   5.203  14.973  0.7460  2.8545  2.1258
11008TIP3    H254516   2.637   5.223  14.824 -1.1153 -1.4411  1.6312
11009TIP3   OH254517   1.194   3.712   0.587  0.2035 -0.1348 -0.0294
11009TIP3    H154518   1.158   3.678   0.505  0.5837 -0.4809 -0.0577
11009TIP3    H254519   1.270   3.657   0.604 -0.3166 -0.5706  0.9614
11010TIP3   OH254520   4.509   5.689   1.616  0.4471  0.0639 -0.0749
11010TIP3    H154521   4.595   5.691   1.657  0.4436 -0.3708 -0.0411
11010TIP3    H254522   4.523   5.644   1.532  0.0357 -1.1275  0.4668
11011TIP3   OH254523   0.224   3.009   2.954 -0.2295  0.1702  0.7897
11011TIP3    H154524   0.166   2.934   2.966 -2.7440  1.6360 -1.1962
11011TIP3    H254525   0.191   3.075   3.015 -1.5328  1.4158 -1.1525
11012TIP3   OH254526   1.310   4.946  17.043  0.2708  0.2174 -0.0593
11012TIP3    H154527   1.222   4.912  17.027  0.5854 -0.6107 -0.0905
11012TIP3    H254528   1.316   5.024  16.988  0.1436 -0.6803 -1.3827
11013TIP3   OH254529   0.610   1.043   0.410  0.1431 -0.1857 -0.8656
11013TIP3    H154530   0.633   1.111   0.473 -1.3904  1.3325 -1.8691
11013TIP3    H254531   0.664   1.062   0.333 -0.2642 -0.1052 -1.1360
11014TIP3   OH254532   1.136   1.088   5.758  0.4388  0.0651  0.0193
11014TIP3    H154533   1.097   1.168   5.793 -0.1613 -0.3625  0.3440
11014TIP3    H254534   1.078   1.062   5.687  1.3184  0.5926 -0.9272
11015TIP3   OH254535   0.512   1.215  13.748 -0.3094  0.0328 -0.0257
11015TIP3    H154536   0.525   1.224  13.843 -1.2086  1.2620 -0.0020
11015TIP3    H254537   0.525   1.303  13.713 -2.4010  0.1243 -0.7139
11016TIP3   OH254538   1.210   2.012   0.982  0.0564 -0.2960  0.1435
11016TIP3    H154539   1.228   1.919   0.967  0.4784  0.2356 -3.6022
11016TIP3    H254540   1.125   2.013   1.025  0.9332 -2.4045  2.1210
11017TIP3   OH254541   6.721   3.520  11.156 -0.4003  0.1056 -0.1093
11017TIP3    H154542   6.657   3.461  11.116 -3.4337  2.7782  0.3547
11017TIP3    H254543   6.756   3.570  11.082  1.2944 -1.3769 -0.3665
11018TIP3   OH254544   0.987   6.096  14.116 -0.1024  1.0811  0.4589
11018TIP3    H154545   1.019   6.008  14.134  1.0304  1.6309  1.3213
11018TIP3    H254546   0.898   6.097  14.149 -0.6178 -0.1309 -0.8165
11019TIP3   OH254547   3.436   3.818   3.415  0.0110 -0.3702 -0.0572
11019TIP3    H154548   3.379   3.882   3.373  0.4150  0.4988  0.6823
11019TIP3    H254549   3.518   3.824   3.367  0.1443 -0.1025  0.1953
11020TIP3   OH254550   0.615   0.058  16.109  0.1724  0.3931  0.3273
11020TIP3    H154551   0.524   0.034  16.123 -0.0935  1.6186  0.8908
11020TIP3    H254552   0.611   0.124  16.040  0.6427  0.3473  0.2556
11021TIP3   OH254553   1.928   5.478   1.236 -0.3739 -0.2091  0.6833
11021TIP3    H154554   1.905   5.512   1.149  0.6230 -1.1899  0.0052
11021TIP3    H254555   1.867   5.521   1.295 -1.3807  0.1461 -0.5569
11022TIP3   OH254556   5.508   2.194  15.399  0.2264  0.2263  0.8101
11022TIP3    H154557   5.466   2.280  15.394  1.9681  1.0568 -2.6672
11022TIP3    H254558   5.577   2.205  15.465 -0.0258  1.2867  0.9171
11023TIP3   OH254559   1.036   3.203   2.782  0.0609  0.2211  0.1043
11023TIP3    H154560   0.983   3.254   2.721 -1.3832 -0.4137  0.7746
11023TIP3    H254561   0.986   3.205   2.864  0.6779 -1.0872  0.5331
11024TIP3   OH254562   6.159   0.828   2.166 -0.5227 -0.0838 -0.0377
11024TIP3    H154563   6.184   0.835   2.258  0.9195 -0.5464 -0.3695
11024TIP3    H254564   6.233   0.865   2.118 -1.7938  1.3447 -0.9950
11025TIP3   OH254565   6.383   1.007   4.454 -0.5571 -0.2408 -0.3069
11025TIP3    H154566   6.472   1.040   4.442 -1.0544  0.9888 -0.7673
11025TIP3    H254567   6.383   0.922   4.411  0.3428 -0.1603 -0.4859
11026TIP3   OH254568   3.551   6.004   1.462  0.0831 -0.2686  0.0005
11026TIP3    H154569   3.640   6.037   1.458  0.1450 -0.3892  0.3371
11026TIP3    H254570   3.499   6.069   1.415  0.2256  0.2485  0.5442
11027TIP3   OH254571   2.501   4.007  12.069 -0.5523 -0.0034 -0.5144
11027TIP3    H154572   2.482   3.966  11.985 -2.2130 -0.2584 -0.0512
11027TIP3    H254573   2.444   3.963  12.131 -1.2762  1.9394  0.2847
11028TIP3   OH254574   3.993   6.291  11.977  0.1736  0.3023 -0.0510
11028TIP3    H154575   4.016   6.320  11.889  0.3919  0.4695  0.0599
11028TIP3    H254576   4.030   6.358  12.035  1.0037 -0.3869  0.2319
11029TIP3   OH254577   6.578   3.630   4.159 -0.0041  0.3348 -0.3223
11029TIP3    H154578   6.573   3.686   4.082 -0.4252 -0.1379 -0.6462
11029TIP3    H254579   6.491   3.590   4.165  0.5318 -0.9360 -0.5975
11030TIP3   OH254580   2.691   1.491   5.599  0.3561  0.1381  0.2430
11030TIP3    H154581   2.764   1.552   5.585  1.2238 -0.5666  1.4237
11030TIP3    H254582   2.621   1.546   5.634  0.7156  0.6575  0.1693
11031TIP3   OH254583   5.506   4.594   1.247  0.1267 -0.1991 -0.0322
11031TIP3    H154584   5.581   4.534   1.245  0.7828  0.4763  1.9429
11031TIP3    H254585   5.540   4.677   1.216 -0.5897 -0.5674 -1.9865
11032TIP3   OH254586   2.606   5.549  16.476 -0.3995 -0.4970  0.2252
11032TIP3    H154587   2.523   5.557  16.523  0.3795 -0.2937  1.5968
11032TIP3    H254588   2.612   5.456  16.454 -1.3319 -0.3901 -0.5680
11033TIP3   OH254589   3.696   0.314   5.768  0.5547  0.2706  0.1700
11033TIP3    H154590   3.711   0.386   5.706  1.2024 -0.1592 -0.1946
11033TIP3    H254591   3.767   0.323   5.832  2.4109 -1.6918 -1.4699
11034TIP3   OH254592   5.626   3.672  15.567 -0.1033 -0.1258  0.0275
11034TIP3    H154593   5.569   3.636  15.499 -0.3603  1.0574 -0.3988
11034TIP3    H254594   5.709   3.687  15.522 -0.0922  0.1061  0.1259
11035TIP3   OH254595   5.539   2.754  12.262 -0.3205 -0.2197 -0.3396
11035TIP3    H154596   5.454   2.739  12.304 -0.4966 -1.3868 -1.0666
11035TIP3    H254597   5.530   2.840  12.221 -1.5004 -0.7055 -1.1820
11036TIP3   OH254598   1.032   0.708  12.065 -0.5957  0.8131  0.3080
11036TIP3    H154599   1.120   0.732  12.037 -0.6638 -0.4774 -1.2377
11036TIP3    H254600   1.038   0.699  12.160  0.4299  2.6147  0.4475
11037TIP3   OH254601   6.685   1.207   5.497 -0.1871 -0.6335 -0.2151
11037TIP3    H154602   6.590   1.220   5.505 -0.1659  0.8496 -1.8280
11037TIP3    H254603   6.696   1.112   5.495 -1.4809 -0.8630  1.3760
11038TIP3   OH254604   2.997   4.388  12.506  0.2511  0.4911  0.1329
11038TIP3    H154605   2.945   4.320  12.464  1.0201  0.1517 -0.3045
11038TIP3    H254606   2.979   4.378  12.599 -0.0356  0.0192  0.0316
11039TIP3   OH254607   4.578   6.433  14.697  0.6888  0.1763  0.1794
11039TIP3    H154608   4.555   6.344  14.669  1.3868  0.4627 -1.3824
11039TIP3    H254609   4.674   6.434  14.696  0.6920  1.2188 -0.8074
11040TIP3   OH254610   0.824   6.692   0.648 -0.9522 -0.5572 -0.1779
11040TIP3    H154611   0.746   6.691   0.593  0.3099 -0.2637 -2.0792
11040TIP3    H254612   0.865   6.777   0.630  0.6575 -1.3635 -0.5594
11041TIP3   OH254613   6.233   6.040   4.944 -0.2986  0.0948 -0.5881
11041TIP3    H154614   6.298   6.026   5.013 -0.7745 -0.4173 -0.2372
11041TIP3    H254615   6.284   6.042   4.863  0.3694  1.4555 -0.1796
11042TIP3   OH254616   2.575   4.976   0.737  0.5054  0.0474 -0.7196
11042TIP3    H154617   2.600   4.969   0.645 -0.9245  1.2859 -1.2353
11042TIP3    H254618   2.529   5.059   0.744  1.2140  0.3308  1.2927
11043TIP3   OH254619   1.351   4.007  15.919 -0.3635 -0.1358 -0.7034
11043TIP3    H154620   1.404   3.945  15.871 -2.4019 -1.8133 -0.9509
11043TIP3    H254621   1.266   4.007  15.874 -1.0355  1.3706  0.4477
11044TIP3   OH254622   6.709   3.192   2.214 -0.0623  0.5450 -0.4568
11044TIP3    H154623   6.764   3.166   2.288 -0.9070 -0.4367 -0.1437
11044TIP3    H254624   6.645   3.121   2.206 -0.4809  1.0285 -1.6266
11045TIP3   OH254625   4.821   0.688   1.833 -0.3857  0.6161 -0.6143
11045TIP3    H154626   4.910   0.669   1.864 -0.6307  0.5768  0.0778
11045TIP3    H254627   4.771   0.705   1.913 -1.1379  0.0642 -0.9586
11046TIP3   OH254628   3.462   6.490  14.313 -0.5908 -0.4368 -0.6470
11046TIP3    H154629   3.421   6.466  14.229  0.1989 -2.2787 -0.5562
11046TIP3    H254630   3.430   6.424  14.374  1.1396 -0.8897 -0.1834
11047TIP3   OH254631   3.381   0.798   1.442  0.1967  0.3454 -0.4738
11047TIP3    H154632   3.432   0.774   1.364  0.0347  0.8075 -0.7276
11047TIP3    H254633   3.412   0.738   1.510  1.7234  1.1792 -0.3859
11048TIP3   OH254634   5.879   1.524   4.098  0.4155 -0.2167  0.1044
11048TIP3    H154635   5.913   1.452   4.045 -0.9109 -0.2806 -0.6982
11048TIP3    H254636   5.957   1.576   4.119  1.0251 -0.3221 -1.7252
11049TIP3   OH254637   6.696   2.675   1.320  0.7101 -0.4378 -0.7535
11049TIP3    H154638   6.747   2.596   1.338 -1.3809 -1.8607 -0.6638
11049TIP3    H254639   6.752   2.747   1.350  2.6424 -1.8645 -0.7371
11050TIP3   OH254640   0.501   5.294  14.313  0.6193 -0.3723 -0.1013
11050TIP3    H154641   0.508   5.371  14.256 -0.3553  0.1282  0.4343
11050TIP3    H254642   0.591   5.275  14.338  0.8208  1.0985  0.3920
11051TIP3   OH254643   6.681   4.947   1.071 -0.0214  0.6499  0.0681
11051TIP3    H154644   6.714   5.030   1.038  1.5911  0.7421  1.7271
11051TIP3    H254645   6.697   4.951   1.166 -1.4144 -0.8921  0.4111
11052TIP3   OH254646   4.197   4.104  15.390  0.0838  0.4281  0.0804
11052TIP3    H154647   4.291   4.113  15.374 -0.0938  1.0121 -0.6852
11052TIP3    H254648   4.191   4.039  15.461  0.9959 -0.8334 -0.9387
11053TIP3   OH254649   0.426   4.301   3.498  0.6836  0.3768 -0.4448
11053TIP3    H154650   0.392   4.353   3.571  0.2073 -0.9529  0.3180
11053TIP3    H254651   0.506   4.347   3.472 -0.4429  2.2776 -0.7548
11054TIP3   OH254652   0.466   4.856   2.173  0.5509  0.0154 -0.8044
11054TIP3    H154653   0.550   4.813   2.190  0.1859 -0.7598 -0.9120
11054TIP3    H254654   0.486   4.950   2.176  1.1956 -0.1355  0.3189
11055TIP3   OH254655   0.523   5.345  15.455 -0.2302  0.0054 -0.0602
11055TIP3    H154656   0.557   5.306  15.536  1.5158 -1.7056 -1.5245
11055TIP3    H254657   0.479   5.273  15.410  1.4081  0.1167 -1.9630
11056TIP3   OH254658   0.189   0.448   6.117  0.6298 -0.0359 -0.4542
11056TIP3    H154659   0.238   0.445   6.035  1.3541  0.7632 -0.0591
11056TIP3    H254660   0.098   0.436   6.091  0.9366 -0.6795 -1.2829
11057TIP3   OH254661   3.402   6.532  17.091  0.3084 -0.5094 -0.0614
11057TIP3    H154662   3.468   6.601  17.087  2.2369 -2.1726  1.3168
11057TIP3    H254663   3.319   6.579  17.092  1.3797  1.6627 -2.2591
11058TIP3   OH254664   0.380   3.265   1.309  0.5754 -0.4369  0.2717
11058TIP3    H154665   0.437   3.310   1.372  0.6076  1.1712 -0.8423
11058TIP3    H254666   0.356   3.333   1.246 -0.0289 -1.8373 -1.0604
11059TIP3   OH254667   2.823   1.877  15.446 -0.3882 -0.2752 -0.4142
11059TIP3    H154668   2.793   1.808  15.505  0.8214 -1.1077 -0.7288
11059TIP3    H254669   2.912   1.896  15.475 -0.2633  0.2656 -1.1246
11060TIP3   OH254670   4.459   6.414   3.590 -0.2949 -0.1104 -0.0029
11060TIP3    H154671   4.531   6.403   3.653  1.5940  3.0961 -1.3453
11060TIP3    H254672   4.462   6.335   3.536  0.2579 -1.3645  1.7904
11061TIP3   OH254673   1.351   6.333  10.629  0.3824  0.1918 -0.4577
11061TIP3    H154674   1.354   6.238  10.619  0.2482 -0.1057  1.7305
11061TIP3    H254675   1.260   6.353  10.651  0.6884  0.6115  0.5142
11062TIP3   OH254676   5.981   1.513  14.364 -0.1106  0.4304  0.5667
11062TIP3    H154677   5.959   1.485  14.275  0.0378  1.6490  0.1323
11062TIP3    H254678   5.897   1.542  14.401 -0.3040 -0.7333  1.0901
11063TIP3   OH254679   0.699   2.757   4.944 -0.4088 -0.6621  0.2173
11063TIP3    H154680   0.794   2.758   4.935 -0.3873  2.3342 -0.0537
11063TIP3    H254681   0.669   2.694   4.879  1.3150 -0.4399 -0.8462
11064TIP3   OH254682   3.180   4.770   1.895  0.3264  0.8952 -0.3592
11064TIP3    H154683   3.213   4.720   1.969  1.5475 -0.6538 -1.8838
11064TIP3    H254684   3.220   4.729   1.818 -0.8863  2.4426 -1.8907
11065TIP3   OH254685   1.561   1.639  17.039 -0.1673 -0.1749  0.3976
11065TIP3    H154686   1.607   1.694  17.102  1.3421 -1.8414  0.8355
11065TIP3    H254687   1.559   1.691  16.959  2.0921  0.1579  0.4995
11066TIP3   OH254688   4.841   1.948  14.878  0.2520 -0.6908  0.2003
11066TIP3    H154689   4.826   1.863  14.920 -0.9841  0.8065  3.0421
11066TIP3    H254690   4.755   1.975  14.847  0.4833 -0.0549  0.1041
11067TIP3   OH254691   2.116   4.324  11.825 -0.6705 -0.1523  0.0381
11067TIP3    H154692   2.147   4.320  11.916  0.5242 -0.4097 -0.3615
11067TIP3    H254693   2.048   4.391  11.826  0.0854  0.6360  0.9196
11068TIP3   OH254694   2.693   2.774  12.253  0.2329 -0.0332 -0.1002
11068TIP3    H154695   2.763   2.761  12.190  0.5164  0.4269  0.1211
11068TIP3    H254696   2.613   2.750  12.205  0.6528 -1.9605  0.0859
11069TIP3   OH254697   1.603   1.662   0.229 -0.1735  0.6583  0.2577
11069TIP3    H154698   1.610   1.732   0.294  0.7692 -0.3100  1.2400
11069TIP3    H254699   1.629   1.703   0.146  1.0245  1.3006  0.9287
11070TIP3   OH254700   3.854   1.553   0.873  0.3519 -0.0265 -0.7182
11070TIP3    H154701   3.809   1.534   0.955  2.9392 -0.4542  0.7189
11070TIP3    H254702   3.888   1.642   0.884  2.2142 -0.7159 -0.5305
11071TIP3   OH254703   6.753   3.322  14.822 -0.2097  0.3270 -0.0370
11071TIP3    H154704   6.702   3.272  14.886 -0.7407  0.3010 -0.4721
11071TIP3    H254705   6.815   3.373  14.875 -1.4386  1.2283  0.6007
11072TIP3   OH254706   0.503   0.984  11.040  0.0210  0.3098 -0.3356
11072TIP3    H154707   0.446   0.950  10.971  0.6276 -4.0467  0.9592
11072TIP3    H254708   0.588   0.943  11.024  0.3342 -0.4478  2.5500
11073TIP3   OH254709   1.261   5.480  16.453  0.6694 -0.1222 -0.4926
11073TIP3    H154710   1.302   5.522  16.529  0.5298  0.8142 -0.9188
11073TIP3    H254711   1.186   5.434  16.489  1.5261 -1.0444  0.1565
11074TIP3   OH254712   2.044   2.920   2.325  0.1786 -0.3075 -0.7870
11074TIP3    H154713   2.139   2.910   2.331  0.0893 -0.2914  1.6026
11074TIP3    H254714   2.008   2.837   2.357 -0.6452 -0.4988 -2.1171
11075TIP3   OH254715   1.848   5.368  11.960  0.4618 -0.4217 -0.5396
11075TIP3    H154716   1.760   5.332  11.964  0.2477  0.2074  1.1788
11075TIP3    H254717   1.903   5.296  11.930 -0.5782 -0.9240 -1.2508
11076TIP3   OH254718   1.439   6.533   1.855  0.7064 -0.3336  0.4637
11076TIP3    H154719   1.395   6.610   1.891 -2.3178 -1.4953 -0.3763
11076TIP3    H254720   1.445   6.472   1.929  2.9416  0.5367  1.0849
11077TIP3   OH254721   4.350   4.897  15.730  0.0511 -0.0989  0.1470
11077TIP3    H154722   4.320   4.920  15.642 -0.6517 -0.2010  0.3518
11077TIP3    H254723   4.381   4.980  15.767  2.2029 -0.3832 -0.8736
11078TIP3   OH254724   2.771   0.220   3.313  0.2382 -0.3401 -0.1457
11078TIP3    H154725   2.809   0.240   3.227 -3.0433 -1.8348 -2.1407
11078TIP3    H254726   2.787   0.127   3.326  0.1679 -0.2591  0.5964
11079TIP3   OH254727   1.785   2.869  16.663  0.4762  0.2453 -0.0309
11079TIP3    H154728   1.720   2.891  16.597 -1.6346 -1.6739  1.2757
11079TIP3    H254729   1.782   2.941  16.726 -0.4797  0.1542  0.0433
11080TIP3   OH254730   6.427   2.960  15.817  0.5683  0.6223 -0.1022
11080TIP3    H154731   6.335   2.953  15.843  0.7474  1.1535  0.7251
11080TIP3    H254732   6.437   3.051  15.788  0.9819  0.7542  0.4386
11081TIP3   OH254733   6.753   0.299   1.032 -0.3964  0.8034 -0.7719
11081TIP3    H154734   6.715   0.220   1.071  1.2811 -0.6094 -1.8299
11081TIP3    H254735   6.782   0.271   0.945  3.6633  1.4413  0.1526
11082TIP3   OH254736   2.533   4.897   2.907  0.5941 -0.4137 -0.0190
11082TIP3    H154737   2.509   4.820   2.958  1.1253 -1.3631 -1.1567
11082TIP3    H254738   2.486   4.887   2.825  1.3364  0.0290 -0.5072
11083TIP3   OH254739   2.866   6.440   4.051 -0.5466 -0.5731 -0.9650
11083TIP3    H154740   2.779   6.467   4.079 -0.5948 -0.3490 -1.3104
11083TIP3    H254741   2.902   6.519   4.009 -0.1608 -0.6501 -0.7782
11084TIP3   OH254742   5.040   4.520  14.769 -0.5579 -0.5516  0.0704
11084TIP3    H154743   5.054   4.470  14.850  0.7802 -1.4708 -0.6815
11084TIP3    H254744   5.098   4.596  14.777 -0.4086 -0.6544 -0.0251
11085TIP3   OH254745   3.840   3.840  13.428  0.2443  0.3972 -0.0097
11085TIP3    H154746   3.828   3.786  13.349 -0.8411 -0.8103  0.9381
11085TIP3    H254747   3.822   3.781  13.501  2.5809  1.1286  1.2431
11086TIP3   OH254748   2.609   5.166  14.401 -0.0577  0.4441 -0.4500
11086TIP3    H154749   2.662   5.100  14.357  0.5653  1.6633 -1.6083
11086TIP3    H254750   2.550   5.198  14.333 -1.1460  0.2899  0.3932
11087TIP3   OH254751   2.413   0.688   5.880 -0.2842 -0.5461  0.4541
11087TIP3    H154752   2.368   0.631   5.817 -0.1678  0.7487 -0.8674
11087TIP3    H254753   2.492   0.639   5.903 -0.2588 -1.0107 -0.5365
11088TIP3   OH254754   6.419   3.246  15.183  0.1358  0.2931 -0.4199
11088TIP3    H154755   6.370   3.173  15.221 -3.1744  1.8733 -1.2802
11088TIP3    H254756   6.476   3.277  15.253 -0.4853 -1.3172  0.8487
11089TIP3   OH254757   3.290   4.623  11.695 -0.1569 -0.5699  0.1486
11089TIP3    H154758   3.315   4.691  11.757 -0.2955  0.5401 -0.9694
11089TIP3    H254759   3.312   4.541  11.739 -0.9025  0.1290  1.9539
11090TIP3   OH254760   4.948   4.489   1.772  0.5116 -0.2723 -0.1518
11090TIP3    H154761   5.011   4.463   1.840 -0.4499 -0.3205  0.7582
11090TIP3    H254762   4.967   4.582   1.755  1.4153 -0.5303 -0.5550
11091TIP3   OH254763   4.193   2.060   3.788  0.4619  0.5509  0.1998
11091TIP3    H154764   4.124   2.051   3.723  0.2750  0.7069  0.3764
11091TIP3    H254765   4.268   2.092   3.739  0.3221  0.6644  0.0607
11092TIP3   OH254766   2.164   3.455  13.927  0.3556 -0.2353 -0.0617
11092TIP3    H154767   2.207   3.408  13.998 -1.1625 -1.3054  0.2051
11092TIP3    H254768   2.130   3.535  13.967  1.5393  0.3261 -0.1446
11093TIP3   OH254769   5.820   4.288   0.328  0.2819  0.2650 -0.3198
11093TIP3    H154770   5.800   4.365   0.381 -0.6752  0.0441 -0.3408
11093TIP3    H254771   5.848   4.324   0.244  2.3156  0.6283  0.4632
11094TIP3   OH254772   6.346   0.126   5.404  0.3590  0.4453  0.0074
11094TIP3    H154773   6.380   0.204   5.360 -0.9850  1.3399  0.5049
11094TIP3    H254774   6.287   0.085   5.341  0.2548  0.4105  0.1266
11095TIP3   OH254775   2.681   5.403   5.178 -0.1003 -0.3209  0.2392
11095TIP3    H154776   2.653   5.311   5.183  2.9518 -1.3463  0.6437
11095TIP3    H254777   2.641   5.444   5.254 -0.1608 -1.7819  1.0357
11096TIP3   OH254778   0.137   2.917   3.629  0.1930  0.3486  0.1541
11096TIP3    H154779   0.205   2.855   3.603  0.7772  0.4759  1.3071
11096TIP3    H254780   0.055   2.875   3.602  0.6066 -0.7184  0.4974
11097TIP3   OH254781   5.317   6.382   1.125  0.4166  0.2283  0.2821
11097TIP3    H154782   5.283   6.466   1.157 -0.1531 -0.0264  0.3591
11097TIP3    H254783   5.243   6.321   1.134  0.9345 -0.3686  0.5777
11098TIP3   OH254784   6.642   6.801  11.670  0.2433  0.1613  0.8784
11098TIP3    H154785   6.699   6.786  11.745 -0.9316  0.2814  1.8195
11098TIP3    H254786   6.677   6.880  11.629  0.7179  0.2576  1.4536
11099TIP3   OH254787   0.049   6.147  11.924  0.1309 -0.1400  0.6300
11099TIP3    H154788   0.052   6.096  12.005 -2.5642 -2.1339 -0.3557
11099TIP3    H254789   0.141   6.158  11.899  0.9500 -1.4931  2.7236
11100TIP3   OH254790   5.624   4.211  12.339 -0.2294  0.7365  0.0408
11100TIP3    H154791   5.666   4.297  12.339  0.4223  0.4905  2.3797
11100TIP3    H254792   5.654   4.170  12.420 -1.6417 -1.1439 -0.3275
11101TIP3   OH254793   1.564   1.792   3.277  0.2782  0.3667  0.3194
11101TIP3    H154794   1.511   1.720   3.310 -0.7436  0.3893 -1.1920
11101TIP3    H254795   1.591   1.840   3.356 -0.3289 -0.7475  1.2383
11102TIP3   OH254796   2.582   5.291   0.801  0.1475  0.4018  0.2677
11102TIP3    H154797   2.635   5.240   0.863  0.9992 -2.1007 -2.3076
11102TIP3    H254798   2.633   5.371   0.786  0.4699  0.5344  1.8957
11103TIP3   OH254799   1.878   1.462   2.050 -0.0082  0.7074 -0.3040
11103TIP3    H154800   1.801   1.404   2.046  0.6473 -0.3487  1.2166
11103TIP3    H254801   1.945   1.415   2.000 -0.3444  1.6903 -1.7422
11104TIP3   OH254802   4.918   5.889   1.462  0.3145 -0.9000 -0.1751
11104TIP3    H154803   5.001   5.843   1.470  0.2935 -1.4310 -2.3952
11104TIP3    H254804   4.909   5.907   1.369 -2.5302 -1.7743 -0.1679
11105TIP3   OH254805   4.677   2.821  15.227  0.1956  0.0135  0.2294
11105TIP3    H154806   4.601   2.803  15.173  0.2787 -2.0212  0.6747
11105TIP3    H254807   4.669   2.913  15.251 -1.6941  0.0538 -0.3801
11106TIP3   OH254808   0.418   3.491   3.360 -0.2833 -0.0575 -0.1056
11106TIP3    H154809   0.441   3.579   3.389 -1.1528  0.6259 -1.3643
11106TIP3    H254810   0.500   3.442   3.365  0.4697  1.1272 -0.4187
11107TIP3   OH254811   0.958   1.395  12.850 -0.3880 -0.0683  0.1572
11107TIP3    H154812   1.029   1.371  12.909  2.1299  1.0748 -2.1796
11107TIP3    H254813   0.967   1.490  12.838 -3.6683  0.5298  1.3066
11108TIP3   OH254814   5.673   1.568  16.896 -0.2818  0.3722 -0.0973
11108TIP3    H154815   5.685   1.581  16.991 -1.3870 -1.3205  0.3207
11108TIP3    H254816   5.580   1.586  16.882 -0.0888  0.7497 -0.8938
11109TIP3   OH254817   2.358   3.825  15.071  0.6370 -0.0988 -0.4538
11109TIP3    H154818   2.313   3.908  15.052 -2.1875 -1.4152 -0.0836
11109TIP3    H254819   2.386   3.793  14.985 -3.1568 -1.2511 -1.4708
11110TIP3   OH254820   1.456   2.923  11.886 -0.3029 -0.2572 -0.0358
11110TIP3    H154821   1.453   2.896  11.978  1.5216 -1.1925 -0.2170
11110TIP3    H254822   1.541   2.894  11.855  0.3432  2.6100 -1.2631
11111TIP3   OH254823   2.249   0.223   3.139 -0.4232  0.7557 -0.2092
11111TIP3    H154824   2.204   0.209   3.056 -0.0397 -1.3214 -0.1245
11111TIP3    H254825   2.340   0.240   3.115 -0.0752 -0.9666 -0.2258
11112TIP3   OH254826   0.505   0.363   3.699  0.3169 -0.3884 -0.0581
11112TIP3    H154827   0.595   0.361   3.664  0.1891  0.4496 -0.4446
11112TIP3    H254828   0.497   0.280   3.746  1.5711 -0.1285  0.6691
11113TIP3   OH254829   4.535   4.754  12.605  0.2462  0.2366 -0.4550
11113TIP3    H154830   4.457   4.721  12.561  1.3880 -1.1013 -1.5698
11113TIP3    H254831   4.603   4.752  12.538  1.0943  2.1254  0.2580
11114TIP3   OH254832   5.950   4.835   3.679 -0.0163 -0.7778 -0.2387
11114TIP3    H154833   5.858   4.861   3.674  0.9318  3.4135  0.2809
11114TIP3    H254834   5.958   4.763   3.617 -3.4362 -0.6114 -1.0480
11115TIP3   OH254835   3.333   6.766   3.074  0.0717 -0.1181  0.2062
11115TIP3    H154836   3.410   6.795   3.025  0.1639  2.2058  1.5699
11115TIP3    H254837   3.272   6.840   3.069 -0.6945 -0.5869  1.9094
11116TIP3   OH254838   0.177   4.866   2.208  0.2831  0.4944  0.2175
11116TIP3    H154839   0.268   4.850   2.182  0.1724 -0.6358  0.4888
11116TIP3    H254840   0.182   4.880   2.303  0.3056  1.6013  0.0685
11117TIP3   OH254841   2.110   1.898  13.129 -0.4539  0.3507 -0.2788
11117TIP3    H154842   2.196   1.855  13.130 -1.8184 -2.6461 -0.9088
11117TIP3    H254843   2.075   1.883  13.217 -1.8966 -2.1928 -1.1598
11118TIP3   OH254844   5.175   5.416   5.963 -0.1264  0.4894  0.8784
11118TIP3    H154845   5.268   5.398   5.975 -0.0406  1.5512  1.9527
11118TIP3    H254846   5.131   5.358   6.025 -0.2411 -0.4413 -0.0422
11119TIP3   OH254847   4.411   4.752  16.137 -0.2607  0.5370  0.4335
11119TIP3    H154848   4.317   4.768  16.152  0.0555  1.7352  1.2704
11119TIP3    H254849   4.414   4.710  16.051 -1.6058 -0.0036  0.6161
11120TIP3   OH254850   5.906   5.408  11.790  0.6766  0.2710  0.3179
11120TIP3    H154851   5.852   5.425  11.867  0.0595  0.7075 -0.1971
11120TIP3    H254852   5.991   5.383  11.825  0.4139  0.4994  1.1376
11121TIP3   OH254853   5.465   6.231  12.604  0.6723  0.7334  0.3039
11121TIP3    H154854   5.438   6.228  12.696  2.7640 -0.5016  0.9465
11121TIP3    H254855   5.522   6.155  12.593  0.9630  1.1895 -1.8684
11122TIP3   OH254856   0.352   5.827   1.441 -0.1930 -0.3749 -0.2999
11122TIP3    H154857   0.353   5.865   1.529  0.4690 -0.7997 -0.1149
11122TIP3    H254858   0.339   5.733   1.455  2.5852 -0.8881 -0.4364
11123TIP3   OH254859   4.178   2.166   2.874  0.2852  0.1846 -0.2921
11123TIP3    H154860   4.187   2.071   2.865  0.9879  0.1646  0.5241
11123TIP3    H254861   4.265   2.200   2.851  1.5182  0.2908  3.8369
11124TIP3   OH254862   3.735   5.061  15.942 -0.1117  0.3784 -0.4460
11124TIP3    H154863   3.643   5.088  15.939 -0.3526 -0.4956 -1.9513
11124TIP3    H254864   3.732   4.965  15.935  0.8564  0.1793  1.2431
11125TIP3   OH254865   6.423   1.365   4.897  0.5263  0.4336 -0.0484
11125TIP3    H154866   6.385   1.359   4.809  1.1218 -0.2739 -0.2628
11125TIP3    H254867   6.386   1.446   4.933  0.5194  0.9073 -1.0653
11126TIP3   OH254868   1.941   2.014  12.962  0.2787 -0.7978  0.3595
11126TIP3    H154869   1.928   2.106  12.985  0.6837 -0.1030 -1.9170
11126TIP3    H254870   1.998   1.979  13.030  2.1574  1.3203 -0.0175
11127TIP3   OH254871   6.296   3.372   0.483 -0.4246  0.5126 -0.0636
11127TIP3    H154872   6.211   3.372   0.526 -0.1010  0.6016  0.5840
11127TIP3    H254873   6.324   3.463   0.486 -0.7322  0.6551 -1.1425
11128TIP3   OH254874   5.491   4.981  15.664  0.0535 -0.1991  0.1225
11128TIP3    H154875   5.408   4.970  15.618 -0.4102 -0.5446  1.0172
11128TIP3    H254876   5.551   4.919  15.623  0.1238  0.6601 -1.1048
11129TIP3   OH254877   4.557   5.655  15.490 -0.6954  0.2860  0.2174
11129TIP3    H154878   4.477   5.690  15.529 -1.0396 -1.6087  1.3397
11129TIP3    H254879   4.543   5.561  15.486  1.3310 -0.0552  0.0871
11130TIP3   OH254880   0.249   0.752   4.405 -0.3450  0.8197  0.3754
11130TIP3    H154881   0.244   0.721   4.496  0.1276  0.7944  0.3960
11130TIP3    H254882   0.273   0.674   4.355  0.0484  0.9729  0.3195
11131TIP3   OH254883   1.920   1.665  16.785  0.2651  0.4317 -0.0620
11131TIP3    H154884   1.914   1.583  16.737 -0.1203  0.1113  0.5294
11131TIP3    H254885   1.831   1.702  16.780  0.4564  0.8629 -0.4039
11132TIP3   OH254886   5.604   3.877   3.730 -0.2785 -0.0100 -0.3476
11132TIP3    H154887   5.621   3.933   3.805  0.4517 -1.1423  0.3569
11132TIP3    H254888   5.513   3.895   3.707 -1.1363 -1.0047  2.0046
11133TIP3   OH254889   4.938   6.344  12.537 -0.1698 -0.1255 -0.7905
11133TIP3    H154890   4.918   6.355  12.444 -0.1928 -0.4822 -0.8285
11133TIP3    H254891   5.032   6.323  12.539  0.3255  1.9311 -0.5872
11134TIP3   OH254892   0.267   3.878   5.623  0.5272  0.3604  0.3730
11134TIP3    H154893   0.350   3.883   5.575  1.4186  0.3357  1.8395
11134TIP3    H254894   0.285   3.922   5.706 -1.2344  1.1953  0.3403
11135TIP3   OH254895   3.207   3.574  12.728 -0.4673 -0.4510  0.3061
11135TIP3    H154896   3.158   3.655  12.747 -1.4375 -0.8115 -0.5413
11135TIP3    H254897   3.298   3.596  12.747 -0.3939  1.5548 -1.8779
11136TIP3   OH254898   3.028   3.928  11.361 -0.1511  0.5594  0.1140
11136TIP3    H154899   3.047   3.836  11.380  2.2052  0.7574 -1.0171
11136TIP3    H254900   3.023   3.969  11.447  2.5957  0.0322  0.6002
11137TIP3   OH254901   4.363   1.522  15.794 -0.6879  0.0527  0.5477
11137TIP3    H154902   4.419   1.590  15.831 -1.1888  0.6973  0.1348
11137TIP3    H254903   4.297   1.569  15.744 -0.3706 -0.7812 -0.7025
11138TIP3   OH254904   5.072   0.330   2.882  0.4048  0.2274 -0.1672
11138TIP3    H154905   5.067   0.267   2.811 -0.9380  1.0206 -0.8128
11138TIP3    H254906   4.982   0.339   2.913  1.0467 -0.7360  2.2470
11139TIP3   OH254907   4.287   6.319   0.455 -0.1846 -0.0669  0.6417
11139TIP3    H154908   4.194   6.297   0.451 -0.2485  0.1669  0.7923
11139TIP3    H254909   4.305   6.360   0.370 -0.1538 -0.3635  0.5059
11140TIP3   OH254910   6.685   5.214   1.383 -0.1068  0.2477 -0.3261
11140TIP3    H154911   6.725   5.182   1.302  0.4053  0.3087 -0.1058
11140TIP3    H254912   6.627   5.285   1.356  0.8431  0.9639 -0.5445
11141TIP3   OH254913   6.216   3.383   1.298  0.4617 -0.3167 -0.3905
11141TIP3    H154914   6.261   3.316   1.350  0.7417 -0.3334 -0.6520
11141TIP3    H254915   6.163   3.332   1.236  0.0758 -0.2973 -0.0806
11142TIP3   OH254916   1.927   2.765   2.121 -0.1145  0.1626 -0.3803
11142TIP3    H154917   1.867   2.819   2.070 -0.9157 -0.1342  0.2191
11142TIP3    H254918   1.975   2.826   2.176  0.7053  0.4788 -1.4221
11143TIP3   OH254919   5.677   4.157   3.689  0.2929  0.2362  0.5962
11143TIP3    H154920   5.626   4.212   3.748  1.1511  1.2430  0.4490
11143TIP3    H254921   5.684   4.209   3.609 -1.0401 -1.2044 -0.4890
11144TIP3   OH254922   2.562   0.809  11.823 -0.5139 -0.0247 -0.1733
11144TIP3    H154923   2.484   0.814  11.878  0.3112 -0.3538  1.0587
11144TIP3    H254924   2.548   0.732  11.768  0.1923 -1.8858  2.0967
11145TIP3   OH254925   6.367   1.177  13.396 -0.6146  0.1385 -0.2485
11145TIP3    H154926   6.357   1.179  13.301 -1.0337 -2.7103 -0.3506
11145TIP3    H254927   6.307   1.244  13.428 -1.0147  0.6358 -1.9621
11146TIP3   OH254928   4.522   6.293   3.308 -0.9017  0.5476  0.3924
11146TIP3    H154929   4.530   6.387   3.294 -1.8331  0.6033  0.1615
11146TIP3    H254930   4.584   6.253   3.248 -2.9670  0.8823 -2.1375
11147TIP3   OH254931   4.460   1.324   5.242  0.4729 -0.8100  0.7227
11147TIP3    H154932   4.413   1.303   5.322  1.0192  1.0917  1.5894
11147TIP3    H254933   4.549   1.290   5.256  1.4332  2.0276  2.2320
11148TIP3   OH254934   0.439   2.353   4.975 -0.2683 -0.4145 -0.2090
11148TIP3    H154935   0.425   2.445   4.996 -2.2928 -0.6459 -0.3962
11148TIP3    H254936   0.366   2.308   5.016  0.9856 -2.0400  0.3634
11149TIP3   OH254937   4.892   1.743  12.453  0.8621  0.2335  0.5803
11149TIP3    H154938   4.818   1.736  12.392  0.8560 -0.4398  0.6647
11149TIP3    H254939   4.851   1.759  12.538  0.7840 -0.5804  0.7037
11150TIP3   OH254940   3.899   5.798   4.706 -0.4378 -0.6543 -0.1058
11150TIP3    H154941   3.992   5.821   4.702 -0.7276  0.6986  0.4589
11150TIP3    H254942   3.854   5.881   4.723 -1.6155 -1.4994  1.2017
11151TIP3   OH254943   2.308   4.929  15.354  0.2627 -0.1986  0.2185
11151TIP3    H154944   2.312   5.022  15.376 -1.0893  0.4265 -1.8127
11151TIP3    H254945   2.388   4.914  15.302  0.4681 -0.1748  0.5237
11152TIP3   OH254946   1.017   2.726   1.572  0.1416  0.3302  0.5151
11152TIP3    H154947   0.971   2.809   1.582  1.0779  0.9057  0.2063
11152TIP3    H254948   0.952   2.666   1.534  0.2044  1.7046 -1.9548
11153TIP3   OH254949   4.883   4.305   5.316  0.3225 -0.7032 -0.4468
11153TIP3    H154950   4.970   4.341   5.332 -0.2300 -0.2497  1.9553
11153TIP3    H254951   4.889   4.213   5.342 -0.0289 -0.5242  0.3143
11154TIP3   OH254952   2.173   2.160  15.189 -0.4338 -0.0198  0.2479
11154TIP3    H154953   2.235   2.200  15.129 -0.1765  0.4552  0.8172
11154TIP3    H254954   2.107   2.120  15.133  0.3851 -0.5448 -0.3725
11155TIP3   OH254955   6.229   6.187   3.095  0.0379  0.4771  0.2066
11155TIP3    H154956   6.238   6.119   3.162  0.5472 -1.2557 -1.4946
11155TIP3    H254957   6.225   6.269   3.143 -0.3464 -0.7402  2.3647
11156TIP3   OH254958   5.555   3.570   0.987  0.6356  0.0548  0.3938
11156TIP3    H154959   5.625   3.549   0.925  1.0655 -0.2750  0.9755
11156TIP3    H254960   5.529   3.485   1.023 -0.7257  0.0651 -0.4962
11157TIP3   OH254961   5.268   6.719   3.026 -0.1654  0.4503 -0.4532
11157TIP3    H154962   5.223   6.636   3.041  0.8994  0.2348  2.1645
11157TIP3    H254963   5.355   6.706   3.064 -0.0375  2.7849  0.2037
11158TIP3   OH254964   0.953   0.561  11.322  0.1863  0.0733  0.6131
11158TIP3    H154965   0.940   0.518  11.407 -1.9257 -0.7488 -0.0502
11158TIP3    H254966   0.898   0.639  11.326 -2.0084 -1.2823 -0.8129
11159TIP3   OH254967   5.451   1.107   5.403  0.3833  0.2029  0.2149
11159TIP3    H154968   5.515   1.088   5.472 -0.2913  0.3378  0.8989
11159TIP3    H254969   5.487   1.184   5.358  0.7263  0.2472  0.5531
11160TIP3   OH254970   0.802   4.661  11.824 -0.1063 -0.2071 -0.1383
11160TIP3    H154971   0.815   4.746  11.866 -0.5664  0.1082 -0.6209
11160TIP3    H254972   0.888   4.638  11.789  0.6996 -1.2284  2.3180
11161TIP3   OH254973   1.993   6.475   1.779  0.2967 -0.1368  0.8174
11161TIP3    H154974   1.915   6.459   1.726 -0.2971  1.4024  1.1865
11161TIP3    H254975   2.033   6.389   1.789 -0.7450 -0.7822 -0.3166
11162TIP3   OH254976   3.464   3.813  14.961 -0.1867  0.1734  0.5554
11162TIP3    H154977   3.512   3.859  15.030  1.9481  0.4039 -0.9985
11162TIP3    H254978   3.486   3.721  14.974 -0.3684  0.1367  0.6085
11163TIP3   OH254979   6.037   1.727   2.557 -0.4363 -0.2446  0.0421
11163TIP3    H154980   6.115   1.671   2.552 -1.4983 -1.7353 -0.5544
11163TIP3    H254981   5.997   1.720   2.471 -0.4527  1.7094 -0.1348
11164TIP3   OH254982   1.916   2.292   1.351  0.2333 -0.0901 -0.2756
11164TIP3    H154983   1.940   2.347   1.277 -1.2686  0.9762 -0.0133
11164TIP3    H254984   1.866   2.220   1.313 -2.8728  1.8502 -0.1561
11165TIP3   OH254985   2.932   3.000  13.468  0.1965 -0.4938 -0.1371
11165TIP3    H154986   2.902   2.935  13.532 -0.3867 -2.0001 -1.8765
11165TIP3    H254987   2.891   3.082  13.497 -0.4420 -1.2260  1.1282
11166TIP3   OH254988   1.098   5.897   3.616 -0.5313 -0.0585 -0.3811
11166TIP3    H154989   1.023   5.950   3.589 -0.7255  0.4869  1.1191
11166TIP3    H254990   1.119   5.930   3.703  1.1332 -0.5648 -0.5730
11167TIP3   OH254991   1.921   1.592  11.924 -0.1330  0.2492 -0.0051
11167TIP3    H154992   1.970   1.559  11.849  0.4012  1.2092 -0.0970
11167TIP3    H254993   1.834   1.611  11.888  0.5451  2.1308 -0.7925
11168TIP3   OH254994   4.781   3.043   5.074  0.2614  0.3873  0.1901
11168TIP3    H154995   4.791   2.964   5.127  1.4200 -0.8071 -1.7041
11168TIP3    H254996   4.726   3.101   5.127  1.3677 -0.7012  2.6840
11169TIP3   OH254997   0.348   1.599  16.460  0.3486 -0.5115 -0.1893
11169TIP3    H154998   0.316   1.515  16.429 -0.9464  0.5564 -1.9602
11169TIP3    H254999   0.288   1.624  16.530  0.0021 -0.5303 -0.4771
11170TIP3   OH255000   0.864   5.960   0.667  0.0940  0.6412 -0.6529
11170TIP3    H155001   0.929   5.897   0.638 -0.2763  0.0106 -0.1552
11170TIP3    H255002   0.782   5.911   0.669 -0.1149  1.0007  0.2058
11171TIP3   OH255003   6.169   0.971  13.113 -0.3075  0.2444 -0.2227
11171TIP3    H155004   6.150   1.026  13.036 -1.1578 -0.5538 -0.6053
11171TIP3    H255005   6.083   0.938  13.139  0.2615 -1.3959 -0.3673
11172TIP3   OH255006   6.494   4.960  16.642  0.7681 -0.0554 -0.3090
11172TIP3    H155007   6.433   4.913  16.585 -0.6339  1.2118  0.0715
11172TIP3    H255008   6.468   5.052  16.633  1.0050  0.2493  1.7642
11173TIP3   OH255009   4.737   0.165  15.485  0.5834  0.4878  0.2572
11173TIP3    H155010   4.686   0.245  15.499 -1.9418 -1.1802  1.4491
11173TIP3    H255011   4.689   0.117  15.418  1.8955 -0.1821 -0.2384
11174TIP3   OH255012   3.054   2.928   4.077 -0.2677  0.5314 -0.3010
11174TIP3    H155013   3.131   2.880   4.106  1.0177  2.1619 -0.8416
11174TIP3    H255014   3.059   3.012   4.123 -2.0266  0.4752  0.0642
11175TIP3   OH255015   6.210   4.475  14.298 -0.3976  0.1503  0.5060
11175TIP3    H155016   6.151   4.469  14.223 -0.5741  0.4635  0.6193
11175TIP3    H255017   6.242   4.386  14.309 -0.8776 -0.0338  0.4626
11176TIP3   OH255018   6.127   5.814   0.467 -0.2886 -0.4166 -0.0360
11176TIP3    H155019   6.044   5.768   0.453 -0.6276 -0.1172  0.9448
11176TIP3    H255020   6.193   5.754   0.434 -0.9566 -0.1057 -2.1227
11177TIP3   OH255021   6.481   1.370  10.597  0.1398  0.1523  0.0063
11177TIP3    H155022   6.392   1.378  10.563  0.2348  2.4348  0.1247
11177TIP3    H255023   6.531   1.335  10.524 -0.4044  1.2253 -0.9133
11178TIP3   OH255024   3.677   1.515  11.552  0.4084 -0.0710  0.2249
11178TIP3    H155025   3.613   1.573  11.510  0.7148 -0.3057 -0.5745
11178TIP3    H255026   3.680   1.438  11.496  1.3640 -0.0821  0.2828
11179TIP3   OH255027   3.899   3.838   4.257  0.3191  0.4676  0.0288
11179TIP3    H155028   3.956   3.761   4.257 -0.7957 -0.5133 -2.7604
11179TIP3    H255029   3.958   3.912   4.246  1.2352 -0.2505 -0.0546
11180TIP3   OH255030   6.804   6.029  13.332 -0.3208 -0.2295  0.2604
11180TIP3    H155031   6.810   5.934  13.335  2.0032 -0.1725 -0.9999
11180TIP3    H255032   6.724   6.046  13.282 -0.6784 -1.5072  0.3621
11181TIP3   OH255033   3.455   5.720   0.408  0.1159 -0.2158  0.1707
11181TIP3    H155034   3.483   5.724   0.316  0.2832  0.0452  0.2295
11181TIP3    H255035   3.423   5.631   0.420  2.0950 -0.9446  0.4394
11182TIP3   OH255036   1.950   5.315   6.876  0.1705 -0.3521  0.1005
11182TIP3    H155037   1.905   5.398   6.861 -0.5044 -0.9039 -1.0976
11182TIP3    H255038   2.041   5.331   6.849  0.1680  0.1353  0.3736
11183TIP3   OH255039   5.888   0.992   4.558  0.7802  0.1248 -0.5299
11183TIP3    H155040   5.956   1.058   4.576  0.6092  1.1022 -3.0223
11183TIP3    H255041   5.807   1.032   4.591  1.0527 -0.0496  0.3897
11184TIP3   OH255042   2.157   0.437  16.058 -0.1243 -0.1131 -0.6228
11184TIP3    H155043   2.215   0.388  16.115 -0.9864 -0.3594  0.0703
11184TIP3    H255044   2.171   0.399  15.971 -1.5765 -2.4258  0.0585
11185TIP3   OH255045   0.943   3.223   3.379 -0.0195  0.1288 -0.5543
11185TIP3    H155046   0.871   3.161   3.369 -0.0824 -0.1940  1.4527
11185TIP3    H255047   0.986   3.196   3.460  1.9725  0.7203 -1.3746
11186TIP3   OH255048   2.258   2.001  16.322  0.0592  0.3602 -0.4969
11186TIP3    H155049   2.295   2.058  16.388  1.6524  1.0103 -1.8780
11186TIP3    H255050   2.197   1.945  16.370  0.2537  1.6002  1.2850
11187TIP3   OH255051   2.664   1.495   1.713  0.1348 -0.3423  0.5483
11187TIP3    H155052   2.678   1.402   1.700  1.8975 -0.3660  2.1827
11187TIP3    H255053   2.573   1.502   1.744 -0.0966 -1.4647  0.1591
11188TIP3   OH255054   4.376   6.117   2.489  0.4228 -0.3780  0.2082
11188TIP3    H155055   4.280   6.110   2.481  0.5148 -1.1245 -0.3796
11188TIP3    H255056   4.397   6.065   2.566  0.1187  2.0218  2.0522
11189TIP3   OH255057   3.535   2.917   0.061 -0.1125 -0.5317 -0.5867
11189TIP3    H155058   3.569   2.882   0.144  0.2745  1.4411  0.1428
11189TIP3    H255059   3.446   2.945   0.082 -0.2643 -0.6835 -1.0279
11190TIP3   OH255060   5.274   2.942  12.501  0.2049  0.7478  0.6964
11190TIP3    H155061   5.222   2.925  12.579 -0.6091 -0.9410 -0.1616
11190TIP3    H255062   5.279   2.857  12.456 -0.3860  1.8799 -1.7017
11191TIP3   OH255063   4.699   4.525   2.761  0.0279 -0.7158  0.3870
11191TIP3    H155064   4.745   4.477   2.830  1.4648 -0.8288 -0.6078
11191TIP3    H255065   4.727   4.616   2.773 -1.6838 -0.2821  1.4647
11192TIP3   OH255066   5.911   5.125  14.533  0.2318 -0.2457  0.2484
11192TIP3    H155067   5.906   5.029  14.529  0.5851 -0.2257 -1.4163
11192TIP3    H255068   5.998   5.142  14.570  0.1062 -0.5636  0.6981
11193TIP3   OH255069   3.260   0.985   0.281  0.5232  0.1579  0.0306
11193TIP3    H155070   3.327   1.007   0.217  0.0470 -0.0861 -0.5578
11193TIP3    H255071   3.177   1.010   0.240  0.2226  0.1364  0.6071
11194TIP3   OH255072   2.180   3.553  17.144  0.0934  0.2193 -0.0354
11194TIP3    H155073   2.226   3.582  17.223  0.5466  1.2376 -0.6420
11194TIP3    H255074   2.130   3.477  17.171 -0.4055  1.0391  1.4447
11195TIP3   OH255075   0.596   0.273   0.161 -0.4292 -0.0109 -0.0869
11195TIP3    H155076   0.577   0.361   0.128 -1.2684 -0.9108 -2.1865
11195TIP3    H255077   0.510   0.230   0.166 -0.0021 -0.8146  0.6305
11196TIP3   OH255078   0.462   0.328   3.407 -0.8438 -0.0273  0.4925
11196TIP3    H155079   0.518   0.323   3.484 -0.4954  0.8651  0.3029
11196TIP3    H255080   0.466   0.240   3.369  0.5166  0.0550  0.4196
11197TIP3   OH255081   4.150   4.553  12.023  0.0568  0.3423 -0.0453
11197TIP3    H155082   4.066   4.521  11.990  0.1784  0.4010 -0.4235
11197TIP3    H255083   4.199   4.577  11.944  0.3486  0.5083  0.1825
11198TIP3   OH255084   5.699   3.727  14.663  0.4309 -0.0175 -0.0603
11198TIP3    H155085   5.618   3.751  14.619  0.1940 -0.9619 -0.1559
11198TIP3    H255086   5.675   3.722  14.756  0.3415 -0.4318 -0.1034
11199TIP3   OH255087   5.562   2.621   2.078  0.7453  0.0413 -0.1188
11199TIP3    H155088   5.493   2.684   2.060  1.1657  0.4085 -0.4665
11199TIP3    H255089   5.516   2.540   2.101  0.2040  0.4798  0.3559
11200TIP3   OH255090   6.290   6.368   5.839 -0.4426  0.0869 -0.4186
11200TIP3    H155091   6.241   6.393   5.761 -0.4617 -0.8835 -0.7363
11200TIP3    H255092   6.223   6.357   5.906 -0.5527 -0.2066 -0.5742
11201TIP3   OH255093   1.253   0.003   5.940  0.5444  0.1078 -0.4274
11201TIP3    H155094   1.265   0.011   6.035  0.5112  0.0959 -0.4225
11201TIP3    H255095   1.279  -0.087   5.920 -0.9168 -0.3898 -0.2081
11202TIP3   OH255096   1.845   2.613   3.702  0.3969 -0.2057 -0.3492
11202TIP3    H155097   1.869   2.566   3.781 -0.1582 -0.6276 -0.4258
11202TIP3    H255098   1.919   2.671   3.684  0.7258 -0.4563  0.2074
11203TIP3   OH255099   3.587   1.221  14.933  0.1346  0.2087 -0.6511
11203TIP3    H155100   3.628   1.152  14.880 -0.2177  0.3532 -1.1250
11203TIP3    H255101   3.660   1.263  14.979  0.2436 -1.1881  0.5104
11204TIP3   OH255102   5.787   0.080   2.999  0.1230 -0.6503 -0.2532
11204TIP3    H155103   5.773   0.075   2.904 -0.5044  1.4001 -0.3237
11204TIP3    H255104   5.699   0.092   3.035  0.5160  0.2508  0.4283
11205TIP3   OH255105   4.270   1.290   2.001  0.1382 -0.7217  0.8258
11205TIP3    H155106   4.363   1.303   2.019  0.3914  0.1383 -0.9622
11205TIP3    H255107   4.244   1.368   1.952 -1.5669 -0.9015  1.3891
11206TIP3   OH255108   0.475   5.588  15.016  0.0276  0.1910 -0.9468
11206TIP3    H155109   0.476   5.532  14.938 -0.9053 -1.6495  0.2991
11206TIP3    H255110   0.385   5.621  15.019  0.6458  2.1328 -1.8496
11207TIP3   OH255111   4.219   3.556   1.273 -0.7620  0.4863 -0.2744
11207TIP3    H155112   4.154   3.611   1.229 -1.1489 -1.5336 -2.4765
11207TIP3    H255113   4.303   3.591   1.242 -1.0143 -0.4216 -2.1285
11208TIP3   OH255114   6.478   3.716  16.718  0.0302  0.3849  0.6863
11208TIP3    H155115   6.461   3.691  16.809 -0.3674 -0.2011  0.4597
11208TIP3    H255116   6.529   3.796  16.724 -1.6594  1.4748  1.4204
11209TIP3   OH255117   4.514   3.131  11.548  0.1482 -0.0691 -0.1238
11209TIP3    H155118   4.485   3.096  11.464 -2.5168  0.4485  0.4865
11209TIP3    H255119   4.457   3.088  11.613  1.0687  0.7178  1.2623
11210TIP3   OH255120   2.877   1.048   1.927  0.0784 -0.2432  0.5733
11210TIP3    H155121   2.836   1.134   1.919  0.9162  0.0799 -0.4427
11210TIP3    H255122   2.898   1.040   2.020 -0.2066  0.5541  0.7135
11211TIP3   OH255123   3.498   6.069   4.999 -0.1983 -0.2467 -0.7545
11211TIP3    H155124   3.434   6.139   5.013 -0.2458 -0.3658 -0.3567
11211TIP3    H255125   3.455   5.990   5.033  0.4715 -0.1843  0.2747
11212TIP3   OH255126   2.072   4.284   3.331 -0.0944  0.2253 -0.0733
11212TIP3    H155127   2.102   4.204   3.289 -1.4504 -0.7776  0.8159
11212TIP3    H255128   1.977   4.277   3.334 -0.3350  2.3563 -0.8925
11213TIP3   OH255129   5.807   2.170   0.112  0.2218  0.5661  0.3569
11213TIP3    H155130   5.785   2.263   0.101 -1.3445  0.0579 -1.3532
11213TIP3    H255131   5.741   2.137   0.173  0.3538  0.4182  0.4194
11214TIP3   OH255132   5.017   4.440   4.395 -0.2275 -0.5371 -0.3263
11214TIP3    H155133   4.931   4.435   4.436 -0.7603 -0.7881 -1.4401
11214TIP3    H255134   5.000   4.427   4.302  1.2191 -2.4800 -0.3844
11215TIP3   OH255135   5.888   6.324   5.764  0.0941 -0.1448 -0.1431
11215TIP3    H155136   5.905   6.309   5.672 -1.0229 -0.5597 -0.3034
11215TIP3    H255137   5.857   6.415   5.769  1.1012  0.1985 -0.0280
11216TIP3   OH255138   4.898   6.177   0.462 -0.0528 -0.1137 -0.2500
11216TIP3    H155139   4.899   6.157   0.556  0.5454 -1.2177 -0.4711
11216TIP3    H255140   4.880   6.270   0.458  0.8473  0.1483  1.0004
11217TIP3   OH255141   1.311   2.906  15.817  0.3430 -0.3627  0.5951
11217TIP3    H155142   1.312   2.931  15.725 -1.0904  3.0043  1.3025
11217TIP3    H255143   1.401   2.917  15.846  0.3177  1.4991  0.1447
11218TIP3   OH255144   1.558   1.072   4.209 -0.5536  0.7033 -0.0396
11218TIP3    H155145   1.588   1.117   4.289 -0.7432 -0.0701  0.4764
11218TIP3    H255146   1.470   1.107   4.194 -1.2243 -0.3879  1.0933
11219TIP3   OH255147   1.808   3.557  17.184  0.1769  0.1367  0.3213
11219TIP3    H155148   1.723   3.526  17.215 -0.1846 -0.5452 -1.2843
11219TIP3    H255149   1.869   3.488  17.208 -0.1245 -0.4512 -0.5448
11220TIP3   OH255150   4.901   0.799   1.139 -0.1259 -0.1874 -0.2757
11220TIP3    H155151   4.967   0.759   1.082 -1.2769 -0.1756 -1.6772
11220TIP3    H255152   4.819   0.757   1.113 -0.8814  0.7888  0.4558
11221TIP3   OH255153   6.164   5.351  16.603  0.0992 -0.7232  0.5037
11221TIP3    H155154   6.080   5.345  16.557  1.2909  1.7157 -2.3109
11221TIP3    H255155   6.157   5.430  16.656  0.9747  0.2562 -0.7688
11222TIP3   OH255156   4.698   0.911   5.379  0.7153  0.0368  0.7939
11222TIP3    H155157   4.784   0.871   5.379  1.6884  1.8480 -2.3360
11222TIP3    H255158   4.658   0.884   5.297  0.9014  4.0765 -0.8570
11223TIP3   OH255159   1.720   6.709  15.375  0.5813 -0.5553 -0.2957
11223TIP3    H155160   1.711   6.642  15.307 -0.4720  0.4387 -1.1896
11223TIP3    H255161   1.675   6.673  15.451 -0.8828 -0.4733 -1.0923
11224TIP3   OH255162   5.857   5.889  11.376 -0.2372 -0.1638  1.1910
11224TIP3    H155163   5.846   5.870  11.283 -3.0046 -1.5162  1.6847
11224TIP3    H255164   5.886   5.806  11.414  3.1727  0.9544  1.3260
11225TIP3   OH255165   4.976   0.001  12.942  0.1270 -0.6329  0.7378
11225TIP3    H155166   4.936   0.087  12.933  0.9249 -0.4144 -1.0947
11225TIP3    H255167   4.907  -0.061  12.918  0.7525 -0.2635 -2.4130
11226TIP3   OH255168   5.099   0.512  15.016 -0.3212 -0.1042  0.4011
11226TIP3    H155169   5.178   0.490  15.065  1.0358  2.1137 -0.6286
11226TIP3    H255170   5.052   0.575  15.072  0.9701  2.0279 -0.7716
11227TIP3   OH255171   4.983   0.748  12.227 -0.3306 -0.5764 -0.2767
11227TIP3    H155172   5.061   0.715  12.182 -0.7672 -2.7070  0.4217
11227TIP3    H255173   4.912   0.738  12.164 -0.2323  0.3797 -0.5479
11228TIP3   OH255174   5.004   2.038   2.141 -0.7006  0.0395  0.2098
11228TIP3    H155175   5.039   2.108   2.086  0.2779 -0.4180  0.2277
11228TIP3    H255176   4.909   2.046   2.133 -0.5807  0.1272 -1.3611
11229TIP3   OH255177   2.479   0.998  16.831  0.1082  0.1141 -0.8702
11229TIP3    H155178   2.385   0.983  16.842 -0.1348  1.9812  0.1615
11229TIP3    H255179   2.518   0.969  16.913  0.3563 -0.1632 -1.0862
11230TIP3   OH255180   4.719   2.056   1.646  0.5193 -0.0991 -0.6772
11230TIP3    H155181   4.715   1.980   1.704  2.7030  0.6482  0.5670
11230TIP3    H255182   4.689   2.023   1.561  0.9875 -2.2517 -0.0677
11231TIP3   OH255183   5.877   5.270   1.552  0.2716  0.0070  0.7684
11231TIP3    H155184   5.911   5.358   1.534 -2.2334  0.6488 -1.6758
11231TIP3    H255185   5.877   5.228   1.466  0.5327 -2.0850  1.7468
11232TIP3   OH255186   1.453   6.716  14.756  0.1200 -0.3306 -0.4785
11232TIP3    H155187   1.526   6.675  14.708 -0.5365  0.3017 -2.0874
11232TIP3    H255188   1.377   6.664  14.732 -0.5128  1.0152 -1.5728
11233TIP3   OH255189   0.169   1.632  11.150  0.2678 -0.4659 -0.1599
11233TIP3    H155190   0.221   1.579  11.210  0.8942  1.1264  0.7857
11233TIP3    H255191   0.117   1.569  11.100 -1.1357 -1.8507  2.7994
11234TIP3   OH255192   1.408   0.607   2.719 -0.3604 -0.5473 -0.0395
11234TIP3    H155193   1.480   0.585   2.778 -0.7293  0.6438  0.8809
11234TIP3    H255194   1.447   0.668   2.656 -0.4107 -0.4341  0.0409
11235TIP3   OH255195   2.763   5.003  16.237 -0.1160 -0.5139  0.2324
11235TIP3    H155196   2.735   4.941  16.170 -0.4257 -1.1975  0.9762
11235TIP3    H255197   2.783   5.083  16.189 -0.5032 -0.9354 -0.6536
11236TIP3   OH255198   3.819   1.820  15.709 -0.0199  0.6321  0.1823
11236TIP3    H155199   3.899   1.768  15.717 -0.3551  0.2442  1.0759
11236TIP3    H255200   3.849   1.911  15.712  0.3721  0.4882  0.6962
11237TIP3   OH255201   5.341   3.210  12.600 -0.1307 -0.2406 -0.3796
11237TIP3    H155202   5.435   3.206  12.582 -0.0997 -0.0107 -0.2802
11237TIP3    H255203   5.303   3.141  12.547  0.2044 -0.9634  0.2974
11238TIP3   OH255204   3.320   3.659   4.542  0.2453  0.0429 -0.5513
11238TIP3    H155205   3.297   3.580   4.494  0.8063 -1.7104  1.8546
11238TIP3    H255206   3.243   3.680   4.594  0.0402  1.2261 -1.2931
11239TIP3   OH255207   4.111   0.087   3.574 -0.0884  0.3666 -0.3176
11239TIP3    H155208   4.128   0.067   3.666 -1.6877 -0.0798 -0.0941
11239TIP3    H255209   4.107   0.183   3.571  1.2174  0.4489 -0.1900
11240TIP3   OH255210   4.370   5.820   4.113 -0.1976 -0.2267  0.5768
11240TIP3    H155211   4.329   5.774   4.040 -1.6270  0.1602  1.1044
11240TIP3    H255212   4.461   5.831   4.086 -0.8009  0.4191 -1.4090
11241TIP3   OH255213   3.495   1.909  16.713  0.0937 -0.3842  0.2333
11241TIP3    H155214   3.425   1.972  16.700 -1.1241 -1.9596 -1.3153
11241TIP3    H255215   3.451   1.825  16.725  1.6823 -1.2358  0.4380
11242TIP3   OH255216   6.271   4.994   5.713 -0.1863  0.0090 -0.4140
11242TIP3    H155217   6.230   5.064   5.763  0.1638  1.1545 -1.6712
11242TIP3    H255218   6.364   4.999   5.735 -0.4692 -1.8221  1.5218
11243TIP3   OH255219   1.821   1.183  11.416  0.0357 -0.4021 -0.0167
11243TIP3    H155220   1.825   1.144  11.503  1.0819  1.6424  0.9070
11243TIP3    H255221   1.748   1.244  11.420 -0.1321 -0.5468 -0.6972
11244TIP3   OH255222   4.117   5.494   1.787  0.3535  0.1189 -0.1429
11244TIP3    H155223   4.031   5.524   1.756  1.2817  0.7709 -2.2994
11244TIP3    H255224   4.112   5.398   1.781 -0.1741  0.1603 -0.4354
11245TIP3   OH255225   0.314   3.017   4.299 -0.1400 -0.5348 -0.5649
11245TIP3    H155226   0.408   3.019   4.316  0.0845 -2.4641 -1.3538
11245TIP3    H255227   0.276   3.061   4.375  1.3842  0.2452 -0.2019
11246TIP3   OH255228   5.889   3.292   1.469 -0.0122 -0.2785  0.2148
11246TIP3    H155229   5.809   3.253   1.434 -1.3692  2.7860 -0.4258
11246TIP3    H255230   5.927   3.339   1.395  1.4034 -0.1535  0.9793
11247TIP3   OH255231   6.771   4.164   5.515 -0.0275  0.4632 -0.5469
11247TIP3    H155232   6.803   4.152   5.604  1.1231  0.7788 -0.9068
11247TIP3    H255233   6.789   4.081   5.471  0.7292  0.7926 -0.8739
11248TIP3   OH255234   1.581   4.993  14.894 -0.7724  0.3846  0.6281
11248TIP3    H155235   1.532   5.064  14.935 -0.9513  0.1316  0.8518
11248TIP3    H255236   1.514   4.937  14.854 -0.6526  0.1644  0.7337
11249TIP3   OH255237   1.788   2.311  11.425 -0.8726 -0.2399 -1.0380
11249TIP3    H155238   1.717   2.365  11.458 -1.2508 -1.3624  0.0515
11249TIP3    H255239   1.752   2.271  11.346 -0.9868  0.1939 -1.2092
11250TIP3   OH255240   0.352   1.470  15.847 -0.2569  0.1217  0.4527
11250TIP3    H155241   0.427   1.419  15.878  0.4703  1.4423  0.9560
11250TIP3    H255242   0.303   1.492  15.927 -0.6656  0.0575  0.2249
11251TIP3   OH255243   2.205   3.422  15.469 -0.2854  0.1883  0.3998
11251TIP3    H155244   2.195   3.384  15.382 -0.1452  0.3958  0.2928
11251TIP3    H255245   2.254   3.356  15.518 -0.8971 -0.1944  0.5022
11252TIP3   OH255246   2.848   3.665  11.221 -0.4789 -0.2314  0.2073
11252TIP3    H155247   2.822   3.592  11.165 -0.9413  0.1633 -0.1010
11252TIP3    H255248   2.938   3.684  11.197 -1.4447  1.6511 -2.3366
11253TIP3   OH255249   0.886   5.664   4.750  0.4404  0.3800 -0.1276
11253TIP3    H155250   0.885   5.687   4.843 -1.7081  0.1732 -0.0434
11253TIP3    H255251   0.873   5.748   4.705 -0.3950  0.2582 -0.1334
11254TIP3   OH255252   1.782   5.095   5.237 -0.1622 -0.3311 -0.1383
11254TIP3    H155253   1.854   5.065   5.292 -1.0197 -3.2302 -0.4117
11254TIP3    H255254   1.731   5.016   5.220 -0.9913  0.7548 -3.5259
11255TIP3   OH255255   5.663   4.816  16.814  0.1479 -0.5347 -0.1390
11255TIP3    H155256   5.593   4.765  16.772 -0.2880  0.4489 -0.6532
11255TIP3    H255257   5.739   4.804  16.758  0.3195 -1.3586  0.2527
11256TIP3   OH255258   1.433   6.270  16.731 -0.2180  0.4538 -0.7719
11256TIP3    H155259   1.508   6.271  16.671  2.2915 -1.3206  2.0624
11256TIP3    H255260   1.417   6.177  16.747 -0.8172  0.8776  1.2772
11257TIP3   OH255261   6.009   3.624   0.563 -0.3349  0.3671 -0.1640
11257TIP3    H155262   5.925   3.606   0.521 -0.1087  1.6649 -1.2170
11257TIP3    H255263   5.988   3.682   0.636 -0.7318 -1.9087  1.6267
11258TIP3   OH255264   6.589   3.920   5.028  0.6017  0.1565 -0.2920
11258TIP3    H155265   6.558   3.890   4.942  1.1036 -1.3920  0.0276
11258TIP3    H255266   6.678   3.886   5.034 -0.0397 -1.3871  1.5750
11259TIP3   OH255267   6.736   3.470  14.246  0.0060  0.6548 -0.3768
11259TIP3    H155268   6.807   3.532  14.263 -0.6786  1.0537  1.2155
11259TIP3    H255269   6.658   3.524  14.236 -0.2057  0.1776 -1.3652
11260TIP3   OH255270   5.158   3.260   3.201  0.4340  0.2541  0.5824
11260TIP3    H155271   5.071   3.264   3.162 -0.2960 -0.4903  2.0327
11260TIP3    H255272   5.154   3.320   3.275  1.2026  0.3095  0.5870
11261TIP3   OH255273   6.755   4.798  12.185  0.0735  0.4307 -0.6196
11261TIP3    H155274   6.673   4.777  12.229  0.6872  0.8478  0.7872
11261TIP3    H255275   6.761   4.736  12.112 -0.8396 -0.4801  0.0680
11262TIP3   OH255276   2.111   0.659  15.379  0.1991 -0.0272 -0.3175
11262TIP3    H155277   2.030   0.680  15.427 -0.0791 -1.2739 -0.2046
11262TIP3    H255278   2.099   0.701  15.293  0.6189  2.0564  0.5888
11263TIP3   OH255279   4.797   3.994  12.593 -0.1033  0.0921  0.0919
11263TIP3    H155280   4.717   3.981  12.542 -1.4634  0.7938  1.9327
11263TIP3    H255281   4.826   3.906  12.617  0.1020 -0.2009 -1.1641
11264TIP3   OH255282   3.283   4.915  16.985  0.5871 -0.3898 -0.4725
11264TIP3    H155283   3.266   4.944  16.895 -2.2499 -0.0476  0.0760
11264TIP3    H255284   3.207   4.862  17.008 -0.0355  1.5529  2.5182
11265TIP3   OH255285   3.959   1.376   1.588 -0.3795  0.3204 -0.1314
11265TIP3    H155286   3.931   1.352   1.499 -0.7131  2.9266 -0.8295
11265TIP3    H255287   3.912   1.315   1.645 -0.7871 -0.9059 -1.7001
11266TIP3   OH255288   6.555   0.092   1.069 -0.2597  0.8634  0.0707
11266TIP3    H155289   6.493   0.044   1.014 -1.7629  1.9210  0.7650
11266TIP3    H255290   6.552   0.048   1.153  1.0266  0.0710 -0.2651
11267TIP3   OH255291   0.076   1.484  14.422 -0.3783  0.8444  0.2739
11267TIP3    H155292  -0.006   1.533  14.412 -0.3542  1.0427  0.9781
11267TIP3    H255293   0.052   1.409  14.478 -0.2619  0.4311 -0.2198
11268TIP3   OH255294   6.801   6.158  12.202  0.0662  0.0011 -0.0370
11268TIP3    H155295   6.774   6.079  12.247  3.0531 -0.7792  0.6316
11268TIP3    H255296   6.829   6.217  12.272 -0.5022  0.9891 -0.6237
11269TIP3   OH255297   6.379   3.176  16.585 -0.0993  0.2879  0.0276
11269TIP3    H155298   6.421   3.242  16.530 -0.1456  0.1213 -0.2078
11269TIP3    H255299   6.449   3.144  16.642  0.1603 -0.1489 -0.5159
11270TIP3   OH255300   0.463   5.524   1.391 -0.2032  0.0156  0.8178
11270TIP3    H155301   0.542   5.574   1.371  0.9953 -0.7713  3.1639
11270TIP3    H255302   0.435   5.559   1.476 -2.4357  0.2968  0.0186
11271TIP3   OH255303   0.935   2.730  17.123  0.0360 -0.5283  0.2729
11271TIP3    H155304   0.942   2.713  17.216 -1.8154 -0.6500  0.4232
11271TIP3    H255305   0.869   2.799  17.116 -0.5874 -1.2216 -1.0001
11272TIP3   OH255306   2.861   0.357  16.554  0.5900 -0.3336  0.2328
11272TIP3    H155307   2.842   0.263  16.557 -0.8642 -0.0383  1.1413
11272TIP3    H255308   2.837   0.383  16.465 -0.0223 -0.6377  0.3025
11273TIP3   OH255309   0.240   4.320   6.560 -0.6715  0.2005  0.0558
11273TIP3    H155310   0.153   4.291   6.588  0.2808 -2.8172  0.2993
11273TIP3    H255311   0.262   4.390   6.621 -2.3105 -0.0259  0.9804
11274TIP3   OH255312   4.750   2.174  11.810 -0.1414 -0.2851  0.0982
11274TIP3    H155313   4.747   2.254  11.758  0.2422 -0.2938  0.0579
11274TIP3    H255314   4.829   2.129  11.781 -1.3397 -1.6334 -1.2628
11275TIP3   OH255315   2.214   1.089   0.409  0.1499  0.2421 -0.2362
11275TIP3    H155316   2.129   1.115   0.446 -0.0034 -0.8992  0.2608
11275TIP3    H255317   2.251   1.030   0.474  1.0146  0.1754 -0.7783
11276TIP3   OH255318   1.370   1.335  15.531  0.3290  0.4584 -0.2445
11276TIP3    H155319   1.443   1.337  15.469  0.0318  1.7631 -0.5864
11276TIP3    H255320   1.369   1.423  15.570  0.4126 -0.2701  1.5251
11277TIP3   OH255321   2.692   1.336  11.543  0.0314  0.2858  0.4061
11277TIP3    H155322   2.734   1.421  11.554  0.0945  0.2402  0.5216
11277TIP3    H255323   2.668   1.333  11.450  1.2506 -0.1397  0.0943
11278TIP3   OH255324   4.890   5.689  12.401 -0.9433  0.3486  0.4232
11278TIP3    H155325   4.971   5.664  12.356 -1.6549 -0.4273 -0.4884
11278TIP3    H255326   4.871   5.777  12.368 -0.0831  0.8422  1.2196
11279TIP3   OH255327   6.230   1.205   0.398  0.0372  0.0606  0.0125
11279TIP3    H155328   6.135   1.197   0.409  0.1396  0.5361  1.4822
11279TIP3    H255329   6.241   1.251   0.315 -1.0278 -0.0269 -0.1835
11280TIP3   OH255330   4.304   1.341  12.158 -0.4070  0.3720 -0.8941
11280TIP3    H155331   4.263   1.295  12.085 -0.5339  0.4651 -0.8835
11280TIP3    H255332   4.261   1.307  12.236  0.7360 -0.7747 -0.7443
11281TIP3   OH255333   4.910   6.598  13.584 -0.4319 -0.2393 -0.2482
11281TIP3    H155334   4.961   6.521  13.609  1.0424  0.1551 -1.7959
11281TIP3    H255335   4.947   6.624  13.499 -2.0868  1.1219 -0.6025
11282TIP3   OH255336   5.041   1.528  13.659 -0.5366 -0.2955 -0.4557
11282TIP3    H155337   5.109   1.461  13.664  1.1718  1.4684  1.4185
11282TIP3    H255338   5.005   1.533  13.748 -0.9113  0.9990 -0.6652
11283TIP3   OH255339   2.358   5.455   3.022 -0.2306  0.1450 -0.4350
11283TIP3    H155340   2.270   5.449   2.985 -1.1702 -1.7921  1.8761
11283TIP3    H255341   2.395   5.368   3.009 -0.6073 -0.6503  2.9221
11284TIP3   OH255342   3.070   4.235   1.500  0.3425 -0.3845 -0.1789
11284TIP3    H155343   2.977   4.237   1.479  0.5785  0.5387 -1.2126
11284TIP3    H255344   3.113   4.274   1.424  1.4809  0.2298  0.7404
11285TIP3   OH255345   1.518   0.800  12.317  0.2092 -0.5009 -0.0411
11285TIP3    H155346   1.472   0.843  12.389  0.3392  0.1277 -0.3329
11285TIP3    H255347   1.492   0.708  12.324 -1.0694 -0.1700 -0.1785
11286TIP3   OH255348   0.948   3.539  14.788  0.1438  0.5648 -0.2533
11286TIP3    H155349   0.884   3.473  14.759  0.7634 -0.5313  0.8132
11286TIP3    H255350   1.025   3.522  14.734  0.7277 -0.4029  0.8606
11287TIP3   OH255351   5.198   1.549  12.138  0.1041 -0.1709 -0.3674
11287TIP3    H155352   5.274   1.606  12.147  0.9705 -1.3944  0.5217
11287TIP3    H255353   5.202   1.519  12.047  0.6307 -0.1390 -0.3581
11288TIP3   OH255354   0.257   5.511  10.110 -0.2956  0.3596 -0.7391
11288TIP3    H155355   0.306   5.546  10.184 -2.1616  0.2200  0.6274
11288TIP3    H255356   0.209   5.436  10.146 -2.1743  1.0062 -1.7421
11289TIP3   OH255357   4.309   0.576   0.066 -0.5047 -0.4243  0.0438
11289TIP3    H155358   4.275   0.488   0.051 -1.7211 -0.1810  1.1895
11289TIP3    H255359   4.243   0.634   0.027  0.4526 -0.0041 -1.0008
11290TIP3   OH255360   5.955   6.029  14.306  0.0411 -0.3836 -0.4577
11290TIP3    H155361   5.878   6.011  14.361 -0.6680  0.5482 -1.1234
11290TIP3    H255362   5.957   6.125  14.298  1.4216 -0.3721 -0.2536
11291TIP3   OH255363   5.215   2.584   1.352 -0.7545 -0.4246 -0.4261
11291TIP3    H155364   5.190   2.607   1.441 -2.0626 -0.4910 -0.7606
11291TIP3    H255365   5.296   2.534   1.362  0.2284  1.2793  0.5611
11292TIP3   OH255366   5.455   0.478  14.342  0.1754  0.3241 -0.0807
11292TIP3    H155367   5.389   0.521  14.396  0.0165  0.0666 -0.0703
11292TIP3    H255368   5.459   0.530  14.262 -1.1636 -0.5462 -0.7544
11293TIP3   OH255369   1.381   4.680  11.313  0.0239  0.0398 -0.0868
11293TIP3    H155370   1.393   4.624  11.236  1.5778  0.3550 -0.1042
11293TIP3    H255371   1.318   4.632  11.367  0.0949 -0.9489 -0.8388
11294TIP3   OH255372   6.449   2.718   5.935 -0.0210 -0.1910 -0.0887
11294TIP3    H155373   6.430   2.812   5.938 -0.4507 -0.2906  0.3659
11294TIP3    H255374   6.490   2.699   6.020 -1.3005 -0.6983  0.4387
11295TIP3   OH255375   5.433   6.349   0.182 -0.3345  0.3336 -0.1590
11295TIP3    H155376   5.526   6.339   0.203 -0.6808 -2.1213  0.4943
11295TIP3    H255377   5.393   6.267   0.211 -2.7273  1.3347 -0.4059
11296TIP3   OH255378   6.002   5.590  10.695  0.1821 -0.1297 -0.1787
11296TIP3    H155379   5.958   5.514  10.656 -0.2272 -0.1771  0.3532
11296TIP3    H255380   6.084   5.597  10.647 -0.6631  0.3457 -1.6301
11297TIP3   OH255381   0.181   6.816  14.986 -0.0299  0.2802 -0.4517
11297TIP3    H155382   0.175   6.907  15.012  3.8805  0.7176 -0.4061
11297TIP3    H255383   0.196   6.768  15.068  1.5794  0.1698 -0.7797
11298TIP3   OH255384   0.970   4.213  14.359  0.4181 -0.2792 -0.3137
11298TIP3    H155385   0.997   4.272  14.288  1.0950 -1.5279 -1.1236
11298TIP3    H255386   0.984   4.125  14.324  1.0623 -0.9323  1.4687
11299TIP3   OH255387   5.557   6.364  11.670 -0.2848  0.7003 -0.1277
11299TIP3    H155388   5.529   6.455  11.673  0.5318  0.9406  0.8412
11299TIP3    H255389   5.476   6.314  11.659 -0.6583  1.5713 -1.5911
11300TIP3   OH255390   3.732   1.646   2.428  0.1133  0.0483  0.8635
11300TIP3    H155391   3.691   1.731   2.418  0.8312  0.4234  0.9996
11300TIP3    H255392   3.825   1.666   2.440  0.1954 -0.7098  1.6264
11301TIP3   OH255393   4.764   6.458   4.309 -0.1051  0.2515  0.1634
11301TIP3    H155394   4.779   6.531   4.249  0.4719  0.8031  0.9587
11301TIP3    H255395   4.698   6.404   4.265 -0.2086  1.0125 -0.6426
11302TIP3   OH255396   3.647   6.087   3.390  0.1910  0.2078  0.4638
11302TIP3    H155397   3.597   6.006   3.395 -0.3400  0.2434 -2.5505
11302TIP3    H255398   3.581   6.156   3.389  0.6047  0.6754  1.9546
11303TIP3   OH255399   6.298   5.015   6.186 -0.0816 -0.3546 -0.1200
11303TIP3    H155400   6.394   5.024   6.190 -0.0142 -1.3913  1.4849
11303TIP3    H255401   6.269   5.025   6.276 -1.2723 -2.0499 -0.2621
11304TIP3   OH255402   5.455   2.992  14.481 -0.0284 -0.4519  0.1439
11304TIP3    H155403   5.474   3.086  14.474 -1.5567 -0.1957 -1.2034
11304TIP3    H255404   5.507   2.963  14.556 -0.4508  1.7332  1.4015
11305TIP3   OH255405   4.331   0.667   6.789  0.0261  0.3225  0.4365
11305TIP3    H155406   4.340   0.760   6.768 -1.4599  0.3411 -0.2454
11305TIP3    H255407   4.413   0.645   6.834  1.6170  1.2986 -1.7433
11306TIP3   OH255408   6.021   3.696   2.952  0.3278 -0.4614  0.2038
11306TIP3    H155409   6.075   3.621   2.926  2.0518  0.9541 -0.5144
11306TIP3    H255410   6.002   3.742   2.870 -1.4160 -0.5351  0.5364
11307TIP3   OH255411   4.563   0.871  10.841  0.0055 -0.1408 -0.2077
11307TIP3    H155412   4.589   0.833  10.757 -3.4996 -2.7137 -0.3456
11307TIP3    H255413   4.491   0.931  10.818 -0.1171  0.1286  0.8552
11308TIP3   OH255414   6.133   4.230   5.625 -0.3349 -0.0923 -0.0743
11308TIP3    H155415   6.110   4.197   5.538 -0.6319 -0.0706 -0.0034
11308TIP3    H255416   6.176   4.156   5.667  1.7472  0.5133 -0.9789
11309TIP3   OH255417   6.550   2.102   0.263  0.2558 -0.2099  0.4189
11309TIP3    H155418   6.571   2.010   0.248  1.9591  0.2964 -0.5095
11309TIP3    H255419   6.614   2.151   0.211 -0.9573  1.5050  0.4393
11310TIP3   OH255420   2.167   1.128  11.754 -1.2778  0.4275 -0.4717
11310TIP3    H155421   2.121   1.066  11.810  1.0034 -1.4451 -0.5120
11310TIP3    H255422   2.158   1.213  11.798 -1.7155 -0.5412  1.3600
11311TIP3   OH255423   2.351   5.174  13.936 -0.4073  0.0757  0.4439
11311TIP3    H155424   2.427   5.231  13.944  1.1102 -1.7095 -0.5928
11311TIP3    H255425   2.343   5.157  13.842 -0.7800 -1.4103  0.7094
11312TIP3   OH255426   5.496   6.730  11.693 -0.6269 -0.1325 -0.0116
11312TIP3    H155427   5.462   6.718  11.604 -0.5877 -0.6877  0.0468
11312TIP3    H255428   5.462   6.655  11.742 -0.0449 -0.2195  0.2656
11313TIP3   OH255429   0.013   3.996   0.380  0.0459  0.0842 -0.0654
11313TIP3    H155430   0.068   4.068   0.412  0.5955 -0.9985  1.5330
11313TIP3    H255431   0.053   3.917   0.416 -0.8078 -1.0038 -1.4154
11314TIP3   OH255432   0.773   0.638  15.960  0.2038 -0.1613  0.1772
11314TIP3    H155433   0.733   0.591  15.887  1.1687 -0.4222 -0.1943
11314TIP3    H255434   0.709   0.705  15.983 -1.0002 -1.3280  0.3955
11315TIP3   OH255435   0.682   1.796   3.770  0.3119  0.2754  0.3436
11315TIP3    H155436   0.706   1.888   3.778 -1.3521  0.7525  0.1723
11315TIP3    H255437   0.645   1.773   3.855  0.1062 -0.0505  0.1678
11316TIP3   OH255438   3.479   5.910  12.369 -0.0622  0.1869 -0.1565
11316TIP3    H155439   3.509   5.992  12.329 -0.5961  0.1669 -0.6135
11316TIP3    H255440   3.472   5.931  12.462 -1.1889  0.9879 -0.3973
11317TIP3   OH255441   5.875   0.056   3.731 -0.6406 -0.6711  0.2685
11317TIP3    H155442   5.790   0.027   3.763 -1.2764 -0.9374 -1.5267
11317TIP3    H255443   5.938   0.004   3.780 -1.6147 -2.2154 -0.0404
11318TIP3   OH255444   4.831   6.730  13.268  0.5825 -0.6930  0.1091
11318TIP3    H155445   4.776   6.656  13.290 -0.0315 -0.2030  0.2606
11318TIP3    H255446   4.919   6.693  13.257  0.3563 -1.3758  0.5557
11319TIP3   OH255447   3.186   2.394  13.979 -0.4828  0.2023  0.0276
11319TIP3    H155448   3.189   2.372  13.886  1.1793  1.1953 -0.1960
11319TIP3    H255449   3.277   2.408  14.004 -1.0117  1.6699  1.3768
11320TIP3   OH255450   6.573   0.725  12.442 -0.6905  0.0192 -0.0250
11320TIP3    H155451   6.594   0.773  12.522  1.2894  0.2225 -0.6253
11320TIP3    H255452   6.654   0.725  12.391 -1.8835 -0.0813 -2.0575
11321TIP3   OH255453   1.029   0.386   5.582  0.0332 -0.2469  0.3011
11321TIP3    H155454   1.109   0.438   5.580 -0.8351  1.1565  0.8988
11321TIP3    H255455   0.960   0.447   5.557 -0.7440 -1.7082 -1.3497
11322TIP3   OH255456   4.126   1.675  12.887  0.1546 -0.4963  0.4499
11322TIP3    H155457   4.063   1.640  12.825 -1.9667  1.7619  1.1811
11322TIP3    H255458   4.093   1.649  12.973  0.7349 -0.0489  0.8188
11323TIP3   OH255459   0.072   0.737  15.544 -0.2918 -0.7707 -0.1941
11323TIP3    H155460   0.033   0.824  15.534  2.8247  0.7752  0.1377
11323TIP3    H255461   0.120   0.722  15.463  1.5876 -0.8372  0.8802
11324TIP3   OH255462   4.826   6.360  12.794 -0.0136 -0.5227 -0.6936
11324TIP3    H155463   4.898   6.386  12.850 -0.2911  0.1792 -0.6484
11324TIP3    H255464   4.867   6.338  12.710  0.2955 -0.5678 -0.5311
11325TIP3   OH255465   4.876   0.537   2.943  0.2726  0.0246 -0.2207
11325TIP3    H155466   4.890   0.603   2.875  1.1329 -0.4196 -0.4889
11325TIP3    H255467   4.832   0.584   3.014  0.8896  0.8900 -0.4035
11326TIP3   OH255468   2.848   4.297  14.872  0.0171  0.1998  0.0798
11326TIP3    H155469   2.815   4.250  14.796 -0.4740 -0.1818  0.5250
11326TIP3    H255470   2.870   4.229  14.935 -1.0231  0.5593  0.8674
11327TIP3   OH255471   1.905   4.968  14.371 -0.4248 -0.2521  0.0496
11327TIP3    H155472   1.967   4.896  14.380 -1.2492 -1.4179 -2.5492
11327TIP3    H255473   1.935   5.034  14.433  1.6825 -1.9262  0.9190
11328TIP3   OH255474   3.132   6.524   0.265 -0.0942 -0.0244 -0.7783
11328TIP3    H155475   3.152   6.618   0.255  0.0401  0.8422  4.5960
11328TIP3    H255476   3.217   6.481   0.253  0.9145  1.2192  1.2063
11329TIP3   OH255477   2.636   2.268  14.046 -0.4019 -0.0738  0.5755
11329TIP3    H155478   2.729   2.293  14.044  0.2126 -2.1678  0.4387
11329TIP3    H255479   2.611   2.262  13.954 -0.7094  0.5305  0.6125
11330TIP3   OH255480   1.132   2.564  16.384  0.0276 -0.3624  0.6425
11330TIP3    H155481   1.119   2.555  16.289  0.8327  2.7145  0.1226
11330TIP3    H255482   1.047   2.542  16.421 -1.2829  1.3211 -1.1208
11331TIP3   OH255483   0.021   3.146   3.747  0.4246  0.1024  0.3667
11331TIP3    H155484   0.060   3.117   3.665  0.2674 -1.3948  0.7917
11331TIP3    H255485  -0.058   3.092   3.757 -1.2177  2.2779  0.0730
11332TIP3   OH255486   2.863   3.152  15.958 -0.4800  0.3453 -0.2445
11332TIP3    H155487   2.805   3.170  16.032 -1.8240  0.1097 -1.2141
11332TIP3    H255488   2.943   3.118  15.998 -1.2584  0.0250  1.0826
11333TIP3   OH255489   3.585   4.784   3.633  0.5761  0.1580  0.8560
11333TIP3    H155490   3.641   4.710   3.659 -0.4684 -0.5686  1.0993
11333TIP3    H255491   3.630   4.823   3.558  0.2762 -1.8524 -0.4631
11334TIP3   OH255492   0.460   6.207  12.205 -0.8774  0.4769 -0.8617
11334TIP3    H155493   0.422   6.150  12.139  2.0069 -0.4466 -1.8955
11334TIP3    H255494   0.501   6.277  12.154 -0.4168  0.9201  0.0972
11335TIP3   OH255495   4.071   5.746  12.320 -0.0290 -0.0840  0.4064
11335TIP3    H155496   4.133   5.817  12.339 -0.8962  1.7827 -3.0506
11335TIP3    H255497   4.124   5.678  12.279  0.2670 -0.0255  0.6879
11336TIP3   OH255498   6.371   6.338  16.080 -0.1750 -0.4168 -0.4767
11336TIP3    H155499   6.318   6.414  16.106  0.4751 -0.3647  0.7766
11336TIP3    H255500   6.461   6.370  16.085  0.0584 -1.0009 -0.9053
11337TIP3   OH255501   4.895   2.772   5.099  0.2428 -0.2610  0.0190
11337TIP3    H155502   4.959   2.820   5.150  1.2148 -1.4869 -0.0103
11337TIP3    H255503   4.831   2.741   5.163 -0.6425  1.3869 -0.0138
11338TIP3   OH255504   6.359   4.849  14.934 -0.2106 -0.3191  0.1788
11338TIP3    H155505   6.315   4.834  14.850  0.9693  1.4113 -0.8148
11338TIP3    H255506   6.375   4.761  14.968 -0.5775 -1.0842 -1.4900
11339TIP3   OH255507   4.285   5.685   3.892  0.0287 -0.1782  0.2729
11339TIP3    H155508   4.202   5.666   3.847 -0.3292  0.6825  0.5498
11339TIP3    H255509   4.344   5.614   3.864 -0.3223  0.0704 -1.1758
11340TIP3   OH255510   4.461   0.557  15.551  0.4519  0.1403 -0.6906
11340TIP3    H155511   4.378   0.546  15.505 -1.7745 -0.8112  3.0654
11340TIP3    H255512   4.489   0.468  15.570  0.3495  0.4536  1.1255
11341TIP3   OH255513   6.175   3.202   5.187 -0.2757  0.1602 -0.2320
11341TIP3    H155514   6.107   3.232   5.247  0.8718 -1.7682  2.1653
11341TIP3    H255515   6.225   3.281   5.166 -1.5298  1.1071  0.2208
11342TIP3   OH255516   6.804   5.630   0.657  0.2527 -0.1796  0.7280
11342TIP3    H155517   6.753   5.707   0.682 -0.2196  0.0499 -0.8722
11342TIP3    H255518   6.834   5.593   0.741 -2.5833 -0.3818  1.7788
11343TIP3   OH255519   2.256   6.554  14.642  0.0132  0.6207  0.1696
11343TIP3    H155520   2.294   6.615  14.578  2.7202 -0.6287  0.4618
11343TIP3    H255521   2.256   6.469  14.597 -0.5075  0.2031  0.9362
11344TIP3   OH255522   1.958   2.027   6.415 -0.0895 -0.2252  0.0046
11344TIP3    H155523   1.865   2.017   6.435  0.0765  0.0119  0.9245
11344TIP3    H255524   1.969   1.982   6.331 -1.3601  1.2369 -0.9891
11345TIP3   OH255525   4.485   3.207   0.985 -0.2654 -0.2832 -0.0691
11345TIP3    H155526   4.578   3.209   0.963 -0.4959  1.5594 -1.0864
11345TIP3    H255527   4.482   3.212   1.080  0.6845  1.5715 -0.0948
11346TIP3   OH255528   1.876   2.306  17.038 -0.2490 -0.0748 -0.6195
11346TIP3    H155529   1.890   2.369  16.967 -1.5253 -1.3167 -2.0409
11346TIP3    H255530   1.798   2.257  17.012  0.0258 -1.4706  1.0004
11347TIP3   OH255531   5.052   3.294  12.131 -0.5115  0.2974 -0.4960
11347TIP3    H155532   5.105   3.297  12.051 -0.2099  1.5123 -0.2664
11347TIP3    H255533   5.102   3.237  12.190  0.4782  1.2785 -0.3496
11348TIP3   OH255534   0.304   2.380   4.409 -0.3443 -0.1563  0.0716
11348TIP3    H155535   0.287   2.384   4.503 -2.0463  0.1985 -0.2349
11348TIP3    H255536   0.389   2.422   4.398 -0.5261  0.5694  1.3517
11349TIP3   OH255537   2.329   0.246  14.751 -0.1385 -0.1200 -0.2969
11349TIP3    H155538   2.334   0.293  14.667 -0.8648  1.6431  0.5828
11349TIP3    H255539   2.386   0.297  14.809 -0.7335 -0.5007  0.6333
11350TIP3   OH255540   6.275   3.443  12.508 -0.0283 -0.4638  0.7717
11350TIP3    H155541   6.275   3.537  12.523  0.9099  0.1314 -2.3610
11350TIP3    H255542   6.345   3.410  12.565 -0.1296  0.7384  1.6451
11351TIP3   OH255543   3.049   6.122   1.889 -0.4049  0.1286  0.1067
11351TIP3    H155544   3.078   6.031   1.893  1.0854  0.5870  0.0204
11351TIP3    H255545   2.957   6.116   1.860  0.0049 -1.2865 -1.0334
11352TIP3   OH255546   3.556   2.173   5.258  0.2232  0.4888  0.0542
11352TIP3    H155547   3.640   2.197   5.298  0.0380  2.2269 -0.5524
11352TIP3    H255548   3.572   2.179   5.164 -0.1653 -0.7588 -0.1152
11353TIP3   OH255549   6.595   0.319   2.505 -0.1873 -0.0301 -0.2201
11353TIP3    H155550   6.571   0.278   2.588  0.3334 -0.1888 -0.1414
11353TIP3    H255551   6.683   0.355   2.520 -0.0322 -0.1769 -0.7431
11354TIP3   OH255552   4.811   3.489   0.287 -0.5998 -0.2345  0.0373
11354TIP3    H155553   4.721   3.508   0.261 -0.6209 -1.1679 -0.6342
11354TIP3    H255554   4.834   3.411   0.236  1.2384  1.0585 -1.2102
11355TIP3   OH255555   6.674   3.961   0.728 -0.7780 -0.6083 -0.3326
11355TIP3    H155556   6.621   4.041   0.719 -1.9481 -1.2014  0.8364
11355TIP3    H255557   6.650   3.907   0.653  1.3937  0.8138 -2.1836
11356TIP3   OH255558   1.391   2.545   5.151  0.1141  0.0491  0.0628
11356TIP3    H155559   1.314   2.589   5.186 -1.1625 -2.4042  0.5013
11356TIP3    H255560   1.364   2.510   5.067  0.2186 -2.1522  0.8976
11357TIP3   OH255561   2.301   2.146   2.042 -0.2813 -0.9481 -0.0179
11357TIP3    H155562   2.280   2.157   1.949  1.8121  2.1289 -0.2809
11357TIP3    H255563   2.381   2.197   2.055 -1.4946  0.3570  3.8356
11358TIP3   OH255564   1.591   4.908   4.574  0.4997  0.0569  0.1088
11358TIP3    H155565   1.649   4.976   4.539  0.0868 -0.1419 -0.9892
11358TIP3    H255566   1.642   4.867   4.644  0.5829  1.7976  1.1358
11359TIP3   OH255567   5.289   0.042  17.103  0.3830 -0.2214  0.3937
11359TIP3    H155568   5.268   0.003  17.188 -0.5574 -1.9929 -0.5888
11359TIP3    H255569   5.209   0.088  17.078  0.4968 -0.0995  0.2557
11360TIP3   OH255570   5.126   5.114   1.404 -0.3511  0.1887  0.2937
11360TIP3    H155571   5.169   5.198   1.394 -0.1554  0.0357 -0.1529
11360TIP3    H255572   5.115   5.081   1.315  0.1735 -0.5584  0.4909
11361TIP3   OH255573   4.045   0.738   0.198 -0.6409  0.0202  0.1350
11361TIP3    H155574   3.987   0.686   0.143  2.2012 -2.5846 -0.7184
11361TIP3    H255575   4.072   0.678   0.267  1.5941  0.8021  0.0198
11362TIP3   OH255576   0.488   1.669   4.579  0.0769  0.2929 -0.3530
11362TIP3    H155577   0.520   1.591   4.535  0.3285  1.0674 -1.6032
11362TIP3    H255578   0.516   1.741   4.523  0.4919  1.3430  1.1387
11363TIP3   OH255579   0.019   0.073  12.310  0.2066 -0.7283  0.0533
11363TIP3    H155580   0.040   0.004  12.373  0.6658  0.6101  1.4054
11363TIP3    H255581   0.000   0.150  12.364  2.0604  0.8711 -1.4533
11364TIP3   OH255582   5.390   1.901  11.969 -0.2124  0.0869 -0.5174
11364TIP3    H155583   5.470   1.913  12.020  0.1874  0.2003 -1.1602
11364TIP3    H255584   5.325   1.871  12.033  0.4500 -0.4009 -0.0611
11365TIP3   OH255585   0.339   1.630   5.537  0.3993 -0.1490 -0.2930
11365TIP3    H155586   0.391   1.710   5.544 -0.5165  0.3653  1.3777
11365TIP3    H255587   0.255   1.653   5.577 -0.5147 -1.4406 -1.3893
11366TIP3   OH255588   0.826   3.466  17.099 -0.0430 -0.0607 -0.5851
11366TIP3    H155589   0.903   3.425  17.059  0.2302  0.1488 -0.2758
11366TIP3    H255590   0.840   3.560  17.089  0.1672  0.0074  0.2399
11367TIP3   OH255591   4.266   1.374   3.688  0.6363  0.5023 -0.3281
11367TIP3    H155592   4.339   1.413   3.735 -0.7785  0.3657  2.1790
11367TIP3    H255593   4.303   1.297   3.646  2.2117  1.2412 -0.3745
11368TIP3   OH255594   4.017   2.458  13.670  0.0112  0.5791  0.6071
11368TIP3    H155595   4.039   2.526  13.606 -0.3420  1.1265  1.0545
11368TIP3    H255596   4.090   2.396  13.665  1.1883  1.8288  1.3448
11369TIP3   OH255597   1.346   1.041   5.066 -0.0015 -0.1943  0.0246
11369TIP3    H155598   1.252   1.029   5.059 -0.3541  1.9897  0.2738
11369TIP3    H255599   1.358   1.090   5.147  1.2089  0.6367 -0.6241
11370TIP3   OH255600   4.671   6.627   4.491  0.3280  0.1988  0.0291
11370TIP3    H155601   4.728   6.611   4.566 -0.2425  0.5488  0.5576
11370TIP3    H255602   4.687   6.555   4.431  1.8114  0.6462 -0.1460
11371TIP3   OH255603   4.530   3.178   3.874  0.0353 -0.0838 -0.7279
11371TIP3    H155604   4.444   3.137   3.867 -0.7115  1.2341  0.3238
11371TIP3    H255605   4.591   3.112   3.840 -1.1903 -1.7137  0.1209
11372TIP3   OH255606   0.075   5.559   3.405  0.4008 -0.6599  0.1588
11372TIP3    H155607   0.137   5.606   3.349  0.8704  0.6246  1.6758
11372TIP3    H255608  -0.011   5.594   3.382  0.5484 -0.4468 -0.0690
11373TIP3   OH255609   3.486   1.656   5.971  0.4822  0.4662  0.7931
11373TIP3    H155610   3.416   1.637   5.908  0.5082  1.3316  0.4914
11373TIP3    H255611   3.446   1.719   6.032  0.5409 -0.1596  1.4913
11374TIP3   OH255612   1.012   2.941  12.137  0.0632 -0.2923 -0.3215
11374TIP3    H155613   1.037   2.885  12.210  2.2829  3.7914  2.4489
11374TIP3    H255614   1.055   2.902  12.061  0.2101 -3.0580  1.0589
11375TIP3   OH255615   0.448   0.621   1.514 -0.6207 -0.2688  0.0196
11375TIP3    H155616   0.501   0.613   1.594 -1.2865  0.6119  0.5785
11375TIP3    H255617   0.456   0.714   1.490  0.6300 -0.7930 -1.7082
11376TIP3   OH255618   5.477   4.249   2.567  0.4561  0.2096 -0.3306
11376TIP3    H155619   5.396   4.293   2.542 -0.7463 -0.7478  1.6250
11376TIP3    H255620   5.537   4.264   2.494 -0.8509  2.5393 -1.0033
11377TIP3   OH255621   5.941   4.254   2.216 -0.5567  0.4510 -1.1564
11377TIP3    H155622   5.886   4.206   2.154  1.0058  1.7970 -3.7337
11377TIP3    H255623   6.027   4.213   2.209 -0.4517  0.2757  0.6081
11378TIP3   OH255624   5.981   3.600   3.887 -0.1138 -0.4196 -0.1067
11378TIP3    H155625   6.043   3.654   3.937  2.0703  0.0729 -3.0136
11378TIP3    H255626   5.899   3.606   3.935  1.1216  2.0807  1.9536
11379TIP3   OH255627   2.304   2.051  12.565  0.3005 -0.4981 -0.5458
11379TIP3    H155628   2.232   2.080  12.622  0.3161 -0.3965 -0.5780
11379TIP3    H255629   2.380   2.045  12.624  0.5595  0.6025 -0.7566
11380TIP3   OH255630   2.242   1.564   5.975 -0.2998  0.0411  0.1048
11380TIP3    H155631   2.285   1.516   5.904 -0.6934  0.5076 -0.4603
11380TIP3    H255632   2.283   1.531   6.055 -2.3892 -3.2823  0.0014
11381TIP3   OH255633   2.025   5.940  14.003 -0.2760  0.5333 -0.1840
11381TIP3    H155634   1.962   6.006  14.032 -1.1140 -0.5303  0.5111
11381TIP3    H255635   2.083   5.927  14.079  1.2248  1.9524 -1.0202
11382TIP3   OH255636   2.971   1.206  12.616 -0.3722  0.4261 -0.1517
11382TIP3    H155637   3.038   1.147  12.580 -0.2782  0.2691  0.2841
11382TIP3    H255638   2.972   1.281  12.557 -0.0682  0.2612 -0.3618
11383TIP3   OH255639   3.292   3.437   3.044  0.2508 -0.1644 -0.6105
11383TIP3    H155640   3.199   3.431   3.025 -0.1085 -0.5544  1.1309
11383TIP3    H255641   3.307   3.529   3.063 -0.8235 -0.6966  3.7012
11384TIP3   OH255642   6.031   3.575   5.529 -0.4165  0.3110 -0.1351
11384TIP3    H155643   5.957   3.526   5.492 -0.6084  0.8025 -0.4121
11384TIP3    H255644   5.993   3.624   5.602 -0.0990 -0.4221  0.5277
11385TIP3   OH255645   0.297   3.212  15.452  0.1066 -0.2318 -0.0839
11385TIP3    H155646   0.322   3.293  15.408 -0.5249 -0.1364 -0.2869
11385TIP3    H255647   0.235   3.171  15.392 -0.3776 -0.3503  0.4838
11386TIP3   OH255648   0.182   4.744  15.661 -0.0237  0.0584  0.0019
11386TIP3    H155649   0.233   4.762  15.582 -0.8242  3.6003  0.1130
11386TIP3    H255650   0.100   4.792  15.647 -0.7316 -0.3273  2.4361
11387TIP3   OH255651   0.745   0.914  15.714  0.4817 -0.0227  0.5100
11387TIP3    H155652   0.800   0.993  15.718  0.2556  0.1221  0.8176
11387TIP3    H255653   0.784   0.861  15.645 -0.8430  1.4490 -1.4670
11388TIP3   OH255654   5.288   1.313  12.755 -0.2542  0.2335 -0.3377
11388TIP3    H155655   5.331   1.315  12.840 -1.4272 -0.6787  0.2997
11388TIP3    H255656   5.208   1.364  12.766 -0.7180 -0.3899 -0.7080
11389TIP3   OH255657   3.753   6.274  12.115 -0.0974 -0.0776  0.3634
11389TIP3    H155658   3.839   6.280  12.072  0.0965 -0.3891  0.6995
11389TIP3    H255659   3.692   6.310  12.051  0.3270  0.4646  0.2486
11390TIP3   OH255660   2.064   6.451   3.781  0.0147  0.2481  0.3381
11390TIP3    H155661   2.101   6.539   3.783 -0.2196  0.4267 -1.5323
11390TIP3    H255662   2.138   6.393   3.797  0.7512  0.6853 -1.3518
11391TIP3   OH255663   0.017   0.898   1.175 -0.3057 -0.2610 -0.3305
11391TIP3    H155664   0.020   0.954   1.252  0.3692  1.6777 -1.6663
11391TIP3    H255665   0.103   0.910   1.133 -1.0510 -0.3011 -1.9661
11392TIP3   OH255666   1.004   3.846  14.291 -0.2292 -0.0600 -0.0416
11392TIP3    H155667   0.940   3.881  14.228 -0.2714  1.7357  0.9420
11392TIP3    H255668   1.067   3.918  14.304  2.3680 -1.9259 -1.3763
11393TIP3   OH255669   3.792   2.173   3.782 -0.2255  0.0661 -0.0165
11393TIP3    H155670   3.791   2.202   3.873  0.9383  0.4025 -0.0975
11393TIP3    H255671   3.763   2.081   3.786 -0.5056  0.1741  0.6438
11394TIP3   OH255672   3.257   4.846  10.718  0.0344 -0.1973 -0.0556
11394TIP3    H155673   3.215   4.914  10.666  1.6201 -0.0144 -1.1701
11394TIP3    H255674   3.214   4.765  10.690 -0.6065  0.1324 -0.0510
11395TIP3   OH255675   2.785   4.568   5.351  0.0014 -0.0774  0.3098
11395TIP3    H155676   2.845   4.505   5.390  0.4687 -0.0127 -0.2921
11395TIP3    H255677   2.811   4.573   5.259 -0.1520  0.8498  0.3086
11396TIP3   OH255678   3.197   0.177   4.181  0.0966 -0.2602  0.0028
11396TIP3    H155679   3.145   0.108   4.140  0.2009  0.1289 -0.8029
11396TIP3    H255680   3.147   0.201   4.260 -0.2049 -0.8874  0.0054
11397TIP3   OH255681   0.879   4.456   2.201 -0.2147 -0.0693  0.2447
11397TIP3    H155682   0.939   4.531   2.207 -0.7510  0.5629 -1.5258
11397TIP3    H255683   0.930   4.381   2.230  1.0124  0.6627  0.0410
11398TIP3   OH255684   4.099   4.396  15.024 -0.2394 -0.1675 -0.0341
11398TIP3    H155685   4.130   4.408  14.934  1.1793 -0.9180  0.3229
11398TIP3    H255686   4.133   4.471  15.071 -0.0681 -0.3224  0.0918
11399TIP3   OH255687   5.528   4.631   2.307 -0.3012  0.8110 -0.8791
11399TIP3    H155688   5.557   4.716   2.275 -1.6815  1.0899 -1.4976
11399TIP3    H255689   5.571   4.567   2.250  0.7746  1.0801 -0.3837
11400TIP3   OH255690   0.628   5.288   0.977  0.5201  0.3498 -0.1322
11400TIP3    H155691   0.653   5.315   0.888  2.3142 -0.5064  0.0777
11400TIP3    H255692   0.705   5.242   1.011 -0.5458 -0.3462  1.4553
11401TIP3   OH255693   1.105   1.924  14.580  0.4492  0.7225 -0.1630
11401TIP3    H155694   1.080   2.016  14.573  0.5140  0.8437  1.0847
11401TIP3    H255695   1.072   1.884  14.499  0.7631  1.9084 -0.8965
11402TIP3   OH255696   2.142   6.290   6.536  0.4813  0.0880  0.5129
11402TIP3    H155697   2.125   6.366   6.592 -0.3758  0.4774 -0.2572
11402TIP3    H255698   2.238   6.282   6.536  0.6118  1.4386  0.2553
11403TIP3   OH255699   3.073   6.268   3.910 -0.3277  0.2774 -0.2319
11403TIP3    H155700   2.996   6.326   3.919  0.4795  1.6008 -1.3766
11403TIP3    H255701   3.125   6.309   3.841  1.1118 -0.9445  0.0874
11404TIP3   OH255702   1.435   5.918  15.633 -0.4901  0.1368  0.2724
11404TIP3    H155703   1.504   5.967  15.677  0.1983  1.1751 -1.8074
11404TIP3    H255704   1.445   5.828  15.666  4.1152 -0.5960 -2.1329
11405TIP3   OH255705   6.075   3.114   3.252  0.1925  0.5091 -0.2644
11405TIP3    H155706   6.098   3.158   3.170 -0.5511  1.8221  0.2164
11405TIP3    H255707   5.980   3.113   3.253  0.1969  0.4839  0.5832
11406TIP3   OH255708   5.681   5.137   3.527  0.8294  0.0880 -0.6710
11406TIP3    H155709   5.588   5.130   3.549  0.8469 -2.0815 -1.1046
11406TIP3    H255710   5.689   5.095   3.442  2.3073 -0.4405 -0.3042
11407TIP3   OH255711   3.365   4.512   4.733  0.2995 -0.0789  0.0640
11407TIP3    H155712   3.304   4.467   4.675  1.1712  0.3017 -1.2098
11407TIP3    H255713   3.320   4.515   4.818 -1.5733  0.4250 -0.8717
11408TIP3   OH255714   4.081   6.099  15.581  0.0816  0.6388 -0.6340
11408TIP3    H155715   4.051   6.166  15.642 -0.4324 -0.7107  0.6682
11408TIP3    H255716   4.166   6.071  15.615 -0.9154 -1.2426  0.4640
11409TIP3   OH255717   5.084   0.216  14.133 -0.0905 -0.2767  0.2886
11409TIP3    H155718   5.131   0.297  14.113 -1.6935  0.2270 -1.7271
11409TIP3    H255719   5.121   0.151  14.073 -0.3900 -0.4630  0.3060
11410TIP3   OH255720   1.558   3.404   5.911  0.4439  0.8698  0.1316
11410TIP3    H155721   1.511   3.487   5.905  0.8149  1.1169  0.5086
11410TIP3    H255722   1.491   3.339   5.932  0.3609  1.3446  1.4254
11411TIP3   OH255723   0.591   0.093  16.707 -0.5932  0.0237 -0.2040
11411TIP3    H155724   0.639   0.132  16.780  1.8072 -0.3486 -1.4633
11411TIP3    H255725   0.554   0.168  16.661 -1.2457  0.3317  0.7980
11412TIP3   OH255726   3.527   3.552   5.448  0.2334  0.0617  0.1059
11412TIP3    H155727   3.442   3.517   5.421 -0.1632  0.5434  0.7146
11412TIP3    H255728   3.547   3.508   5.530 -1.4551  2.9198  2.2682
11413TIP3   OH255729   6.750   0.985   5.141  0.2726 -0.2907 -0.3003
11413TIP3    H155730   6.783   1.075   5.147 -0.4122 -0.0892  0.7884
11413TIP3    H255731   6.663   0.993   5.104 -0.7306 -0.2226  1.9061
11414TIP3   OH255732   4.446   1.583   3.812  0.1237 -0.4945 -0.1107
11414TIP3    H155733   4.541   1.578   3.822  0.2382  0.1751 -0.8659
11414TIP3    H255734   4.413   1.585   3.902  0.8223 -0.6299  0.1534
11415TIP3   OH255735   4.912   6.502   4.043  0.2147  0.4491  0.4386
11415TIP3    H155736   5.007   6.499   4.049  0.3072  0.7048 -0.7747
11415TIP3    H255737   4.891   6.594   4.030 -0.2260  0.4325  0.9653
11416TIP3   OH255738   0.972   4.153   1.994  0.1991 -0.1882 -0.4200
11416TIP3    H155739   0.980   4.126   1.902 -0.3766 -1.6140 -0.0661
11416TIP3    H255740   1.047   4.211   2.008  0.1299  0.2910 -1.8661
11417TIP3   OH255741   3.349   6.298  12.938  0.2002 -0.0332 -1.0883
11417TIP3    H155742   3.321   6.283  12.847 -0.7202  1.8355 -1.1534
11417TIP3    H255743   3.289   6.244  12.990  0.4716 -0.8076 -1.5661
11418TIP3   OH255744   4.630   1.478  11.041 -0.6487  0.0432  0.0247
11418TIP3    H155745   4.649   1.386  11.025  0.9331  0.5523 -1.3689
11418TIP3    H255746   4.563   1.478  11.109 -2.3006 -2.1786 -1.5000
11419TIP3   OH255747   3.017   6.373  14.634 -0.2012 -0.0036  0.0336
11419TIP3    H155748   3.018   6.303  14.699  1.1522 -1.0699 -1.0870
11419TIP3    H255749   3.007   6.328  14.550  1.3832  1.0511 -0.7738
11420TIP3   OH255750   3.203   6.138   5.047 -0.3982 -0.0590 -0.5405
11420TIP3    H155751   3.163   6.103   5.127  1.1169  0.4292  0.4777
11420TIP3    H255752   3.202   6.064   4.986 -2.1602 -0.2570 -0.3278
11421TIP3   OH255753   4.635   2.759  11.868 -0.2249 -0.9012 -0.3573
11421TIP3    H155754   4.724   2.792  11.883 -0.0469 -1.6312  0.2123
11421TIP3    H255755   4.647   2.682  11.814 -0.5976 -0.4241 -1.1429
11422TIP3   OH255756   2.348   4.084  16.017  0.1325 -0.1880 -0.3969
11422TIP3    H155757   2.380   3.995  16.029  0.6805  0.1309  0.6716
11422TIP3    H255758   2.420   4.130  15.974  1.0278  0.4217  1.6201
11423TIP3   OH255759   5.421   3.151   1.357  0.1659  0.4796 -0.0026
11423TIP3    H155760   5.375   3.149   1.440  0.4080  1.9496  0.1871
11423TIP3    H255761   5.455   3.062   1.347 -4.5550 -1.4605 -1.2900
11424TIP3   OH255762   3.660   4.990   1.561 -0.0556 -0.0041 -0.9363
11424TIP3    H155763   3.597   4.998   1.489 -0.7066 -0.5795 -0.4428
11424TIP3    H255764   3.683   5.080   1.582 -0.2800  0.1942 -1.4972
11425TIP3   OH255765   5.746   1.297  14.546  0.4213 -0.3463  0.6444
11425TIP3    H155766   5.731   1.390  14.567  1.0498 -0.4067  1.4108
11425TIP3    H255767   5.709   1.286  14.458  1.5084  0.9388 -0.0047
11426TIP3   OH255768   5.636   3.333   4.081 -0.3796 -0.5974  0.4682
11426TIP3    H155769   5.620   3.284   4.161  1.0190 -1.8380  0.0305
11426TIP3    H255770   5.561   3.312   4.025  1.0526 -3.8573 -0.4216
11427TIP3   OH255771   4.604   2.692  13.025  0.3619  0.2570  0.0588
11427TIP3    H155772   4.577   2.709  13.115  0.3988  0.1296  0.0941
11427TIP3    H255773   4.573   2.604  13.007 -1.1186  0.8770 -0.6087
11428TIP3   OH255774   2.229   0.606  14.497  0.0209 -0.0407 -0.6241
11428TIP3    H155775   2.207   0.516  14.520  1.3339 -0.8377 -2.2607
11428TIP3    H255776   2.145   0.651  14.490 -0.6478 -1.1211  0.1893
11429TIP3   OH255777   6.452   0.046  14.523 -0.1596  0.6208  0.0532
11429TIP3    H155778   6.540   0.013  14.540 -0.7319 -0.2876  1.3834
11429TIP3    H255779   6.436   0.024  14.431  0.6540 -0.0327  0.0520
11430TIP3   OH255780   3.726   2.305   5.454 -0.0745  0.2898 -0.1796
11430TIP3    H155781   3.758   2.381   5.406  1.0953 -0.3272 -0.4069
11430TIP3    H255782   3.733   2.330   5.546 -0.0535  0.5848 -0.2593
11431TIP3   OH255783   0.460   2.886  16.156  0.2270 -0.5759 -0.4169
11431TIP3    H155784   0.454   2.811  16.215 -0.0479 -1.0136 -0.9924
11431TIP3    H255785   0.380   2.936  16.172  0.2686 -0.5650 -0.2445
11432TIP3   OH255786   0.740   0.390  11.191 -0.5227  0.0620 -0.3176
11432TIP3    H155787   0.811   0.443  11.225 -1.0440  1.1354 -0.8694
11432TIP3    H255788   0.691   0.363  11.269  1.3444 -2.0699  0.2558
11433TIP3   OH255789   4.680   6.755  15.951  0.3979 -0.0626  0.0234
11433TIP3    H155790   4.710   6.820  16.015  2.0223 -1.4432  0.7513
11433TIP3    H255791   4.742   6.764  15.878 -1.2707  1.3060 -1.3196
11434TIP3   OH255792   2.511   6.826  10.852 -0.1263  0.2012 -0.3840
11434TIP3    H155793   2.558   6.836  10.935  0.7995 -0.9115 -0.7482
11434TIP3    H255794   2.572   6.859  10.786 -0.0893 -0.6855 -0.8044
11435TIP3   OH255795   0.235   0.528   2.782 -0.7958  0.5373 -0.3514
11435TIP3    H155796   0.319   0.481   2.786 -0.8760  0.4405  0.6895
11435TIP3    H255797   0.216   0.549   2.874 -2.0823  0.2470 -0.5330
11436TIP3   OH255798   4.002   3.436   5.935 -0.2662  0.5817 -0.1516
11436TIP3    H155799   4.057   3.440   5.857  2.5250  1.7573  1.7116
11436TIP3    H255800   3.952   3.518   5.933  0.3116  0.9337 -0.3565
11437TIP3   OH255801   5.921   1.172  13.090  0.1264 -0.0794 -0.2898
11437TIP3    H155802   5.878   1.087  13.089 -1.0290  0.4833 -0.6813
11437TIP3    H255803   5.981   1.169  13.015 -1.0117 -0.0342 -1.2441
11438TIP3   OH255804   2.234   4.341   2.794 -0.0834  0.3288  0.5671
11438TIP3    H155805   2.212   4.312   2.705 -0.6420 -0.4918  0.9616
11438TIP3    H255806   2.326   4.315   2.805  0.1551  0.9195  0.0464
11439TIP3   OH255807   3.011   1.915  14.751  0.4190 -0.5425 -0.3985
11439TIP3    H155808   3.081   1.865  14.794  0.2966 -1.1612 -0.8914
11439TIP3    H255809   2.991   1.864  14.672  1.0946  0.9106 -1.5466
11440TIP3   OH255810   3.500   2.688  14.185 -0.2166 -0.0703  0.9340
11440TIP3    H155811   3.592   2.665  14.191 -0.3520 -0.3997  1.8990
11440TIP3    H255812   3.475   2.714  14.273 -1.1175 -0.2798  0.7561
11441TIP3   OH255813   4.417   4.480   1.890 -0.5802  0.2548 -0.6261
11441TIP3    H155814   4.449   4.392   1.909  0.6696  0.9223  0.5366
11441TIP3    H255815   4.444   4.498   1.801 -0.4405 -0.3587 -0.7082
11442TIP3   OH255816   1.434   4.746  15.936 -0.0611 -0.0441 -0.2120
11442TIP3    H155817   1.464   4.674  15.880 -0.2342  1.0681 -1.8056
11442TIP3    H255818   1.514   4.792  15.959 -0.0851  0.0788 -0.3751
11443TIP3   OH255819   4.555   0.949   2.868  0.4552  0.1106 -0.0446
11443TIP3    H155820   4.517   0.870   2.829  0.0283 -0.1885  0.9588
11443TIP3    H255821   4.530   1.019   2.807 -1.2368 -0.1701  0.2546
11444TIP3   OH255822   4.954   6.708   5.556 -0.0476  0.3227  0.1965
11444TIP3    H155823   5.011   6.722   5.631 -1.7564  1.0210  1.4100
11444TIP3    H255824   4.866   6.706   5.592 -0.9499  1.0092 -1.8247
11445TIP3   OH255825   4.078   3.423   0.658 -0.3675  0.0244 -0.0665
11445TIP3    H155826   4.075   3.344   0.713  1.4275 -1.4778 -1.9646
11445TIP3    H255827   4.169   3.450   0.661 -0.0278 -0.5824 -2.8329
11446TIP3   OH255828   0.477   4.788  15.864 -0.3028 -0.0140  0.2563
11446TIP3    H155829   0.569   4.763  15.859  0.1981  1.4707  1.3852
11446TIP3    H255830   0.453   4.809  15.774  1.0751  1.5426  0.2109
11447TIP3   OH255831   1.585   4.106  12.591  0.0981 -0.3018  0.1165
11447TIP3    H155832   1.570   4.035  12.653 -1.5776  0.4983  0.7132
11447TIP3    H255833   1.610   4.063  12.509  1.1861 -1.4405  1.0228
11448TIP3   OH255834   0.141   6.045  13.577  0.3041 -0.1040  0.2770
11448TIP3    H155835   0.137   5.950  13.592  1.5438 -0.7567 -2.8217
11448TIP3    H255836   0.063   6.065  13.526  0.7458  0.2625 -0.2730
11449TIP3   OH255837   6.408   2.726  12.111 -0.2836 -0.6478  0.3174
11449TIP3    H155838   6.427   2.820  12.118 -1.3770 -0.4474  0.6929
11449TIP3    H255839   6.411   2.708  12.017 -0.7363 -0.0899  0.1933
11450TIP3   OH255840   5.154   4.420  12.656 -0.2518  0.3393  0.9444
11450TIP3    H155841   5.070   4.386  12.686  0.4988 -2.3092  0.3598
11450TIP3    H255842   5.210   4.418  12.734  0.2523 -1.5724  0.6013
11451TIP3   OH255843   5.786   4.021   4.409 -0.0401  0.2363  0.4087
11451TIP3    H155844   5.704   3.990   4.448  0.6255  0.0046  1.6746
11451TIP3    H255845   5.801   3.962   4.336 -1.1259  0.4421 -0.0033
11452TIP3   OH255846   2.485   0.539   4.664 -0.1799  0.0901 -0.8338
11452TIP3    H155847   2.458   0.450   4.639  0.5044 -0.7853  1.2591
11452TIP3    H255848   2.536   0.570   4.590  0.2009 -1.5825 -1.3272
11453TIP3   OH255849   4.889   6.294   4.478 -0.1408  0.4915 -0.0159
11453TIP3    H155850   4.882   6.351   4.401 -1.1675  1.9530  1.0988
11453TIP3    H255851   4.809   6.243   4.478  0.3780 -0.3456 -0.5227
11454TIP3   OH255852   1.347   4.091   0.695 -0.4495 -0.0496  0.2407
11454TIP3    H155853   1.255   4.098   0.670 -1.0985 -0.7995  2.2105
11454TIP3    H255854   1.363   3.997   0.697  0.9884  0.0800 -2.0214
11455TIP3   OH255855   5.767   2.696  14.891  0.5085  0.0658 -0.5138
11455TIP3    H155856   5.684   2.658  14.920  0.4069 -1.7339 -2.8469
11455TIP3    H255857   5.826   2.621  14.882  2.2687  1.2543  0.5938
11456TIP3   OH255858   3.751   3.585   3.287  0.4795  0.1468 -0.1509
11456TIP3    H155859   3.691   3.613   3.218 -0.1800 -0.0268  0.3435
11456TIP3    H255860   3.696   3.541   3.351  1.0235  0.6326  0.6811
11457TIP3   OH255861   6.161   6.716  16.548 -0.7053 -0.3461 -0.6986
11457TIP3    H155862   6.246   6.672  16.540 -0.9293 -0.8950 -0.1302
11457TIP3    H255863   6.169   6.768  16.628 -0.8664 -0.3075 -0.7089
11458TIP3   OH255864   6.464   1.777  12.507  0.2226 -0.3469 -0.1997
11458TIP3    H155865   6.401   1.811  12.444  0.6586  2.0065  0.4946
11458TIP3    H255866   6.441   1.821  12.589  2.5409  0.4157  0.1369
11459TIP3   OH255867   1.363   4.734  14.337  0.7298 -0.0756 -0.7091
11459TIP3    H155868   1.410   4.694  14.410 -1.1062 -1.0247  0.0190
11459TIP3    H255869   1.363   4.828  14.358  0.4033 -0.3092  0.4277
11460TIP3   OH255870   0.099   6.139  15.911  0.6147 -0.2446  0.2409
11460TIP3    H155871   0.066   6.066  15.860  1.8102  0.8069 -2.2226
11460TIP3    H255872   0.108   6.210  15.848  1.7058  1.3259  2.0468
11461TIP3   OH255873   3.851   0.482   4.649 -0.4154 -0.1696  0.0138
11461TIP3    H155874   3.758   0.463   4.660 -0.7375  0.5115 -1.3072
11461TIP3    H255875   3.886   0.405   4.604 -0.3584 -0.3741  0.4039
11462TIP3   OH255876   1.391   3.097  15.353  0.6015  0.2629 -0.3804
11462TIP3    H155877   1.388   3.047  15.435 -0.3940 -0.1936 -0.6859
11462TIP3    H255878   1.382   3.188  15.381 -1.2174  0.0288 -0.0401
11463TIP3   OH255879   5.163   2.948  13.204  0.2273  0.0007 -0.0393
11463TIP3    H155880   5.097   2.987  13.147 -1.4420 -1.6742  0.6203
11463TIP3    H255881   5.239   2.934  13.148 -0.8025 -0.1031 -1.4450
11464TIP3   OH255882   5.757   4.091  12.573  0.6983 -0.2242  0.0834
11464TIP3    H155883   5.834   4.035  12.567  2.3581  1.9500 -0.1775
11464TIP3    H255884   5.770   4.142  12.652 -0.6906 -0.0630  0.2391
11465TIP3   OH255885   6.620   2.050  12.213  0.5375 -0.2159  0.6232
11465TIP3    H155886   6.560   1.995  12.162  0.2014  0.1758  0.5893
11465TIP3    H255887   6.700   1.999  12.219  1.0081  0.2184 -1.3259
11466TIP3   OH255888   1.677   0.117   2.874 -0.0091  0.2799  0.1524
11466TIP3    H155889   1.655   0.095   2.784  1.7776  2.0995 -0.8041
11466TIP3    H255890   1.771   0.102   2.881  0.2022  1.8213  1.1617
11467TIP3   OH255891   0.268   6.452  13.796  0.0848 -0.1918  0.1288
11467TIP3    H155892   0.332   6.513  13.758 -0.7793  1.3566  1.0578
11467TIP3    H255893   0.269   6.472  13.890 -0.8722 -1.0023  0.3298
11468TIP3   OH255894   5.304   5.038  12.856 -0.1878  0.4982 -0.0021
11468TIP3    H155895   5.361   4.964  12.840 -1.7364 -1.0459  1.2123
11468TIP3    H255896   5.215   5.004  12.843 -0.9627  2.0872  0.7280
11469TIP3   OH255897   6.404   3.224   3.547  0.2027  0.1524  0.5085
11469TIP3    H155898   6.495   3.245   3.569  0.2636  1.1132 -0.5904
11469TIP3    H255899   6.366   3.192   3.629  1.7294 -0.9956  0.8096
11470TIP3   OH255900   0.463   1.639  12.949  0.1352  0.3399 -0.1032
11470TIP3    H155901   0.376   1.671  12.970 -0.0973 -1.5673  2.3053
11470TIP3    H255902   0.521   1.685  13.009  0.5545  0.3340 -0.4957
11471TIP3   OH255903   1.210   6.671  14.234  0.5110  0.7673  0.0133
11471TIP3    H155904   1.224   6.581  14.205  1.8395  0.7055  0.7238
11471TIP3    H255905   1.168   6.714  14.160 -0.3262 -0.4814 -0.2612
11472TIP3   OH255906   6.222   6.256   1.526  0.6939 -0.3029  0.0184
11472TIP3    H155907   6.163   6.181   1.535  0.9531 -0.6933 -1.2729
11472TIP3    H255908   6.217   6.301   1.610  0.4773 -1.7321  0.8054
11473TIP3   OH255909   2.482   4.851  13.795 -0.1224 -0.1903 -0.4521
11473TIP3    H155910   2.398   4.873  13.835  0.8519 -0.4044  1.8639
11473TIP3    H255911   2.481   4.755  13.789 -0.0279 -0.1956 -0.3827
11474TIP3   OH255912   5.650   0.254  11.940  0.3460 -0.2909 -0.0765
11474TIP3    H155913   5.610   0.339  11.960 -0.2568 -0.3385 -0.9779
11474TIP3    H255914   5.736   0.257  11.981  1.3248  1.7248 -2.0281
11475TIP3   OH255915   6.819   4.250   4.254 -0.9208 -0.4838  0.5001
11475TIP3    H155916   6.829   4.322   4.193 -2.9796 -0.6185 -0.0778
11475TIP3    H255917   6.725   4.249   4.275 -0.6942 -2.0553  1.6480
11476TIP3   OH255918   0.611   3.217   2.746 -0.6490 -0.1109 -0.1508
11476TIP3    H155919   0.640   3.204   2.656  0.5905  1.7314 -0.0810
11476TIP3    H255920   0.593   3.311   2.752 -1.0136 -0.2544  1.4314
11477TIP3   OH255921   3.351   1.469  12.173 -0.5610  0.2189 -0.1417
11477TIP3    H155922   3.371   1.554  12.213 -0.1847 -0.2380  0.6809
11477TIP3    H255923   3.434   1.420  12.178 -0.9340 -0.4158 -0.0376
11478TIP3   OH255924   5.125   1.252   0.897  0.1910  0.2377  0.5409
11478TIP3    H155925   5.212   1.263   0.934 -0.0721  2.2671  0.7095
11478TIP3    H255926   5.067   1.293   0.962 -1.0607 -2.1525  1.0279
11479TIP3   OH255927   3.030   2.103  13.118 -0.0482  0.0384 -0.2081
11479TIP3    H155928   2.945   2.118  13.158  0.1422  2.1535 -0.4642
11479TIP3    H255929   3.092   2.148  13.176  0.7182 -0.2031 -0.8219
11480TIP3   OH255930   1.833   0.658  13.484 -0.0354  0.1996  0.6009
11480TIP3    H155931   1.840   0.580  13.429 -0.5215 -0.4812  1.4836
11480TIP3    H255932   1.746   0.692  13.466  0.0256  0.3151  0.5200
11481TIP3   OH255933   3.204   4.672  13.218  0.2463  0.4373  0.0802
11481TIP3    H155934   3.205   4.698  13.126 -0.8645 -1.1502 -0.4241
11481TIP3    H255935   3.236   4.582  13.218 -0.3890  0.1926  1.1812
11482TIP3   OH255936   0.939   4.760  13.089  0.2337  0.2189 -0.0423
11482TIP3    H155937   0.852   4.764  13.048 -0.7703 -1.1264  1.7847
11482TIP3    H255938   0.958   4.851  13.113 -1.4683  0.3550  0.9745
11483TIP3   OH255939   3.079   3.584  12.435 -0.1139  0.3092 -0.4326
11483TIP3    H155940   3.052   3.675  12.444  3.2989  1.5798 -1.3167
11483TIP3    H255941   3.133   3.567  12.512 -1.8219 -1.5043  0.4394
11484TIP3   OH255942   6.396   2.772  14.326  0.6270 -0.0200 -0.7491
11484TIP3    H155943   6.417   2.865  14.328  2.5049 -0.3982 -1.0228
11484TIP3    H255944   6.407   2.746  14.235 -0.4875 -0.4085 -0.7922
11485TIP3   OH255945   1.695   4.567  16.238 -0.2308  0.2435  0.2774
11485TIP3    H155946   1.725   4.654  16.266  1.1970  0.8871 -2.8430
11485TIP3    H255947   1.750   4.506  16.288  0.2350  1.1715  0.9426
11486TIP3   OH255948   5.424   4.661  16.775 -0.0513  0.0612 -0.6876
11486TIP3    H155949   5.353   4.641  16.713 -0.9823  1.6419 -0.1917
11486TIP3    H255950   5.380   4.701  16.849  1.2236 -0.4391  0.3758
11487TIP3   OH255951   1.806   5.098   2.143  0.1691 -0.9009 -0.0946
11487TIP3    H155952   1.713   5.109   2.122 -0.4796 -0.0108  2.8187
11487TIP3    H255953   1.809   5.023   2.202  1.1798 -0.3781  0.5456
11488TIP3   OH255954   3.704   5.294  13.570 -0.0782 -1.0921  0.6775
11488TIP3    H155955   3.647   5.333  13.504  1.4229  1.3971  0.7172
11488TIP3    H255956   3.657   5.307  13.652 -0.8894 -2.0436  0.3815
11489TIP3   OH255957   6.533   0.744   4.628 -0.1378  0.5824 -0.0688
11489TIP3    H155958   6.475   0.688   4.681  0.6569 -0.0006  0.1977
11489TIP3    H255959   6.603   0.769   4.688  0.1998  0.7987 -0.5518
11490TIP3   OH255960   1.925   2.083   0.694 -0.0881  0.3701 -0.0857
11490TIP3    H155961   2.009   2.105   0.735 -0.5257  3.1339 -0.4334
11490TIP3    H255962   1.859   2.112   0.758 -0.7895 -0.7632 -0.2692
11491TIP3   OH255963   1.165   1.831  16.936  0.0596 -0.3993 -0.6330
11491TIP3    H155964   1.168   1.839  16.841  2.5305 -0.5420 -0.6266
11491TIP3    H255965   1.254   1.847  16.965 -1.0422  2.1052  1.9065
11492TIP3   OH255966   6.495   4.307  16.075 -0.2611 -0.1436 -0.4343
11492TIP3    H155967   6.586   4.327  16.055 -0.3069  0.2277 -0.2837
11492TIP3    H255968   6.472   4.237  16.015  0.6953 -1.6015  0.8465
11493TIP3   OH255969   6.281   3.742  14.456 -0.1394 -0.6702 -0.4568
11493TIP3    H155970   6.283   3.831  14.418  2.5868 -1.1590 -1.6624
11493TIP3    H255971   6.219   3.695  14.400 -0.0857 -0.0494 -1.0618
11494TIP3   OH255972   3.633   4.470   2.193  0.7455  0.3492 -0.1828
11494TIP3    H155973   3.663   4.533   2.258  1.1130  1.2717 -1.2104
11494TIP3    H255974   3.640   4.517   2.110 -1.3631 -0.2079 -0.7206
11495TIP3   OH255975   4.368   2.781  11.929 -0.2598  1.0311 -0.2044
11495TIP3    H155976   4.457   2.768  11.896 -0.1404  1.1897  0.0571
11495TIP3    H255977   4.379   2.832  12.009 -0.4812 -0.1379  0.5929
11496TIP3   OH255978   2.657   4.061  14.299  0.0187  0.3435  0.6205
11496TIP3    H155979   2.707   3.981  14.316 -0.4869 -0.5035 -1.5348
11496TIP3    H255980   2.608   4.076  14.380 -1.8342 -3.0057  0.3217
11497TIP3   OH255981   4.510   2.174   6.129  0.0528 -0.3363  0.4715
11497TIP3    H155982   4.585   2.118   6.150  0.1390  0.0544  1.2298
11497TIP3    H255983   4.467   2.130   6.056 -0.1301 -1.6530  1.3306
11498TIP3   OH255984   1.639   1.260   6.441 -0.3968 -0.0523  0.0083
11498TIP3    H155985   1.600   1.177   6.468 -0.8222 -0.3472 -1.4248
11498TIP3    H255986   1.730   1.255   6.472 -0.2445 -1.3191 -0.5913
11499TIP3   OH255987   1.824   6.334   2.817  0.3467  0.3348  0.0674
11499TIP3    H155988   1.895   6.350   2.755 -0.4047  1.8492 -0.4576
11499TIP3    H255989   1.793   6.246   2.796  0.5718  0.5458 -1.2312
11500TIP3   OH255990   2.807   4.706  14.659 -0.4554  0.5158 -0.3637
11500TIP3    H155991   2.881   4.767  14.662  0.9104 -1.1524  1.6168
11500TIP3    H255992   2.837   4.634  14.604 -1.0573  0.3161 -0.4445
11501TIP3   OH255993   5.853   6.237   0.039  0.3249 -0.1108 -0.0275
11501TIP3    H155994   5.797   6.255   0.114 -0.5989  0.6024 -0.8487
11501TIP3    H255995   5.839   6.313  -0.019  1.7103 -0.2010 -0.5000
11502TIP3   OH255996   4.103   6.475   1.741  0.3352  0.2823  0.2495
11502TIP3    H155997   4.045   6.550   1.726  0.4055  0.5972  1.4630
11502TIP3    H255998   4.044   6.402   1.760  0.2953  0.2577  0.0314
11503TIP3   OH255999   3.066   2.776   3.791 -0.3522 -0.1408  0.1684
11503TIP3    H156000   3.130   2.823   3.845 -2.2940  1.6759  1.0098
11503TIP3    H256001   3.072   2.685   3.821  1.0278  0.2001  1.0211
11504TIP3   OH256002   0.752   5.428  14.108 -0.5003  0.1910  0.1460
11504TIP3    H156003   0.691   5.361  14.078  0.5993 -0.2190 -1.2606
11504TIP3    H256004   0.827   5.380  14.140 -0.3484  0.7266  0.6157
11505TIP3   OH256005   6.464   6.147   5.739  0.2205  0.6623 -0.1787
11505TIP3    H156006   6.450   6.221   5.799  1.7424  0.2386  0.7415
11505TIP3    H256007   6.522   6.182   5.671  1.1933  0.2616  0.4242
11506TIP3   OH256008   0.042   2.889  10.955  0.3273 -0.3732  0.1264
11506TIP3    H156009   0.127   2.928  10.972 -0.5267  0.9167  1.7911
11506TIP3    H256010  -0.018   2.964  10.952 -0.9926 -1.3532  0.7873
11507TIP3   OH256011   3.343   5.233  16.622  0.4699  0.3041  0.2741
11507TIP3    H156012   3.269   5.258  16.567  0.5790 -3.1355 -1.7264
11507TIP3    H256013   3.414   5.292  16.597 -0.4182  0.9205 -0.8567
11508TIP3   OH256014   5.230   5.198  16.230 -0.0291  0.3333  0.0075
11508TIP3    H156015   5.221   5.267  16.164  1.6370 -0.7155 -1.4157
11508TIP3    H256016   5.324   5.180  16.233 -0.4610 -2.4469 -0.3595
11509TIP3   OH256017   4.012   5.204   1.572 -0.4681  0.2402 -0.1483
11509TIP3    H156018   4.098   5.163   1.563  0.4240  2.1913 -1.0805
11509TIP3    H256019   3.995   5.205   1.666 -0.0875 -1.3198 -0.0370
11510TIP3   OH256020   2.576   1.380   3.944  0.5103 -0.4177  0.0866
11510TIP3    H156021   2.616   1.467   3.948  0.7861 -0.5175 -0.3997
11510TIP3    H256022   2.494   1.389   3.991  1.4724 -0.4219  1.8379
11511TIP3   OH256023   5.931   0.342   2.988  0.3829 -0.1023  0.1002
11511TIP3    H156024   5.894   0.254   2.987  0.2839 -0.1483  2.2486
11511TIP3    H256025   6.024   0.329   3.004  0.3177  0.1743  0.7429
11512TIP3   OH256026   5.466   4.828  12.754  0.1222  0.2119 -0.2554
11512TIP3    H156027   5.481   4.783  12.837 -1.6693  0.8206  0.4619
11512TIP3    H256028   5.495   4.766  12.687  0.1102 -0.9438  0.7703
11513TIP3   OH256029   0.503   4.581   3.872 -0.5445  0.2584 -0.1958
11513TIP3    H156030   0.458   4.660   3.842 -1.0428 -0.0351 -0.2305
11513TIP3    H256031   0.564   4.612   3.938  0.3048  0.8684 -1.2285
11514TIP3   OH256032   1.355   0.456   3.759  0.2585  0.0689 -0.3072
11514TIP3    H156033   1.297   0.491   3.691 -0.6983 -0.5017  0.1866
11514TIP3    H256034   1.440   0.494   3.740 -0.4386  1.5339 -0.6171
11515TIP3   OH256035   4.261   5.654   0.186  0.7372 -0.0332  0.2130
11515TIP3    H156036   4.200   5.693   0.248  0.1034  0.9626 -0.9853
11515TIP3    H256037   4.347   5.679   0.217  0.4993 -0.6516  1.4012
11516TIP3   OH256038   3.363   4.518  15.388  0.3183  0.0490  0.0433
11516TIP3    H156039   3.336   4.458  15.318  1.2087 -0.9158  0.4889
11516TIP3    H256040   3.458   4.506  15.395  0.6048  1.9178 -0.1862
11517TIP3   OH256041   4.566   6.089   1.463 -0.3308 -0.1012  0.3285
11517TIP3    H156042   4.574   6.117   1.554  0.4686 -0.3036  0.3293
11517TIP3    H256043   4.539   6.168   1.416  1.4728  0.6212  0.3984
11518TIP3   OH256044   2.942   0.914   5.553 -0.1740  0.3936  0.5244
11518TIP3    H156045   2.895   0.859   5.615  3.0004 -2.5500  0.6141
11518TIP3    H256046   3.025   0.934   5.597  1.2306  0.1487 -1.8523
11519TIP3   OH256047   1.710   5.382   4.762 -0.0005 -0.3158 -0.1035
11519TIP3    H156048   1.640   5.383   4.697 -0.5768  0.7798  0.5102
11519TIP3    H256049   1.736   5.473   4.772 -0.0301 -0.4407  1.2986
11520TIP3   OH256050   0.864   4.190  16.165 -0.1896  0.5478 -0.1115
11520TIP3    H156051   0.791   4.183  16.104  0.6098  1.0844 -1.1657
11520TIP3    H256052   0.894   4.281  16.156  0.0980  0.5616  0.9067
11521TIP3   OH256053   0.167   1.206  14.259 -0.4497  0.2498 -0.4156
11521TIP3    H156054   0.074   1.218  14.277 -1.1922 -2.2963 -1.9605
11521TIP3    H256055   0.210   1.218  14.344 -2.5177 -1.0935  0.9203
11522TIP3   OH256056   6.494   5.531  11.211  0.1817 -0.3193  0.2461
11522TIP3    H156057   6.402   5.514  11.228 -0.1022 -0.5215 -1.4240
11522TIP3    H256058   6.499   5.551  11.118  1.8346 -0.3831  0.2857
11523TIP3   OH256059   1.996   3.929   1.497 -0.2772  0.1192  0.1010
11523TIP3    H156060   1.952   4.014   1.490 -0.0431  0.0956 -2.1769
11523TIP3    H256061   2.063   3.930   1.429  0.0049 -1.7336  0.2949
11524TIP3   OH256062   3.647   0.361  17.190 -0.1495 -0.2488 -0.0920
11524TIP3    H156063   3.572   0.341  17.133  0.9990 -0.1734 -1.7093
11524TIP3    H256064   3.672   0.276  17.227  0.2903 -0.6711 -1.2869
11525TIP3   OH256065   2.635   4.693   2.552 -0.5313 -0.3433  0.8609
11525TIP3    H156066   2.656   4.783   2.526  0.5619 -0.6137  0.7836
11525TIP3    H256067   2.546   4.699   2.587 -1.3397  0.3721 -1.1693
11526TIP3   OH256068   1.393   5.386   2.702  0.4976 -0.1633  0.3472
11526TIP3    H156069   1.436   5.441   2.637  0.0764 -1.3932 -1.0237
11526TIP3    H256070   1.346   5.321   2.651  0.5326 -1.4681  1.9047
11527TIP3   OH256071   5.181   5.647  14.326  0.7765  0.7058  0.0105
11527TIP3    H156072   5.110   5.585  14.346 -0.3419  2.2324  1.1172
11527TIP3    H256073   5.257   5.592  14.308 -0.7053 -1.0233 -1.4084
11528TIP3   OH256074   0.182   1.370   1.446 -0.3408 -0.1026 -0.2480
11528TIP3    H156075   0.121   1.361   1.373  0.1997 -0.7990 -0.6207
11528TIP3    H256076   0.151   1.448   1.493 -0.8357  0.2097 -1.0661
11529TIP3   OH256077   2.294   0.281  13.226  0.7599 -0.1290  0.1323
11529TIP3    H156078   2.389   0.296  13.223  0.7341 -0.0465 -1.4671
11529TIP3    H256079   2.277   0.221  13.152 -0.3749 -0.5258  0.6888
11530TIP3   OH256080   4.211   4.024  16.557 -0.1308  0.0167  0.2920
11530TIP3    H156081   4.298   4.016  16.518 -1.3313 -3.7518 -2.1576
11530TIP3    H256082   4.215   3.971  16.636 -0.4085 -0.9486 -0.3289
11531TIP3   OH256083   3.998   1.275   5.903  0.6843  0.6541 -0.0155
11531TIP3    H156084   4.037   1.242   5.984  1.3445  0.0774 -0.5515
11531TIP3    H256085   4.025   1.212   5.837 -2.1117 -0.4204 -0.2401
11532TIP3   OH256086   1.909   4.315  14.983  0.1009 -0.3663 -0.4182
11532TIP3    H156087   1.908   4.409  14.968  1.3949 -0.7338 -3.6400
11532TIP3    H256088   1.818   4.294  15.005 -0.8163  1.3464 -2.2372
11533TIP3   OH256089   4.399   5.585  15.778  0.0766  0.5813 -0.5275
11533TIP3    H156090   4.318   5.608  15.733 -0.4486  0.5076  0.3672
11533TIP3    H256091   4.410   5.652  15.845  0.6849  0.5177 -0.5608
11534TIP3   OH256092   2.329   5.837   0.838 -0.0895 -0.3047 -0.1593
11534TIP3    H156093   2.355   5.845   0.746  0.5953  0.7861  0.0982
11534TIP3    H256094   2.370   5.913   0.880 -0.2533 -0.8835  1.0777
11535TIP3   OH256095   0.085   4.330   4.541 -0.8800 -0.0848 -0.1880
11535TIP3    H156096   0.053   4.258   4.595 -1.4059  0.2771 -0.0076
11535TIP3    H256097   0.080   4.297   4.451 -2.1081  0.0864 -0.1944
11536TIP3   OH256098   0.217   4.899   2.461 -0.2140 -0.5763  0.0029
11536TIP3    H156099   0.163   4.849   2.522  0.1053 -2.2785 -1.0541
11536TIP3    H256100   0.238   4.980   2.509 -1.0262 -1.2822  1.6385
11537TIP3   OH256101   1.169   0.243   4.547  0.0551  0.0964 -0.0925
11537TIP3    H156102   1.168   0.154   4.510 -1.0158 -0.9214  2.1594
11537TIP3    H256103   1.077   0.260   4.570  0.0822  2.2025 -1.2869
11538TIP3   OH256104   3.461   6.533  13.230  0.2162 -0.5085  0.2767
11538TIP3    H156105   3.547   6.562  13.259 -0.0427 -0.2616  0.8002
11538TIP3    H256106   3.403   6.607  13.248 -0.3680 -1.1892  1.2418
11539TIP3   OH256107   5.131   4.132  16.158  0.0973 -0.0602  0.0334
11539TIP3    H156108   5.065   4.149  16.090 -1.4538  0.1131  1.5358
11539TIP3    H256109   5.117   4.202  16.222 -0.5741 -1.9607  2.0502
11540TIP3   OH256110   6.294   0.421   2.198 -0.2929  0.1157  0.6700
11540TIP3    H156111   6.375   0.462   2.229 -0.2912 -1.0206  2.3178
11540TIP3    H256112   6.265   0.367   2.272 -1.9623 -0.3714 -0.2907
11541TIP3   OH256113   2.663   5.893  16.992  0.0281 -0.0540 -0.6201
11541TIP3    H156114   2.664   5.861  16.902 -0.1231 -0.8827 -0.3304
11541TIP3    H256115   2.742   5.947  16.999  0.9418 -1.3429 -0.7631
11542TIP3   OH256116   6.804   4.450  13.684 -0.1468  0.2758 -0.3904
11542TIP3    H156117   6.867   4.521  13.690 -0.6360  0.8494 -1.6720
11542TIP3    H256118   6.848   4.384  13.630  0.1202 -0.2010  0.3965
11543TIP3   OH256119   1.390   4.150  15.642 -0.1717  0.1517  0.4881
11543TIP3    H156120   1.308   4.190  15.669 -0.3117 -0.3365  0.7874
11543TIP3    H256121   1.377   4.129  15.549  0.8509  3.2384 -0.4913
11544TIP3   OH256122   6.779   5.534  10.185  0.1091 -0.5076 -0.0915
11544TIP3    H156123   6.694   5.498  10.212  0.0218 -0.4997 -0.3496
11544TIP3    H256124   6.841   5.502  10.250  0.2483 -2.1323 -0.9946
11545TIP3   OH256125   5.803   2.506  11.733 -0.4678 -0.1296  0.7669
11545TIP3    H156126   5.717   2.511  11.774 -0.4214  2.5885  0.6964
11545TIP3    H256127   5.864   2.528  11.803  0.0533 -0.5894  0.4616
11546TIP3   OH256128   6.405   5.324  15.491  0.1841  0.3310 -0.2886
11546TIP3    H156129   6.487   5.357  15.455  0.5409 -0.9086 -0.6732
11546TIP3    H256130   6.338   5.382  15.455  0.7536  0.4899 -1.1191
11547TIP3   OH256131   6.774   1.813   1.827 -0.0731 -0.4325 -0.2643
11547TIP3    H156132   6.854   1.866   1.825 -0.7039  0.5445 -0.4725
11547TIP3    H256133   6.737   1.830   1.914 -0.3085 -0.4963 -0.3520
11548TIP3   OH256134   6.320   5.671  13.106  0.5087  0.5449  0.2835
11548TIP3    H156135   6.276   5.599  13.152  0.6583 -1.2538 -2.1947
11548TIP3    H256136   6.311   5.746  13.165 -1.2069 -1.0517  2.2095
11549TIP3   OH256137   4.827   5.659  12.696  0.1139 -1.4427 -0.2771
11549TIP3    H156138   4.831   5.755  12.706  0.2949 -1.6657  2.5813
11549TIP3    H256139   4.808   5.646  12.604 -0.2504  1.3657 -0.7011
11550TIP3   OH256140   3.379   2.945   2.731  0.3232 -0.1199 -0.4261
11550TIP3    H156141   3.441   2.935   2.803 -0.2488 -1.1403 -0.0598
11550TIP3    H256142   3.426   2.913   2.654  0.7970  0.6061 -0.4531
11551TIP3   OH256143   0.472   5.729  10.999  0.4947 -0.0689  0.7303
11551TIP3    H156144   0.525   5.807  10.982 -0.9458  0.7906  0.0876
11551TIP3    H256145   0.525   5.678  11.060  2.7880 -0.0125 -1.0666
11552TIP3   OH256146   3.382   3.510   5.062  0.0971  0.0411 -0.5576
11552TIP3    H156147   3.355   3.498   4.971  2.4980 -0.1537 -1.3171
11552TIP3    H256148   3.415   3.424   5.089 -0.1747  0.2136  0.3635
11553TIP3   OH256149   1.769   5.910   0.441 -0.3032 -0.2455 -0.1744
11553TIP3    H156150   1.816   5.841   0.489 -0.1818  0.8145  1.3020
11553TIP3    H256151   1.823   5.989   0.454 -1.5410  0.5991  0.0061
11554TIP3   OH256152   3.001   5.041  12.428 -0.2096  0.7170 -0.1177
11554TIP3    H156153   3.071   5.090  12.470  1.1170 -0.6773 -0.6046
11554TIP3    H256154   3.035   5.020  12.342  0.1945 -2.7382  0.7402
11555TIP3   OH256155   6.027   6.262   0.300  0.4600  0.5340  0.6618
11555TIP3    H156156   6.015   6.261   0.205 -1.3092  1.8083  0.8194
11555TIP3    H256157   6.011   6.171   0.328 -0.4266  0.4454 -0.1153
11556TIP3   OH256158   5.588   1.711   4.309  0.0815  0.5405 -0.2929
11556TIP3    H156159   5.629   1.787   4.350 -0.2330  0.4987  0.1100
11556TIP3    H256160   5.579   1.735   4.217  0.3630  0.8268 -0.2458
11557TIP3   OH256161   1.211   3.596   2.546  0.3885 -0.4444  0.5133
11557TIP3    H156162   1.215   3.520   2.603 -2.7832 -0.2907  1.1299
11557TIP3    H256163   1.139   3.649   2.581 -0.5319  0.5598 -2.5466
11558TIP3   OH256164   4.528   3.242  12.337 -0.1858 -0.5565  0.6482
11558TIP3    H156165   4.579   3.308  12.290  0.7003 -1.2886  0.5677
11558TIP3    H256166   4.453   3.291  12.371  0.7331  0.6186  1.0603
11559TIP3   OH256167   0.748   4.993   1.774  0.2755  0.1298 -0.7508
11559TIP3    H156168   0.659   4.999   1.740  0.7407  0.4198 -2.0042
11559TIP3    H256169   0.757   5.067   1.833 -0.2835  0.1408 -0.6764
11560TIP3   OH256170   0.081   0.700  12.500  0.2879 -0.6652 -0.6286
11560TIP3    H156171   0.147   0.703  12.569  1.0394 -0.3301 -1.3491
11560TIP3    H256172   0.130   0.683  12.419 -0.8168 -4.1615 -0.7540
11561TIP3   OH256173   5.672   0.105  15.671 -0.6430  0.1502 -0.0871
11561TIP3    H156174   5.675   0.182  15.729  0.2741 -1.4815  2.1863
11561TIP3    H256175   5.615   0.132  15.599 -2.3924  2.1308  1.8613
11562TIP3   OH256176   1.646   5.987  10.977  0.4331 -0.3828 -0.4773
11562TIP3    H156177   1.699   5.963  10.901 -0.2930 -2.8443 -0.2970
11562TIP3    H256178   1.655   5.913  11.037 -3.0541 -0.8972 -0.3903
11563TIP3   OH256179   0.819   2.397   3.449  0.0003  0.1060 -0.3844
11563TIP3    H156180   0.908   2.433   3.452 -0.1126  0.3748 -0.1946
11563TIP3    H256181   0.806   2.375   3.356  0.2121  0.1970 -0.4382
11564TIP3   OH256182   5.838   1.428  13.759 -0.2478 -0.3291  0.4295
11564TIP3    H156183   5.813   1.484  13.685  0.7707  1.3758  1.3019
11564TIP3    H256184   5.910   1.375  13.725  0.5483  0.7979  0.2904
11565TIP3   OH256185   0.332   6.811  16.278 -0.0132  0.0424  0.1855
11565TIP3    H156186   0.352   6.899  16.246  2.9764  0.5692  2.9069
11565TIP3    H256187   0.313   6.824  16.371 -0.8112 -2.0778  0.3665
11566TIP3   OH256188   1.657   1.313   2.008  0.1338  0.2133  0.5125
11566TIP3    H156189   1.692   1.227   1.984  1.0331  0.9032 -0.7060
11566TIP3    H256190   1.614   1.344   1.929 -0.5639  0.7243  1.0769
11567TIP3   OH256191   1.541   5.256   5.432  0.7688 -0.4438 -0.2565
11567TIP3    H156192   1.451   5.225   5.436  0.7379 -0.3228  0.0808
11567TIP3    H256193   1.594   5.176   5.436  0.6901 -0.4632  0.5497
11568TIP3   OH256194   3.922   6.020  12.045  0.0246  0.0221 -0.0116
11568TIP3    H156195   3.941   6.114  12.041 -1.9751  0.5330  1.2430
11568TIP3    H256196   3.959   5.992  12.129 -0.6490  0.0115  0.2834
11569TIP3   OH256197   3.019   2.922   4.600 -0.2057 -0.4686  0.1494
11569TIP3    H156198   2.996   2.851   4.660 -0.0298 -0.8698 -0.2486
11569TIP3    H256199   3.104   2.895   4.564 -0.4608 -0.3857 -0.5164
11570TIP3   OH256200   6.371   2.134   3.437 -0.0943 -0.5422  0.1115
11570TIP3    H156201   6.345   2.222   3.463  2.2927  0.4829 -0.7230
11570TIP3    H256202   6.369   2.135   3.342  2.5129 -0.4879  0.0032
11571TIP3   OH256203   0.533   6.169  15.591 -0.7747  0.6061  0.1580
11571TIP3    H156204   0.571   6.249  15.629 -0.1786  0.5783 -0.3507
11571TIP3    H256205   0.585   6.153  15.513 -0.6027 -0.5295  0.4800
11572TIP3   OH256206   5.852   5.073  15.482  0.1365  0.3055  0.3637
11572TIP3    H156207   5.857   4.978  15.476  0.7200  0.3776 -0.7239
11572TIP3    H256208   5.795   5.090  15.556  1.5404 -0.8676  1.7724
11573TIP3   OH256209   0.679   0.391   1.641 -0.0502  0.4391 -0.4154
11573TIP3    H156210   0.722   0.468   1.678 -0.7282  0.1980  0.9230
11573TIP3    H256211   0.586   0.402   1.663 -0.2215 -0.5303 -0.6108
11574TIP3   OH256212   6.648   0.942   0.974  0.4107  0.0275  0.0865
11574TIP3    H156213   6.703   0.951   0.896  0.8664 -1.1680  0.2482
11574TIP3    H256214   6.710   0.937   1.047  0.0468 -0.2192  0.3845
11575TIP3   OH256215   5.126   0.433  14.346  0.2863  0.2663  0.1005
11575TIP3    H156216   5.031   0.427  14.347  0.3566 -1.6205  1.2641
11575TIP3    H256217   5.150   0.428  14.254 -0.6631 -2.2597 -0.0847
11576TIP3   OH256218   4.187   5.120  14.087 -0.0421 -0.4457  0.1544
11576TIP3    H156219   4.098   5.086  14.086 -0.4018  0.4175  1.2778
11576TIP3    H256220   4.178   5.212  14.112  1.2049 -0.5373  1.0566
11577TIP3   OH256221   6.337   1.005  11.025  0.0370 -0.1675 -0.1309
11577TIP3    H156222   6.352   0.940  10.957  1.1405  0.2199 -0.2887
11577TIP3    H256223   6.282   1.072  10.984 -1.2169 -1.0481  0.0746
11578TIP3   OH256224   4.548   4.268  11.843  0.3195  0.3439  0.0194
11578TIP3    H156225   4.600   4.229  11.773 -0.9619  0.8464 -1.2728
11578TIP3    H256226   4.541   4.361  11.818  0.4504  0.6863  1.2104
11579TIP3   OH256227   3.654   4.802   6.630 -0.4482 -0.5715  0.1284
11579TIP3    H156228   3.564   4.771   6.643 -0.3408 -0.7294  0.5136
11579TIP3    H256229   3.709   4.726   6.647 -0.1820 -0.1813  1.0986
11580TIP3   OH256230   0.380   5.703  16.994 -1.1030 -0.5019  0.1266
11580TIP3    H156231   0.385   5.638  16.923 -1.7235  0.2184 -0.5960
11580TIP3    H256232   0.442   5.771  16.968 -3.0420  0.9408 -1.0034
11581TIP3   OH256233   6.320   4.738  12.152 -0.1423 -0.0959 -0.5206
11581TIP3    H156234   6.381   4.664  12.149 -0.1242 -0.1033 -0.0631
11581TIP3    H256235   6.240   4.704  12.111 -0.5662 -0.7881  0.8105
11582TIP3   OH256236   5.595   5.481   1.936 -0.7826 -0.1160 -0.1122
11582TIP3    H156237   5.554   5.430   2.005  2.0011 -0.7407  1.2005
11582TIP3    H256238   5.677   5.513   1.974 -0.5277  2.0417 -2.1903
11583TIP3   OH256239   2.044   0.708  16.145  0.2471 -0.4362 -0.3020
11583TIP3    H156240   1.961   0.750  16.123 -0.2887 -1.4077 -0.1914
11583TIP3    H256241   2.022   0.615  16.155  1.1144 -0.5387  0.9090
11584TIP3   OH256242   2.568   6.670   3.759 -0.2290  0.0271 -0.2043
11584TIP3    H156243   2.580   6.733   3.830  1.6705 -0.9496  0.4080
11584TIP3    H256244   2.538   6.722   3.685 -2.6263  1.0355  1.3546
11585TIP3   OH256245   4.952   0.454  10.936  0.4016 -0.2024 -0.1968
11585TIP3    H156246   5.006   0.517  10.985 -0.0443 -0.5252  0.7375
11585TIP3    H256247   4.931   0.499  10.854  1.1747  0.3467 -0.1081
11586TIP3   OH256248   4.455   0.869  16.602 -0.5328  0.5053 -0.0377
11586TIP3    H156249   4.545   0.838  16.602  0.2992  2.7474 -0.0487
11586TIP3    H256250   4.453   0.939  16.536 -2.1951  0.7048  0.1702
11587TIP3   OH256251   3.264   4.851   4.620 -0.3548 -0.3741 -0.1116
11587TIP3    H156252   3.214   4.797   4.681 -0.4866  0.1672  0.2668
11587TIP3    H256253   3.198   4.905   4.576 -0.1354  0.1969  0.2424
11588TIP3   OH256254   5.375   2.138  14.583 -0.1898 -0.3591  0.2835
11588TIP3    H156255   5.285   2.169  14.580  0.0063  0.1659 -0.3329
11588TIP3    H256256   5.427   2.212  14.552  0.3881 -0.8901 -0.0353
11589TIP3   OH256257   4.883   5.025  12.585  0.1480 -0.5428 -0.2615
11589TIP3    H156258   4.897   4.938  12.548 -0.5833 -2.0804  2.7742
11589TIP3    H256259   4.807   5.059  12.538  0.5327 -1.4492 -1.5879
11590TIP3   OH256260   4.431   0.884  16.195 -0.0959  0.5137  0.0611
11590TIP3    H156261   4.421   0.949  16.264  1.1130 -0.2136  0.9640
11590TIP3    H256262   4.378   0.918  16.122  1.0609  2.8699  0.2247
11591TIP3   OH256263   0.238   0.578  11.844  0.6322 -0.0121 -0.0852
11591TIP3    H156264   0.248   0.554  11.752  1.8499  1.1785 -0.2876
11591TIP3    H256265   0.147   0.605  11.852  0.2226 -1.1306 -0.6706
11592TIP3   OH256266   5.491   6.586  10.956 -0.1220 -0.3186 -0.2398
11592TIP3    H156267   5.547   6.540  10.895 -0.9646 -1.6846 -0.0297
11592TIP3    H256268   5.405   6.544  10.947 -0.5023  0.0790  1.1708
11593TIP3   OH256269   1.458   0.516   1.688 -0.2048 -0.1102 -0.4777
11593TIP3    H156270   1.445   0.438   1.742 -0.3736  0.4279  0.2648
11593TIP3    H256271   1.410   0.585   1.733  1.8904  0.9984  0.1890
11594TIP3   OH256272   3.461   0.840  17.094  0.2538 -0.0327 -0.9157
11594TIP3    H156273   3.542   0.800  17.125 -0.8045 -1.0079  0.7304
11594TIP3    H256274   3.463   0.827  16.999  2.1525  0.2983 -0.9707
11595TIP3   OH256275   3.882   1.225   4.480  0.3353  0.2025 -0.0863
11595TIP3    H156276   3.938   1.163   4.434  2.6075  2.5296 -0.7008
11595TIP3    H256277   3.831   1.171   4.541  1.5048 -2.3036 -1.1805
11596TIP3   OH256278   3.263   2.219   4.768 -0.3448  1.0554 -0.0287
11596TIP3    H156279   3.270   2.281   4.841 -0.3467  1.4918 -0.3945
11596TIP3    H256280   3.329   2.152   4.787 -2.8784 -1.0075  2.4031
11597TIP3   OH256281   3.816   2.232  13.574  0.0440 -0.5918  0.0621
11597TIP3    H156282   3.868   2.293  13.521  0.4531 -0.5605  0.4911
11597TIP3    H256283   3.745   2.285  13.609  0.9574 -0.1114  1.2406
11598TIP3   OH256284   6.744   3.491  11.408 -0.1735 -0.0320  0.0784
11598TIP3    H156285   6.771   3.494  11.317 -2.1188  0.5960 -0.5307
11598TIP3    H256286   6.700   3.406  11.418  3.5273 -1.9958  1.6034
11599TIP3   OH256287   2.258   5.768  12.222 -0.7626  0.4668  0.5288
11599TIP3    H156288   2.336   5.776  12.167  0.4740 -0.0120  2.1254
11599TIP3    H256289   2.292   5.765  12.311 -2.6145  0.0027  1.2646
11600TIP3   OH256290   3.609   2.570  13.666 -0.2532  0.6976  0.4846
11600TIP3    H156291   3.524   2.529  13.654  0.2012 -0.0109 -0.4015
11600TIP3    H256292   3.654   2.513  13.729 -0.7300  1.5587  1.6561
11601TIP3   OH256293   5.513   1.245   5.680 -0.4454  0.2603 -0.2744
11601TIP3    H156294   5.425   1.276   5.700 -1.6406 -1.8525 -1.8735
11601TIP3    H256295   5.512   1.153   5.705  1.0947  0.0257 -0.9846
11602TIP3   OH256296   3.254   0.179  10.504 -0.6365  1.0146  0.0377
11602TIP3    H156297   3.267   0.103  10.448  1.1864  1.7412 -0.5927
11602TIP3    H256298   3.327   0.238  10.482 -0.6262  1.8991  2.2218
11603TIP3   OH256299   3.976   6.182   3.897 -0.0322 -0.0758 -0.1211
11603TIP3    H156300   4.002   6.216   3.811  0.3906 -2.3498 -0.9552
11603TIP3    H256301   4.025   6.236   3.959  0.3786  1.0001 -1.3266
11604TIP3   OH256302   5.315   6.092   0.237 -0.0222  0.6397  0.2095
11604TIP3    H156303   5.304   6.000   0.216 -1.0076  0.2693  2.1155
11604TIP3    H256304   5.388   6.095   0.299 -2.1783  0.5847  2.9657
11605TIP3   OH256305   5.602   0.961   3.896  0.7934 -0.1593 -0.3654
11605TIP3    H156306   5.638   1.049   3.908  2.3554 -0.6803 -0.9931
11605TIP3    H256307   5.563   0.963   3.809 -0.1014  0.1978  0.0329
11606TIP3   OH256308   2.019   4.885  12.676  0.3715 -0.2024 -0.4383
11606TIP3    H156309   2.077   4.827  12.725 -0.1064  0.1868  0.6354
11606TIP3    H256310   1.948   4.829  12.646  0.8934 -0.5291 -1.0738
11607TIP3   OH256311   0.244   2.961  17.024 -0.0852  1.0679  0.0201
11607TIP3    H156312   0.233   2.872  17.057  2.1802  0.8000  0.1992
11607TIP3    H256313   0.283   3.009  17.097  0.3735  1.7427 -0.6544
11608TIP3   OH256314   2.463   0.523   3.981 -0.7901  0.3618 -0.5962
11608TIP3    H156315   2.451   0.614   3.953  3.5542  0.7860 -1.7720
11608TIP3    H256316   2.462   0.473   3.900  0.4920 -0.0572 -0.3733
11609TIP3   OH256317   6.734   6.430   0.710  0.0165 -0.7998  0.5056
11609TIP3    H156318   6.664   6.423   0.645  0.2017  2.1179 -0.1652
11609TIP3    H256319   6.805   6.474   0.664  0.1982  1.2428  2.5718
11610TIP3   OH256320   1.574   1.843  15.271  0.1189 -0.7146 -0.5808
11610TIP3    H156321   1.609   1.924  15.309 -1.5047 -0.1719 -0.1805
11610TIP3    H256322   1.519   1.872  15.199 -0.9872 -1.4048 -0.0382
11611TIP3   OH256323   0.068   5.264  11.404  0.0148 -0.4222 -0.1523
11611TIP3    H156324   0.151   5.306  11.427  1.0712 -1.5198 -1.7565
11611TIP3    H256325   0.019   5.333  11.360  0.2852  0.0832  0.3100
11612TIP3   OH256326   5.382   5.230   2.019 -0.9078  0.0501 -0.5167
11612TIP3    H156327   5.442   5.232   2.094 -2.9600 -1.2907  1.3114
11612TIP3    H256328   5.399   5.145   1.978 -1.6010 -0.3793  0.0700
11613TIP3   OH256329   6.710   4.594  13.919 -0.4114 -0.3943 -0.1105
11613TIP3    H156330   6.724   4.511  13.873  2.6432  0.5287 -1.0598
11613TIP3    H256331   6.786   4.647  13.896 -1.4534  2.0990  1.7882
11614TIP3   OH256332   3.267   5.535  13.033 -0.3038 -0.0392 -0.5976
11614TIP3    H156333   3.301   5.446  13.021 -0.0466  0.2196 -1.9150
11614TIP3    H256334   3.211   5.550  12.957 -2.0298  0.1904  0.6594
11615TIP3   OH256335   0.568   5.636  16.100 -0.2962  0.5395  0.0984
11615TIP3    H156336   0.602   5.655  16.188  0.2468  0.6632 -0.1389
11615TIP3    H256337   0.639   5.660  16.041 -1.0566  1.5036 -0.4480
11616TIP3   OH256338   3.752   2.806  13.748 -0.1382 -0.1701 -0.5548
11616TIP3    H156339   3.678   2.853  13.710 -2.3786 -1.1764  2.2174
11616TIP3    H256340   3.727   2.714  13.745  0.4120 -0.4485  1.4778
11617TIP3   OH256341   0.877   0.440  12.478 -0.1431  0.2824  0.2164
11617TIP3    H156342   0.962   0.422  12.519  0.9662  1.1492 -1.5610
11617TIP3    H256343   0.851   0.525  12.513  0.5119  0.7464 -0.3884
11618TIP3   OH256344   2.892   2.487   0.398 -0.0256  0.2132 -0.7206
11618TIP3    H156345   2.858   2.455   0.481  0.8777  0.3220 -0.2963
11618TIP3    H256346   2.910   2.580   0.412 -0.1283  0.2957 -1.1200
11619TIP3   OH256347   0.816   3.765  11.751 -0.9872 -0.0989 -0.1630
11619TIP3    H156348   0.745   3.829  11.748 -0.9782 -0.0891 -0.1660
11619TIP3    H256349   0.773   3.684  11.780 -1.0800 -0.2054 -0.5891
11620TIP3   OH256350   1.317   3.624  13.826  0.1191 -0.5624 -0.3069
11620TIP3    H156351   1.397   3.606  13.875  0.9874  1.9659 -0.6685
11620TIP3    H256352   1.265   3.545  13.836  1.1716 -0.9856  2.8712
11621TIP3   OH256353   3.968   1.665  10.890 -0.7636 -0.4171 -0.0069
11621TIP3    H156354   4.045   1.609  10.897  0.8315  1.7343  0.8132
11621TIP3    H256355   3.940   1.656  10.799  1.8261  0.3476 -0.9709
11622TIP3   OH256356   0.795   2.718  15.777 -0.1051 -0.6769 -0.8506
11622TIP3    H156357   0.772   2.625  15.772  0.1528 -0.8143  0.2958
11622TIP3    H256358   0.765   2.745  15.864 -0.0808  0.2870 -1.1366
11623TIP3   OH256359   3.928   3.805  14.821  0.5677 -0.7737 -0.3229
11623TIP3    H156360   3.997   3.767  14.875  0.1464  0.2928  1.0054
11623TIP3    H256361   3.885   3.869  14.878  0.3009  0.6160 -2.0078
11624TIP3   OH256362   6.597   5.728   3.840  0.5754  0.1933 -0.2501
11624TIP3    H156363   6.621   5.819   3.860 -2.7151  1.4459 -1.2778
11624TIP3    H256364   6.672   5.693   3.793  2.4943  1.9070  1.3726
11625TIP3   OH256365   0.021   4.719   2.569 -0.5659  0.7510 -0.3422
11625TIP3    H156366   0.007   4.653   2.501 -0.3626  0.7266 -0.3596
11625TIP3    H256367  -0.036   4.691   2.641 -0.4125  0.5055 -0.3147
11626TIP3   OH256368   3.730   3.479  14.175  0.2165 -0.1431 -0.6121
11626TIP3    H156369   3.747   3.512  14.263  0.3843  0.1068 -0.7379
11626TIP3    H256370   3.637   3.495  14.161  0.5108  1.3223 -1.0981
11627TIP3   OH256371   5.818   0.104  16.541  0.4631 -0.1767 -0.2130
11627TIP3    H156372   5.760   0.058  16.601 -0.8013 -0.7969 -1.8459
11627TIP3    H256373   5.895   0.126  16.594 -0.0809 -1.7400  1.3058
11628TIP3   OH256374   2.578   5.348   0.324 -0.1948 -0.1245  0.2560
11628TIP3    H156375   2.528   5.326   0.245  0.4562  0.4694 -0.3439
11628TIP3    H256376   2.611   5.264   0.356 -0.1208 -0.3342 -0.3538
11629TIP3   OH256377   2.087   6.031   1.487  0.3755  0.1352  0.3018
11629TIP3    H156378   2.122   5.966   1.548  0.8411  0.2840  0.2002
11629TIP3    H256379   2.150   6.031   1.415 -0.0722  0.0962 -0.0880
11630TIP3   OH256380   6.454   5.889   2.550 -0.2947  0.4790 -0.2114
11630TIP3    H156381   6.459   5.887   2.454 -1.4996 -0.1215 -0.2916
11630TIP3    H256382   6.374   5.939   2.568  0.0049  0.7039  0.4778
11631TIP3   OH256383   2.554   4.702  11.098 -0.2729  0.9060 -0.1154
11631TIP3    H156384   2.576   4.620  11.143  1.5963  0.6086 -1.4379
11631TIP3    H256385   2.639   4.735  11.068 -1.1454  2.6582 -0.7390
11632TIP3   OH256386   5.033   5.188  11.665  0.2379 -0.1717  0.3830
11632TIP3    H156387   5.108   5.206  11.721  0.8800 -1.9698  0.1539
11632TIP3    H256388   5.066   5.193  11.576 -0.4582  1.2769  0.1832
11633TIP3   OH256389   5.623   2.828   2.663  0.6569 -0.1551  0.7835
11633TIP3    H156390   5.701   2.875   2.635  1.4446 -2.1389 -0.5680
11633TIP3    H256391   5.560   2.842   2.592  0.5868 -0.4143  0.7939
11634TIP3   OH256392   3.867   5.615  15.199 -0.3732  0.0411  0.3362
11634TIP3    H156393   3.923   5.658  15.134  0.6384  0.3361  1.3676
11634TIP3    H256394   3.838   5.535  15.156 -0.5922  0.7448 -0.8634
11635TIP3   OH256395   2.811   5.053  10.944  0.8587  0.1875  0.4664
11635TIP3    H156396   2.853   5.019  10.865  0.7893  0.8833  0.1214
11635TIP3    H256397   2.851   5.004  11.016  1.7275  0.3306  0.0820
11636TIP3   OH256398   4.416   5.430  15.538  0.3203  0.9337 -0.2291
11636TIP3    H156399   4.390   5.448  15.629 -1.4032  0.6817 -0.6435
11636TIP3    H256400   4.423   5.335  15.534  0.1106  0.9276 -0.4348
11637TIP3   OH256401   2.631   3.030   0.934  0.0739  0.4839  0.6488
11637TIP3    H156402   2.567   3.101   0.923  1.5837  1.8390  0.3551
11637TIP3    H256403   2.709   3.059   0.887  0.6055 -1.5955  0.1213
11638TIP3   OH256404   3.697   6.012  14.791 -0.8529 -0.4247 -0.9121
11638TIP3    H156405   3.707   5.945  14.858  3.4108  1.5280  0.7223
11638TIP3    H256406   3.641   6.078  14.831 -0.9321 -0.6961 -0.5738
11639TIP3   OH256407   3.921   5.579  11.519 -0.4279 -0.1917 -0.4040
11639TIP3    H156408   3.911   5.675  11.520  0.8390 -0.0224  1.9196
11639TIP3    H256409   3.904   5.555  11.428  1.6664  2.5181 -1.6606
11640TIP3   OH256410   2.351   4.195   2.035  0.2889  0.0450  0.3710
11640TIP3    H156411   2.428   4.200   1.978  0.3472  0.9777  0.5129
11640TIP3    H256412   2.366   4.263   2.101  0.4218 -1.2902  1.7521
11641TIP3   OH256413   2.253   3.865   3.584  0.2894 -0.4905 -0.2126
11641TIP3    H156414   2.292   3.781   3.609 -1.7466 -1.3509  0.2984
11641TIP3    H256415   2.236   3.909   3.668 -0.9832 -0.7196 -0.3311
11642TIP3   OH256416   0.889   2.478  12.216 -0.1850 -0.3764  0.4778
11642TIP3    H156417   0.894   2.461  12.122  0.8830  2.2315 -0.0120
11642TIP3    H256418   0.797   2.499  12.232 -0.3726 -0.8440  0.0416
11643TIP3   OH256419   0.123   5.722   2.780 -0.1579  0.0778  0.5458
11643TIP3    H156420   0.051   5.704   2.841 -0.1789 -1.0616  0.2026
11643TIP3    H256421   0.084   5.712   2.693  0.8584 -2.6917  0.3220
11644TIP3   OH256422   2.142   3.873  16.533  0.1016 -0.1817  0.0501
11644TIP3    H156423   2.103   3.935  16.473 -0.0052 -0.5407 -0.2565
11644TIP3    H256424   2.085   3.875  16.610  0.2259  0.2612  0.1336
11645TIP3   OH256425   6.510   3.463  14.979 -0.3594 -0.4642 -0.5730
11645TIP3    H156426   6.506   3.371  15.005  0.6577 -1.1282 -2.5077
11645TIP3    H256427   6.465   3.466  14.894 -0.6023  0.8882 -0.4199
11646TIP3   OH256428   5.308   1.573   1.036 -0.2736  0.6754  0.6750
11646TIP3    H156429   5.275   1.551   0.949 -0.5777 -0.1064  0.9842
11646TIP3    H256430   5.387   1.521   1.046  0.3390  1.5516  0.4606
11647TIP3   OH256431   5.865   6.709   1.946 -0.2657  0.0804  0.5410
11647TIP3    H156432   5.936   6.682   1.888  0.6267  0.2448  1.5272
11647TIP3    H256433   5.909   6.740   2.025 -1.4556 -0.3692  1.4118
11648TIP3   OH256434   1.441   2.344  16.857  0.0703  0.1313  0.1304
11648TIP3    H156435   1.511   2.282  16.878  0.0910 -0.0091 -0.3445
11648TIP3    H256436   1.481   2.407  16.798 -0.5214 -0.6945 -1.2152
11649TIP3   OH256437   1.513   0.944   0.226  0.0817  0.2680 -0.2165
11649TIP3    H156438   1.561   0.982   0.153  0.6753  0.1592  0.1172
11649TIP3    H256439   1.455   0.879   0.186  0.4608  0.1559 -0.5817
11650TIP3   OH256440   4.117   5.995   6.045 -0.1733  0.4210  0.0831
11650TIP3    H156441   4.037   6.031   6.085 -0.4601  1.6771 -1.5065
11650TIP3    H256442   4.146   5.927   6.106 -0.8735  1.8538  2.1477
11651TIP3   OH256443   1.170   3.884   1.783  0.2483 -0.9033 -0.1044
11651TIP3    H156444   1.129   3.864   1.868 -0.0583  0.2315  0.0235
11651TIP3    H256445   1.124   3.962   1.752  1.6785 -0.1476 -0.3941
11652TIP3   OH256446   2.032   5.664  11.246 -0.1078 -0.2799 -0.1096
11652TIP3    H156447   2.079   5.586  11.275 -0.1034 -0.5552 -0.8286
11652TIP3    H256448   1.940   5.646  11.267 -0.2788 -1.0169 -1.3380
11653TIP3   OH256449   1.065   6.308   2.621  0.6622 -0.7065  0.9691
11653TIP3    H156450   0.973   6.305   2.649  0.7507 -0.9508  1.2485
11653TIP3    H256451   1.114   6.273   2.696  0.9601 -0.8154  0.7283
11654TIP3   OH256452   6.606   4.669   2.233 -0.2394  0.2814  0.6779
11654TIP3    H156453   6.647   4.713   2.159 -0.6099 -1.0209 -0.3331
11654TIP3    H256454   6.544   4.608   2.194 -1.4281  0.5111  2.1021
11655TIP3   OH256455   2.787   1.069  15.407  0.2023 -0.2374 -0.0178
11655TIP3    H156456   2.866   1.093  15.455  0.2537 -1.5699  0.6237
11655TIP3    H256457   2.803   0.978  15.380  0.1707  0.4675 -2.5948
11656TIP3   OH256458   4.461   4.163   2.250  0.2800  0.0837  0.1850
11656TIP3    H156459   4.426   4.191   2.166  0.4253  0.1841  0.1572
11656TIP3    H256460   4.548   4.127   2.230 -0.7308 -2.3523 -0.0760
11657TIP3   OH256461   6.307   1.860  16.811  0.5984  0.5774 -0.1803
11657TIP3    H156462   6.348   1.793  16.757 -0.0755 -0.4403  0.5322
11657TIP3    H256463   6.286   1.931  16.750 -0.1630 -0.5445 -1.2701
11658TIP3   OH256464   4.934   4.354   1.520  0.5378  0.0668 -0.3631
11658TIP3    H156465   4.901   4.410   1.591 -0.1887 -1.9384  0.9868
11658TIP3    H256466   4.859   4.345   1.461 -0.6040 -2.1918  1.2445
11659TIP3   OH256467   3.758   4.201   2.785  0.0413 -0.1211 -0.5265
11659TIP3    H156468   3.762   4.165   2.696 -2.1904 -0.1425 -0.6687
11659TIP3    H256469   3.684   4.156   2.825  0.4717  0.5386  1.0646
11660TIP3   OH256470   5.149   3.001  11.809  0.4862 -0.0441  0.5146
11660TIP3    H156471   5.083   3.068  11.793  0.6664 -0.2065 -0.9763
11660TIP3    H256472   5.202   2.998  11.729  3.0258  0.8723  2.0335
11661TIP3   OH256473   1.186   3.430  14.981  0.4416 -0.6557 -0.5315
11661TIP3    H156474   1.239   3.483  14.922 -1.1170  1.7445  0.0622
11661TIP3    H256475   1.114   3.488  15.006 -0.2582 -2.4013  1.8221
11662TIP3   OH256476   4.773   1.402  16.437  0.2613  0.3341 -0.1371
11662TIP3    H156477   4.811   1.489  16.449 -0.0841  0.2888  1.4444
11662TIP3    H256478   4.841   1.352  16.391  1.1116  0.9817  0.3854
11663TIP3   OH256479   3.353   2.727  14.415  0.6517 -0.2786 -0.0917
11663TIP3    H156480   3.263   2.703  14.438  0.9212 -2.0015 -0.7138
11663TIP3    H256481   3.404   2.703  14.492  0.4565  1.9121  0.7856
11664TIP3   OH256482   0.768   0.087  13.389  0.8260  0.6656 -0.3650
11664TIP3    H156483   0.783   0.154  13.455 -0.0736 -1.2272  1.9015
11664TIP3    H256484   0.687   0.113  13.346  1.5905  2.0861 -0.9933
11665TIP3   OH256485   1.119   5.037  13.835 -0.0075 -0.3190  0.4536
11665TIP3    H156486   1.155   5.028  13.747  0.4842  1.1879  0.4646
11665TIP3    H256487   1.026   5.053  13.821 -0.2321 -1.6859  0.2998
11666TIP3   OH256488   6.741   4.231  11.407 -0.1500  0.2968  0.5919
11666TIP3    H156489   6.744   4.314  11.359 -0.0815 -1.3953 -2.5673
11666TIP3    H256490   6.823   4.187  11.384 -0.6620 -1.0916  1.3302
11667TIP3   OH256491   1.037   0.160   1.490  0.5962  0.3941  0.7632
11667TIP3    H156492   0.978   0.087   1.473 -1.1498  1.8175  0.3573
11667TIP3    H256493   1.050   0.160   1.584 -0.4540  0.3248  0.9173
11668TIP3   OH256494   1.704   3.753   5.885 -0.6942 -0.0869  0.1319
11668TIP3    H156495   1.630   3.801   5.847  1.2847  1.3725 -2.1460
11668TIP3    H256496   1.718   3.796   5.970 -0.8393  1.4258 -0.5695
11669TIP3   OH256497   2.178   6.083   0.365 -0.2383 -0.2148 -0.3832
11669TIP3    H156498   2.087   6.072   0.392 -0.2045 -2.2168 -0.9372
11669TIP3    H256499   2.220   6.126   0.440 -1.1525 -1.3662  0.8316
11670TIP3   OH256500   3.680   4.270   0.520  0.7904  0.2074  0.6460
11670TIP3    H156501   3.709   4.257   0.610 -2.4609  1.7666  2.0757
11670TIP3    H256502   3.723   4.351   0.492  0.0112  0.9910  1.6765
11671TIP3   OH256503   3.344   0.791  13.479  0.1028  0.0454 -0.7126
11671TIP3    H156504   3.352   0.824  13.390  0.3091 -1.9209 -1.4556
11671TIP3    H256505   3.434   0.776  13.508  0.0188  0.2621 -0.3224
11672TIP3   OH256506   1.383   5.826  13.408 -0.1263  0.9465 -0.7338
11672TIP3    H156507   1.288   5.815  13.403 -0.4020  3.3804 -2.6837
11672TIP3    H256508   1.403   5.822  13.502 -2.1436  0.4892 -0.2731
11673TIP3   OH256509   4.906   1.363   6.302 -0.2885  0.3582  0.0904
11673TIP3    H156510   4.853   1.442   6.318 -1.9756 -0.3358 -1.5829
11673TIP3    H256511   4.993   1.396   6.279 -0.2434  1.5985  1.9020
11674TIP3   OH256512   0.992   5.644  13.245  0.0372  0.0578 -0.2334
11674TIP3    H156513   1.036   5.649  13.160 -0.7192 -0.5354 -0.6619
11674TIP3    H256514   0.920   5.706  13.238 -1.4919 -1.7218 -0.9118
11675TIP3   OH256515   5.309   0.996  14.883  0.2164  0.0489  0.1778
11675TIP3    H156516   5.305   0.917  14.829  0.7173  0.8720 -1.1072
11675TIP3    H256517   5.401   1.021  14.883  0.4706 -0.6391  2.5388
11676TIP3   OH256518   1.342   6.524   2.434 -0.1849 -0.2135  0.3196
11676TIP3    H156519   1.375   6.474   2.509 -1.7338  0.3423  1.4149
11676TIP3    H256520   1.278   6.466   2.394 -0.1076 -0.0997  0.0335
11677TIP3   OH256521   1.775   5.897  10.530  0.4960  0.5049  0.7760
11677TIP3    H156522   1.812   5.982  10.555  2.2343 -0.2864  1.0225
11677TIP3    H256523   1.794   5.889  10.437 -0.4207  0.7280  0.5579
11678TIP3   OH256524   3.311   0.106   5.493  0.1642 -0.3583  0.1833
11678TIP3    H156525   3.249   0.061   5.550  0.1060  0.1414  0.5257
11678TIP3    H256526   3.375   0.145   5.553  0.7253 -0.7460 -0.1582
11679TIP3   OH256527   5.865   4.693  14.257  0.6262  0.0995  0.0020
11679TIP3    H156528   5.876   4.715  14.164  1.1534  2.2852  0.5078
11679TIP3    H256529   5.810   4.616  14.258 -1.6105  1.5414 -2.0749
11680TIP3   OH256530   4.614   0.401   3.001  0.0223 -0.2758  0.0222
11680TIP3    H156531   4.651   0.487   2.983 -0.2585 -0.5198 -1.9848
11680TIP3    H256532   4.545   0.417   3.065  0.3189  0.9034  0.0549
11681TIP3   OH256533   1.141   0.401   5.015 -0.0439 -0.1376 -0.2094
11681TIP3    H156534   1.164   0.454   4.939  0.4166  0.1021  0.0951
11681TIP3    H256535   1.223   0.360   5.042 -0.2010 -0.2141  0.1621
11682TIP3   OH256536   5.780   0.877  12.115  0.1816  0.3361  0.3645
11682TIP3    H156537   5.752   0.968  12.112  1.6474  0.8073 -0.2225
11682TIP3    H256538   5.849   0.871  12.049  1.4170 -0.7153  1.6853
11683TIP3   OH256539   6.076   6.149  12.976  0.0659 -0.0769  0.4092
11683TIP3    H156540   6.023   6.074  12.948 -1.1373  1.6806 -2.5314
11683TIP3    H256541   6.155   6.144  12.923  1.4286 -0.8301  2.3899
11684TIP3   OH256542   2.728   0.838   0.384  0.3858 -0.2879 -0.3627
11684TIP3    H156543   2.728   0.924   0.342  2.3108 -0.8275 -1.5578
11684TIP3    H256544   2.645   0.798   0.356 -0.8085  1.3305  0.6630
11685TIP3   OH256545   1.544   1.642   5.899  0.2131  0.1728 -0.6669
11685TIP3    H156546   1.631   1.680   5.911 -0.4263  1.8844 -1.0918
11685TIP3    H256547   1.542   1.568   5.960  1.6901  0.5540 -0.0952
11686TIP3   OH256548   5.237   4.769  14.959  0.0096 -0.4307 -0.0999
11686TIP3    H156549   5.147   4.803  14.955 -0.7623 -2.2594  0.5658
11686TIP3    H256550   5.265   4.766  14.867 -0.6709  0.0071 -0.3316
11687TIP3   OH256551   1.630   6.136  15.364  0.2393  0.0784 -0.0123
11687TIP3    H156552   1.587   6.216  15.395 -0.0606  0.5533 -1.5381
11687TIP3    H256553   1.670   6.162  15.281  0.9543 -1.1249 -0.0613
11688TIP3   OH256554   2.044   1.760   5.155  0.0406 -0.5372 -0.7096
11688TIP3    H156555   2.126   1.731   5.114  1.4409  0.9514  0.8687
11688TIP3    H256556   1.994   1.680   5.167  2.4727 -1.9691  0.7866
11689TIP3   OH256557   3.433   2.152   0.505 -0.0438 -0.3178  0.4555
11689TIP3    H156558   3.493   2.098   0.453  0.1545 -0.1554  0.5125
11689TIP3    H256559   3.348   2.140   0.463  0.4223  1.2227 -1.0424
11690TIP3   OH256560   2.172   2.855  16.664  0.4975 -0.3294  0.8760
11690TIP3    H156561   2.201   2.797  16.594  2.4281  0.0798  1.3033
11690TIP3    H256562   2.121   2.922  16.619 -0.4659 -1.4583  0.2008
11691TIP3   OH256563   3.227   1.632  16.393 -0.2149 -0.2329 -0.2457
11691TIP3    H156564   3.140   1.649  16.429  0.7665 -1.0458  2.7685
11691TIP3    H256565   3.210   1.602  16.303 -3.1765 -1.8173  0.7029
11692TIP3   OH256566   5.237   2.546   4.500 -0.0743  0.7610  0.5747
11692TIP3    H156567   5.202   2.510   4.418 -0.3905  1.1099  0.5509
11692TIP3    H256568   5.161   2.555   4.557 -0.0436  1.5875  0.5018
11693TIP3   OH256569   2.857   5.573  11.171 -0.3115 -0.3077  0.0124
11693TIP3    H156570   2.869   5.608  11.082  1.1538  1.8422  0.9662
11693TIP3    H256571   2.934   5.519  11.185  0.1438  0.4352  0.4254
11694TIP3   OH256572   1.992   4.471   0.978  0.2174 -0.5659  0.0219
11694TIP3    H156573   2.077   4.458   0.936  0.8967  1.0996  0.8286
11694TIP3    H256574   1.933   4.413   0.930  2.0321 -2.7876  0.2934
11695TIP3   OH256575   4.767   3.105   1.202 -0.0190  0.1328  0.4085
11695TIP3    H156576   4.833   3.172   1.220  0.3896 -0.5364  1.5035
11695TIP3    H256577   4.748   3.067   1.288 -2.0718  0.5233  0.1767
11696TIP3   OH256578   6.317   5.114   3.280 -0.2544 -0.2464  0.1240
11696TIP3    H156579   6.244   5.145   3.333 -0.4932  0.3800 -0.5515
11696TIP3    H256580   6.277   5.064   3.209  0.0302 -0.6588  0.2507
11697TIP3   OH256581   4.839   6.448   0.503 -0.4481  0.7510 -0.1996
11697TIP3    H156582   4.868   6.483   0.587 -2.4696 -2.3568  2.0283
11697TIP3    H256583   4.743   6.447   0.509 -0.6013 -0.6811 -1.9919
11698TIP3   OH256584   3.266   2.500   4.091 -0.1994  0.1458 -0.2611
11698TIP3    H156585   3.341   2.550   4.124 -1.2856  1.9798 -0.4638
11698TIP3    H256586   3.197   2.517   4.155 -0.7921 -0.5646 -0.7029
11699TIP3   OH256587   4.300   3.704   1.642 -0.2900  0.3725  0.6517
11699TIP3    H156588   4.215   3.665   1.622  0.0798 -0.6225  0.9661
11699TIP3    H256589   4.329   3.742   1.560 -0.7631  0.1758  0.3884
11700TIP3   OH256590   4.076   5.349   2.740 -0.1349 -0.1675  0.0318
11700TIP3    H156591   4.151   5.321   2.687 -0.2608 -0.3303 -0.0606
11700TIP3    H256592   4.103   5.433   2.777 -0.1592  0.0899 -0.5265
11701TIP3   OH256593   3.425   0.479   1.810  0.2811 -0.0109 -0.2129
11701TIP3    H156594   3.490   0.542   1.843 -0.1236 -0.4049  1.4315
11701TIP3    H256595   3.345   0.530   1.801  0.0381 -0.2018  0.7963
11702TIP3   OH256596   1.697   0.513   0.051 -0.5349  0.6708 -0.1264
11702TIP3    H156597   1.641   0.573   0.002 -1.6256 -0.2017  0.0228
11702TIP3    H256598   1.658   0.427   0.037  0.2197  0.1715  0.7657
11703TIP3   OH256599   1.059   5.851  14.173  0.1346  0.2290 -0.3763
11703TIP3    H156600   1.005   5.844  14.252  0.7722 -0.1177  0.0390
11703TIP3    H256601   1.138   5.802  14.194  0.9073  1.2894 -0.7231
11704TIP3   OH256602   1.572   2.016  12.839 -0.3816 -0.2394 -0.0164
11704TIP3    H156603   1.489   2.041  12.798 -0.3254  2.2076  1.1479
11704TIP3    H256604   1.638   2.033  12.772 -0.5889  0.5807 -0.0212
11705TIP3   OH256605   3.904   6.795   3.451  0.3387  0.3012  0.2853
11705TIP3    H156606   3.947   6.720   3.409 -0.3087 -0.4520  0.9559
11705TIP3    H256607   3.975   6.842   3.495  0.7759  0.1923 -0.2910
11706TIP3   OH256608   3.173   6.257   1.684  0.0364  0.1962  0.5683
11706TIP3    H156609   3.114   6.235   1.612 -0.2244  1.3678  0.4041
11706TIP3    H256610   3.136   6.211   1.760 -0.3129 -0.1577  0.1925
11707TIP3   OH256611   3.192   0.841   6.032  0.1382 -0.3232  0.0328
11707TIP3    H156612   3.257   0.908   6.050 -0.6775  1.2546 -2.4715
11707TIP3    H256613   3.211   0.772   6.096  2.1184  1.4841  1.5495
11708TIP3   OH256614   1.896   2.688   5.290  0.4972  0.2433 -0.4136
11708TIP3    H156615   1.816   2.636   5.282  2.0103 -2.1861 -0.6366
11708TIP3    H256616   1.869   2.776   5.263 -1.4595 -1.0953 -3.4033
11709TIP3   OH256617   0.460   3.202   3.857 -0.1502 -0.2337  0.6442
11709TIP3    H156618   0.549   3.169   3.851 -0.8285 -1.8974 -2.4111
11709TIP3    H256619   0.448   3.254   3.777 -2.1963 -0.8714  0.4767
11710TIP3   OH256620   6.454   1.968   1.227  0.1373  0.4135 -0.0753
11710TIP3    H156621   6.515   1.940   1.159 -0.3089  1.5188 -0.9622
11710TIP3    H256622   6.505   1.964   1.308  1.1959  0.7205 -0.7042
11711TIP3   OH256623   5.490   5.116  16.390  0.7141 -0.7026 -0.0340
11711TIP3    H156624   5.563   5.131  16.330  0.5742 -0.4086 -0.1393
11711TIP3    H256625   5.501   5.026  16.420  1.3604 -0.5234  0.2850
11712TIP3   OH256626   3.893   4.518  11.877  0.0406 -0.0086 -0.4458
11712TIP3    H156627   3.869   4.582  11.944 -1.2155  1.9238 -2.5881
11712TIP3    H256628   3.851   4.437  11.905 -1.7379  1.1220  0.3744
11713TIP3   OH256629   3.372   5.715  11.957 -0.6009  0.2432  0.0554
11713TIP3    H156630   3.416   5.800  11.955  0.6122 -0.3058  1.2888
11713TIP3    H256631   3.391   5.681  12.045  0.6275 -2.1602 -1.0529
11714TIP3   OH256632   5.075   6.520   6.154 -0.0780  0.2936 -0.2901
11714TIP3    H156633   5.116   6.553   6.234 -0.1117  1.4494 -0.7335
11714TIP3    H256634   5.093   6.587   6.088  0.1842 -0.7628 -1.3313
11715TIP3   OH256635   4.799   6.154  10.488  0.1905 -0.0408  0.5367
11715TIP3    H156636   4.831   6.244  10.499  1.3929 -0.2533 -0.9141
11715TIP3    H256637   4.756   6.155  10.403 -0.2658 -0.7280  0.7573
11716TIP3   OH256638   3.587   0.008   2.942  0.7656  0.1732 -1.0252
11716TIP3    H156639   3.677   0.019   2.913  0.7548 -0.5422 -1.3453
11716TIP3    H256640   3.588  -0.070   2.997  0.0475 -0.8654 -2.4201
11717TIP3   OH256641   4.533   2.762   5.337 -0.1429 -0.2203  0.2310
11717TIP3    H156642   4.617   2.809   5.335  0.0083 -0.5067 -0.6539
11717TIP3    H256643   4.551   2.684   5.388 -0.3454  0.5716  1.5609
11718TIP3   OH256644   2.760   1.623   2.163  0.1974 -0.0501  0.9623
11718TIP3    H156645   2.825   1.689   2.139  0.2368 -0.2756  0.4463
11718TIP3    H256646   2.778   1.604   2.255 -1.5239  2.6442  2.0011
11719TIP3   OH256647   2.472   5.994  10.842  0.1650  0.0416 -0.0726
11719TIP3    H156648   2.422   5.936  10.786 -0.5529  1.4900 -0.9941
11719TIP3    H256649   2.549   6.018  10.791  0.3740  0.0394  0.2344
11720TIP3   OH256650   3.753   0.770  11.720  0.6039 -0.0512  0.0979
11720TIP3    H156651   3.744   0.753  11.626  0.8291 -2.9738  0.5241
11720TIP3    H256652   3.663   0.775  11.752  0.5300  0.5722 -0.1886
11721TIP3   OH256653   0.105   3.470   2.939  0.8113 -0.3410  0.5382
11721TIP3    H156654   0.047   3.532   2.895  1.0599 -1.4985 -1.5774
11721TIP3    H256655   0.162   3.524   2.993 -1.3672  0.9193  1.6810
11722TIP3   OH256656   4.147   4.368   4.817 -0.0357  0.2812  0.4049
11722TIP3    H156657   4.165   4.279   4.786 -0.2404  0.4299 -0.1398
11722TIP3    H256658   4.111   4.355   4.905 -0.3367 -0.2000  0.2170
11723TIP3   OH256659   2.355   0.824   2.710  0.2803 -0.1675  0.1147
11723TIP3    H156660   2.337   0.916   2.692  0.6028 -0.0532  0.3719
11723TIP3    H256661   2.308   0.806   2.791 -0.3120 -0.4038 -0.2750
11724TIP3   OH256662   3.905   4.913   6.014  0.1559  0.6314  0.3197
11724TIP3    H156663   3.880   4.994   5.970 -2.4685  0.0409  0.5837
11724TIP3    H256664   3.885   4.929   6.106 -1.4646 -0.6606  0.2207
11725TIP3   OH256665   3.388   0.020  15.511 -0.1358 -0.5768 -0.0238
11725TIP3    H156666   3.329  -0.054  15.500  0.7385 -1.2998  0.0172
11725TIP3    H256667   3.464  -0.003  15.457  0.2926  0.1285  0.2732
11726TIP3   OH256668   6.311   5.878  12.443 -0.0832 -0.1898  0.6597
11726TIP3    H156669   6.397   5.904  12.408 -0.1270  1.1451  1.4700
11726TIP3    H256670   6.297   5.790  12.408  2.4029 -1.1871  1.8685
11727TIP3   OH256671   2.971   0.182  13.844  0.0516 -0.3913  0.1646
11727TIP3    H156672   2.981   0.167  13.938  2.3980 -0.1800  0.0191
11727TIP3    H256673   2.999   0.273  13.832 -0.7374 -0.2528 -0.6755
11728TIP3   OH256674   2.814   5.855  13.323 -0.0363  0.1053 -0.2409
11728TIP3    H156675   2.894   5.813  13.289  0.6437 -0.0452  1.4413
11728TIP3    H256676   2.757   5.863  13.247  1.0350 -1.0783 -1.2169
11729TIP3   OH256677   4.200   5.281  16.782 -0.2526 -0.2080  0.6598
11729TIP3    H156678   4.273   5.342  16.793 -1.2377  0.9405  0.9540
11729TIP3    H256679   4.145   5.296  16.858 -2.1664  0.8592 -0.8576
11730TIP3   OH256680   4.002   1.793   5.368 -0.7473  0.1903  0.4740
11730TIP3    H156681   3.934   1.727   5.377 -0.0071 -0.8882 -1.3291
11730TIP3    H256682   3.962   1.874   5.400 -1.6698 -1.0684  2.7479
11731TIP3   OH256683   6.794   0.565   2.660 -0.0683  0.0551 -0.2742
11731TIP3    H156684   6.844   0.628   2.609  0.8298 -0.9217 -0.6349
11731TIP3    H256685   6.846   0.552   2.739 -0.4914  0.1187  0.0170
11732TIP3   OH256686   3.271   1.266   6.469  0.2660  0.2681 -0.7362
11732TIP3    H156687   3.190   1.270   6.519  1.2587  1.2268  0.8605
11732TIP3    H256688   3.308   1.180   6.489  0.3264  0.3802 -0.3706
11733TIP3   OH256689   2.686   2.220  13.200  0.1087  0.4476 -0.1112
11733TIP3    H156690   2.658   2.185  13.285 -3.4102  0.5579 -1.0386
11733TIP3    H256691   2.673   2.315  13.208 -1.8468  0.3257 -1.1638
11734TIP3   OH256692   3.195   0.025  12.858  0.2329 -0.4261  0.1688
11734TIP3    H156693   3.252  -0.051  12.869 -0.0034 -0.5941  0.2458
11734TIP3    H256694   3.201   0.046  12.764  0.7932 -0.1436  0.2653
11735TIP3   OH256695   3.174   2.958   3.126 -0.1346  0.6156 -0.4644
11735TIP3    H156696   3.199   3.050   3.115  1.5291 -0.0413 -3.1747
11735TIP3    H256697   3.120   2.938   3.049  0.5181 -0.9508 -0.5504
11736TIP3   OH256698   5.118   6.398  13.238 -0.2582 -0.2080 -0.2515
11736TIP3    H156699   5.185   6.330  13.241 -0.9678 -0.9556 -1.0668
11736TIP3    H256700   5.094   6.404  13.146  0.3371  1.7116 -0.3341
11737TIP3   OH256701   3.943   4.718   0.281  0.5760  0.3668  0.0631
11737TIP3    H156702   4.015   4.770   0.242  0.7758 -0.6588 -1.0001
11737TIP3    H256703   3.880   4.709   0.210  1.6697 -2.9382 -0.6807
11738TIP3   OH256704   4.952   1.256  16.899  0.2963  0.3554  0.2793
11738TIP3    H156705   4.947   1.199  16.822  1.1568 -2.5224  2.1813
11738TIP3    H256706   4.861   1.278  16.918  0.1330  2.9019 -2.6227
11739TIP3   OH256707   0.337   1.400  14.428 -0.2027 -0.6349  0.1351
11739TIP3    H156708   0.336   1.345  14.506  1.2214  1.1391  1.4904
11739TIP3    H256709   0.249   1.437  14.423 -1.6015 -3.7521 -1.4894
11740TIP3   OH256710   4.266   2.630   3.234  0.2741 -0.7062 -0.1057
11740TIP3    H156711   4.187   2.659   3.279 -0.5996 -2.1767 -0.6075
11740TIP3    H256712   4.242   2.628   3.141  0.9207 -1.0757 -0.2717
11741TIP3   OH256713   5.468   6.791  13.777  0.5382 -0.1740 -0.0233
11741TIP3    H156714   5.419   6.849  13.719 -0.5341 -0.5702  0.4651
11741TIP3    H256715   5.502   6.849  13.845  0.7139  0.0919 -0.3299
11742TIP3   OH256716   5.166   3.676  12.868 -0.1839 -0.0115 -0.0957
11742TIP3    H156717   5.161   3.678  12.964 -0.6435 -0.1972 -0.1145
11742TIP3    H256718   5.247   3.723  12.847 -1.3243  2.2256  0.2646
11743TIP3   OH256719   5.835   2.559   3.696 -0.1861  0.0265  0.2384
11743TIP3    H156720   5.744   2.554   3.667 -0.4226 -1.7400  1.1209
11743TIP3    H256721   5.874   2.477   3.666  1.0354  0.6109  0.1736
11744TIP3   OH256722   6.251   4.903   2.003  0.1695 -0.1320 -0.6294
11744TIP3    H156723   6.261   4.866   2.091 -0.2358 -1.7812 -1.2342
11744TIP3    H256724   6.305   4.982   2.004  0.1908 -0.1329  1.0850
11745TIP3   OH256725   5.535   1.183   0.496 -0.5405  0.4891  0.4903
11745TIP3    H156726   5.454   1.140   0.467 -0.8953  0.4520  1.4730
11745TIP3    H256727   5.512   1.220   0.582  0.5387  0.3051  0.8725
11746TIP3   OH256728   1.467   4.061  10.675  0.0494 -0.5197  1.0217
11746TIP3    H156729   1.418   4.117  10.616 -1.8098  0.0316  2.9837
11746TIP3    H256730   1.536   4.117  10.711 -0.0998 -0.2738  0.9239
11747TIP3   OH256731   3.662   6.318   2.722 -0.1257  0.4354 -0.1599
11747TIP3    H156732   3.661   6.247   2.659  0.1590 -0.1314  0.4633
11747TIP3    H256733   3.632   6.279   2.804  0.6970  0.8547  0.3585
11748TIP3   OH256734   6.650   4.494   3.787 -0.1585  0.0584  0.4312
11748TIP3    H156735   6.559   4.524   3.779 -0.1831 -0.4743 -3.1825
11748TIP3    H256736   6.699   4.571   3.815 -1.4867  0.8004  0.8000
11749TIP3   OH256737   1.984   4.027  15.114 -0.7039 -0.2888 -0.2739
11749TIP3    H156738   1.976   4.119  15.141  1.2968 -0.2902  0.5217
11749TIP3    H256739   2.016   3.982  15.193  1.9270 -0.9572 -1.6008
11750TIP3   OH256740   2.084   6.756   2.338 -0.1653  0.0502 -0.0116
11750TIP3    H156741   2.116   6.804   2.415  1.1833  1.6171 -1.4866
11750TIP3    H256742   1.990   6.775   2.336  0.3743  3.1302 -0.7932
11751TIP3   OH256743   5.687   3.509   5.687  0.2355  0.3534  0.3601
11751TIP3    H156744   5.744   3.502   5.611  0.2221  0.9772  0.2894
11751TIP3    H256745   5.604   3.543   5.653  0.1033  0.2741  0.5949
11752TIP3   OH256746   2.999   2.429  13.376  0.1046 -0.1743  0.3912
11752TIP3    H156747   2.995   2.503  13.315 -0.3622  0.4114  1.1151
11752TIP3    H256748   3.069   2.373  13.341  0.2274  0.4260 -0.3602
11753TIP3   OH256749   5.566   5.474   3.908 -0.3166 -0.4925  0.0644
11753TIP3    H156750   5.508   5.542   3.943  1.6163  1.8836 -1.0726
11753TIP3    H256751   5.649   5.519   3.891  1.8635 -3.6458  1.3319
11754TIP3   OH256752   6.266   1.984  14.642  0.3752  0.1232 -0.6436
11754TIP3    H156753   6.356   2.002  14.616  0.1924  0.8259 -0.8020
11754TIP3    H256754   6.259   1.888  14.639  1.2593  0.0252 -0.1408
11755TIP3   OH256755   4.699   0.021   0.696 -0.1634  0.3425  0.7733
11755TIP3    H156756   4.606   0.032   0.716 -0.0347  1.5108  0.8093
11755TIP3    H256757   4.702   0.004   0.602 -0.5347 -1.6965  1.0962
11756TIP3   OH256758   3.080   2.158   1.986  0.2174  0.2166  0.2444
11756TIP3    H156759   3.136   2.214   1.932  1.0577 -0.8593 -0.0350
11756TIP3    H256760   3.099   2.069   1.957 -2.9343 -0.1405 -1.0918
11757TIP3   OH256761   2.310   0.630  15.086  0.1285 -0.1833  0.1397
11757TIP3    H156762   2.240   0.678  15.131  0.9036  0.4488  0.7170
11757TIP3    H256763   2.265   0.571  15.026 -0.8899  0.3925  0.3181
11758TIP3   OH256764   2.754   0.292  12.605  0.3618 -0.0159  0.3428
11758TIP3    H156765   2.817   0.267  12.537  0.1543 -2.0020  0.8201
11758TIP3    H256766   2.669   0.264  12.570  0.2921 -1.4131  1.5227
11759TIP3   OH256767   3.785   0.575  12.144  0.2580 -0.1980  0.1227
11759TIP3    H156768   3.815   0.494  12.102 -1.0077 -0.5777 -0.0997
11759TIP3    H256769   3.828   0.645  12.096  0.9791 -0.7165 -0.0068
11760TIP3   OH256770   5.756   2.048  12.782 -0.2565 -0.1102  0.2826
11760TIP3    H156771   5.790   1.959  12.773 -2.6089 -1.0743  0.2506
11760TIP3    H256772   5.703   2.046  12.861  0.4947  1.6040  0.8883
11761TIP3   OH256773   4.028   1.870   2.267 -0.3616  0.0739  0.1433
11761TIP3    H156774   4.082   1.885   2.190 -1.9724  0.2980 -0.9904
11761TIP3    H256775   4.031   1.775   2.280 -0.8727 -0.0892 -0.8273
11762TIP3   OH256776   3.944   2.969   2.447 -0.0903 -0.3707 -0.2716
11762TIP3    H156777   4.035   2.972   2.475  0.4959  2.1837 -2.0297
11762TIP3    H256778   3.947   2.997   2.355 -2.6309 -0.1106 -0.3354
11763TIP3   OH256779   1.825   0.645  11.413  0.2748  0.2430 -0.3290
11763TIP3    H156780   1.886   0.713  11.385  0.0650  0.0309 -1.3144
11763TIP3    H256781   1.739   0.688  11.410  0.1314 -0.0817 -1.0396
11764TIP3   OH256782   1.770   2.110  13.556  0.0117 -0.3339 -0.3149
11764TIP3    H156783   1.727   2.037  13.512  0.6385 -0.0117 -1.5046
11764TIP3    H256784   1.822   2.152  13.488 -1.9363  2.5162 -0.2359
11765TIP3   OH256785   2.007   6.391  15.529 -0.6535 -0.0047 -0.5334
11765TIP3    H156786   1.952   6.321  15.564 -0.0869 -0.1356  0.1095
11765TIP3    H256787   1.963   6.418  15.449 -1.5683 -0.2237 -0.1164
11766TIP3   OH256788   5.705   6.289   5.463 -0.1793 -0.1934  0.0410
11766TIP3    H156789   5.792   6.328   5.473 -1.3314  2.9986 -0.9467
11766TIP3    H256790   5.703   6.259   5.372  0.1247 -1.0743  0.3102
11767TIP3   OH256791   2.106   0.797   4.260  0.1813 -0.4850  0.4305
11767TIP3    H156792   2.021   0.777   4.301 -0.7377  2.1515  0.0098
11767TIP3    H256793   2.147   0.859   4.320  0.6380  0.2661 -0.6409
11768TIP3   OH256794   6.675   6.228   5.572 -0.1657 -0.4136 -0.6723
11768TIP3    H156795   6.714   6.192   5.652 -0.7268  1.2286  0.4214
11768TIP3    H256796   6.749   6.266   5.524  0.2216 -1.7079 -1.1273
11769TIP3   OH256797   5.751   6.598  13.823 -0.0697 -0.2145 -0.1391
11769TIP3    H156798   5.810   6.653  13.876  0.2826 -2.7704  2.3662
11769TIP3    H256799   5.667   6.643  13.826  0.7011  1.2665  0.0066
11770TIP3   OH256800   0.978   1.224   0.369  0.0310  0.7023  0.0457
11770TIP3    H156801   0.889   1.214   0.333 -0.1334 -1.7737  0.9452
11770TIP3    H256802   1.035   1.193   0.299 -0.1316 -1.5954  0.8423
11771TIP3   OH256803   1.459   2.944   2.767 -0.1822  0.1564 -0.4021
11771TIP3    H156804   1.384   2.887   2.784 -0.3122  0.8883  1.7837
11771TIP3    H256805   1.486   2.923   2.677 -1.8666 -1.4037 -0.5874
11772TIP3   OH256806   5.734   5.379   4.892 -0.4360 -0.0157 -0.6701
11772TIP3    H156807   5.821   5.417   4.896 -0.6403  0.3672  1.0064
11772TIP3    H256808   5.677   5.452   4.866 -0.4341  0.0926 -0.3762
11773TIP3   OH256809   1.446   0.312   1.880 -0.1966  0.3749 -0.0181
11773TIP3    H156810   1.412   0.377   1.942 -0.6165  0.1579 -0.0195
11773TIP3    H256811   1.482   0.243   1.936  0.8531  0.8984 -0.0061
11774TIP3   OH256812   0.551   3.100  12.166  0.5356 -0.1682 -0.1278
11774TIP3    H156813   0.571   3.190  12.191  0.1503 -0.0414 -0.2781
11774TIP3    H256814   0.522   3.106  12.075  0.0069 -0.3787  0.0214
11775TIP3   OH256815   4.431   2.087  13.981  0.0936  0.1242  0.1609
11775TIP3    H156816   4.508   2.031  13.983  1.4611  1.9091  0.0241
11775TIP3    H256817   4.425   2.122  14.070 -1.2485 -0.8374  0.4825
11776TIP3   OH256818   0.833   5.438   0.073 -0.0048 -0.3344 -0.0210
11776TIP3    H156819   0.743   5.408   0.081  0.4661 -1.2883  4.0622
11776TIP3    H256820   0.840   5.510   0.135  1.8388  0.4543 -1.0463
11777TIP3   OH256821   6.811   6.457   5.111  0.0764  0.2618  0.2077
11777TIP3    H156822   6.851   6.526   5.164  1.6476  0.1386 -0.7752
11777TIP3    H256823   6.738   6.500   5.066 -1.2992  0.3791  2.3638
11778TIP3   OH256824   4.182   4.266   4.456 -0.0689 -0.1814 -0.4647
11778TIP3    H156825   4.253   4.276   4.520  0.0292 -1.7357 -0.3074
11778TIP3    H256826   4.222   4.288   4.372  0.4115 -0.3671 -0.2853
11779TIP3   OH256827   6.198   2.672   1.089 -0.4166  0.7967  0.6335
11779TIP3    H156828   6.163   2.611   1.155 -0.7301 -0.0055 -0.2557
11779TIP3    H256829   6.290   2.683   1.113 -0.0459 -0.9836  0.1196
11780TIP3   OH256830   0.788   0.555   1.882  0.4324  0.1962  0.1469
11780TIP3    H156831   0.710   0.553   1.937 -1.5865 -0.1441 -2.5304
11780TIP3    H256832   0.836   0.476   1.905 -0.3679  0.0268  1.3338
11781TIP3   OH256833   3.821   4.932   4.569  0.1782  0.1994  0.3608
11781TIP3    H156834   3.732   4.928   4.603 -0.8130  1.0170 -1.9139
11781TIP3    H256835   3.826   4.862   4.504  0.6928  1.0379 -0.5433
11782TIP3   OH256836   4.504   4.489  14.012 -0.5618 -0.3535  0.6492
11782TIP3    H156837   4.507   4.578  14.047  0.4987 -0.4246  0.7633
11782TIP3    H256838   4.459   4.438  14.080 -1.6784  0.1830  0.3431
11783TIP3   OH256839   4.157   4.940  15.520 -0.5032  0.4227  0.1578
11783TIP3    H156840   4.182   5.026  15.484  1.6260  0.5803  1.8004
11783TIP3    H256841   4.093   4.960  15.588 -2.2538  0.3879 -1.4097
11784TIP3   OH256842   2.526   3.934  14.822  0.0330  0.1052 -0.0867
11784TIP3    H156843   2.609   3.979  14.805  0.8814 -1.1070  0.6866
11784TIP3    H256844   2.535   3.851  14.775 -0.6663 -0.1243  0.1818
11785TIP3   OH256845   3.143   5.563  12.534  0.3463 -0.5105  0.3796
11785TIP3    H156846   3.101   5.601  12.457 -0.4680 -0.4344  0.8579
11785TIP3    H256847   3.227   5.608  12.539  0.9611 -1.3859 -1.1730
11786TIP3   OH256848   2.431   1.478   3.025 -0.0892 -0.1591 -0.0433
11786TIP3    H156849   2.392   1.504   3.109 -1.1512  0.5218 -0.7211
11786TIP3    H256850   2.494   1.548   3.005 -2.2067  1.5171 -1.3654
11787TIP3   OH256851   0.294   0.009   2.310 -0.1705  0.0105  0.2624
11787TIP3    H156852   0.358  -0.025   2.373  2.2298  3.0143 -0.3303
11787TIP3    H256853   0.324  -0.025   2.225  0.0140  0.5709  0.1018
11788TIP3   OH256854   0.426   2.123   4.507 -0.0110  0.4013 -0.0146
11788TIP3    H156855   0.449   2.193   4.569 -3.3892  1.5766  0.1551
11788TIP3    H256856   0.443   2.161   4.421  0.5289  0.4820  0.1272
11789TIP3   OH256857   6.461   4.036  10.470 -0.1561 -0.8645 -0.0108
11789TIP3    H156858   6.476   4.112  10.527  0.2325 -0.8211 -0.1676
11789TIP3    H256859   6.530   4.042  10.404 -0.3029 -1.1923 -0.1950
11790TIP3   OH256860   4.486   6.174   0.363  0.0053  0.9618 -0.1186
11790TIP3    H156861   4.416   6.232   0.394 -0.7372 -0.4548  0.9514
11790TIP3    H256862   4.545   6.232   0.315 -0.3767  2.7319  1.4148
11791TIP3   OH256863   5.819   4.705   3.450 -0.1281 -0.2593  0.1828
11791TIP3    H156864   5.775   4.667   3.375  1.3602 -0.4308 -0.6522
11791TIP3    H256865   5.794   4.650   3.524 -2.3907  0.4796  0.0589
11792TIP3   OH256866   6.203   4.810   1.142  0.0382 -0.3388 -0.3699
11792TIP3    H156867   6.261   4.782   1.072 -0.9342 -0.5890 -1.0937
11792TIP3    H256868   6.197   4.735   1.200 -0.1273 -0.5600 -0.6721
11793TIP3   OH256869   4.310   0.285  12.176 -0.3461  0.4169 -0.4191
11793TIP3    H156870   4.343   0.369  12.146 -1.0021  0.7931 -0.1081
11793TIP3    H256871   4.293   0.297  12.270  1.5142 -0.6850  0.1232
11794TIP3   OH256872   2.972   2.141  16.761  0.5514 -0.4511 -0.1436
11794TIP3    H156873   2.906   2.116  16.697  1.8102 -2.1570 -0.8561
11794TIP3    H256874   3.012   2.220  16.726 -0.6973  0.2912  0.0305
11795TIP3   OH256875   2.587   1.070   3.089  0.1107 -0.5877 -0.2728
11795TIP3    H156876   2.628   1.154   3.069  0.3255 -0.4843  0.5573
11795TIP3    H256877   2.503   1.093   3.130 -1.4134 -0.7890 -3.0510
11796TIP3   OH256878   1.112   2.673   1.170  0.4928 -0.0795  0.6597
11796TIP3    H156879   1.187   2.724   1.200  0.3969 -0.0619  0.8726
11796TIP3    H256880   1.141   2.582   1.177  0.8303 -0.0415 -0.1668
11797TIP3   OH256881   3.087   2.980  13.969 -0.0476  0.0581  1.2346
11797TIP3    H156882   3.045   2.907  14.014  2.4567 -1.1243  1.8763
11797TIP3    H256883   3.134   2.939  13.897 -1.2868  1.5229 -0.4932
11798TIP3   OH256884   6.479   0.094   3.327  0.6845  0.0609  0.6963
11798TIP3    H156885   6.526   0.023   3.283 -0.6139 -0.0542 -0.6037
11798TIP3    H256886   6.448   0.056   3.409 -0.5302 -1.1249 -0.2632
11799TIP3   OH256887   2.713   2.449  12.772 -0.4418  0.6881 -0.4383
11799TIP3    H156888   2.693   2.394  12.847 -2.6381  0.9498 -0.7581
11799TIP3    H256889   2.666   2.408  12.699  1.5700  0.4776 -1.6860
11800TIP3   OH256890   3.757   6.071  12.909 -0.4216  0.8045  0.2148
11800TIP3    H156891   3.675   6.072  12.959 -0.7911 -1.0678 -0.2733
11800TIP3    H256892   3.756   5.986  12.864  1.7105  0.8146  0.0771
11801TIP3   OH256893   1.670   5.710  15.759 -0.1978  0.1091 -0.4089
11801TIP3    H156894   1.676   5.711  15.663  0.5664 -0.8859 -0.3945
11801TIP3    H256895   1.678   5.802  15.784  2.0832  0.2074 -1.2105
11802TIP3   OH256896   0.920   6.662  14.332  0.3274  0.6612 -0.0915
11802TIP3    H156897   0.870   6.580  14.340  0.5496  0.4116 -1.2061
11802TIP3    H256898   0.960   6.658  14.246 -0.1250  2.2249 -0.3995
11803TIP3   OH256899   0.489   2.708  14.938  0.1485 -0.1605  0.2246
11803TIP3    H156900   0.395   2.712  14.921  0.2114 -0.7058 -0.2844
11803TIP3    H256901   0.524   2.791  14.903 -0.2369  0.3862  1.1033
11804TIP3   OH256902   4.063   1.992  12.494 -0.3240  0.7513 -0.6542
11804TIP3    H156903   4.027   2.050  12.427 -2.4312  0.0727 -0.1837
11804TIP3    H256904   4.039   1.904  12.465 -1.5143  0.4640  1.0971
11805TIP3   OH256905   3.920   3.588   4.948 -0.2881  0.3099 -0.1021
11805TIP3    H156906   3.877   3.633   4.875 -0.3282 -1.5056 -1.2880
11805TIP3    H256907   3.852   3.528   4.981  0.0275  0.4477  0.8075
11806TIP3   OH256908   1.427   2.844   5.029 -0.1418 -0.1629 -0.0274
11806TIP3    H156909   1.488   2.851   5.103 -1.2287 -2.3608  1.1558
11806TIP3    H256910   1.463   2.774   4.975 -1.2680 -1.0579  0.3603
11807TIP3   OH256911   6.534   0.301  10.987 -0.0688  1.2312  0.0349
11807TIP3    H156912   6.612   0.354  11.001 -0.9288  2.8651 -1.0243
11807TIP3    H256913   6.546   0.263  10.900 -0.1231  0.8877  0.1758
11808TIP3   OH256914   3.312   1.194  13.650  0.7471  0.1520 -0.0232
11808TIP3    H156915   3.242   1.145  13.606  0.4696 -1.6131  2.2063
11808TIP3    H256916   3.272   1.279  13.670 -0.5018 -0.4873  0.3719
11809TIP3   OH256917   2.215   5.832  14.932 -0.2869 -0.0103  0.5800
11809TIP3    H156918   2.241   5.919  14.903  1.3047 -0.4423  0.6162
11809TIP3    H256919   2.184   5.788  14.853  2.9063 -0.7853 -0.3815
11810TIP3   OH256920   4.194   2.494   2.989 -0.3778 -0.3744 -0.0799
11810TIP3    H156921   4.181   2.473   2.897 -1.3742 -1.6195  0.3007
11810TIP3    H256922   4.158   2.418   3.036  0.3805  0.0907  1.3245
11811TIP3   OH256923   2.104   0.606   3.837  0.1696  0.0635 -0.1217
11811TIP3    H156924   2.103   0.674   3.905  0.8950  0.0372 -0.0819
11811TIP3    H256925   2.046   0.538   3.870  1.5955 -0.5850  1.1390
11812TIP3   OH256926   6.748   6.479   2.895  0.0417 -0.2422  0.0303
11812TIP3    H156927   6.768   6.560   2.847  0.7395 -0.2758  0.2521
11812TIP3    H256928   6.667   6.499   2.942  0.5413  0.5631  0.5883
11813TIP3   OH256929   4.122   2.017   2.034 -0.6974  0.3639 -0.1141
11813TIP3    H156930   4.054   2.024   1.967 -0.3161  3.3667 -0.3189
11813TIP3    H256931   4.098   2.082   2.100  0.6918 -0.2065  1.0147
11814TIP3   OH256932   4.417   2.485  10.883 -0.2136  0.4283  0.0234
11814TIP3    H156933   4.338   2.448  10.843 -0.5222 -0.9070  1.7809
11814TIP3    H256934   4.387   2.527  10.963  0.7220  0.8806  0.1513
11815TIP3   OH256935   0.258   1.167   3.880  0.0135  0.1917  0.3072
11815TIP3    H156936   0.259   1.180   3.785 -3.5565  0.6938  0.2072
11815TIP3    H256937   0.350   1.176   3.906  1.0048  0.9835 -2.9561
11816TIP3   OH256938   6.683   2.225  12.477  0.0808  0.2128  0.4693
11816TIP3    H156939   6.595   2.197  12.453 -0.0230  0.4723  0.5483
11816TIP3    H256940   6.714   2.276  12.402 -0.0206  0.5259  0.6353
11817TIP3   OH256941   4.071   1.291  15.394 -0.4139 -0.1075 -0.1249
11817TIP3    H156942   4.035   1.355  15.455 -0.3861  0.4552 -0.6936
11817TIP3    H256943   3.994   1.248  15.357 -0.4418 -2.1573  2.0290
11818TIP3   OH256944   0.445   5.547   3.806 -0.2700  0.2438  0.9111
11818TIP3    H156945   0.434   5.559   3.900 -0.8178 -2.4495  1.2984
11818TIP3    H256946   0.537   5.525   3.795 -0.1682  0.7313  0.7984
11819TIP3   OH256947   6.138   3.617  12.152 -0.3833  0.2617  0.3922
11819TIP3    H156948   6.092   3.669  12.217 -0.5622  0.3502  0.1959
11819TIP3    H256949   6.084   3.538  12.142  0.6300 -0.6414  1.7442
11820TIP3   OH256950   1.559   5.590  10.584 -0.4824  0.3148 -0.3155
11820TIP3    H156951   1.494   5.659  10.570  0.2939  1.2171  0.3552
11820TIP3    H256952   1.531   5.518  10.527 -0.7361  1.5600 -1.8286
11821TIP3   OH256953   1.194   2.763  12.651  0.0087  0.4610 -0.2718
11821TIP3    H156954   1.265   2.716  12.607 -1.6314 -1.8893 -0.6178
11821TIP3    H256955   1.205   2.743  12.743 -1.3166 -1.6921 -0.5160
11822TIP3   OH256956   2.348   6.277  13.404  0.2359 -0.3998  0.3753
11822TIP3    H156957   2.329   6.231  13.486 -0.9905 -1.1793 -0.3046
11822TIP3    H256958   2.299   6.359  13.411 -1.4475 -1.2741 -0.2888
11823TIP3   OH256959   5.216   1.452  14.676  0.7855 -0.1714  0.3596
11823TIP3    H156960   5.165   1.527  14.706  0.8096  0.0681 -0.1859
11823TIP3    H256961   5.176   1.376  14.719 -0.7551 -0.1323 -0.8914
11824TIP3   OH256962   4.192   5.357  11.829 -0.1951  0.4620 -0.0506
11824TIP3    H156963   4.233   5.427  11.779  0.0821  1.0450  0.9602
11824TIP3    H256964   4.135   5.313  11.766  0.8381  0.5728 -1.1110
11825TIP3   OH256965   2.765   4.441   0.867 -0.2450 -0.3234  0.2361
11825TIP3    H156966   2.801   4.472   0.784 -1.4151  0.1964 -0.1084
11825TIP3    H256967   2.787   4.348   0.869  1.7873  0.1245  0.4530
11826TIP3   OH256968   3.632   2.508   0.124  0.0119 -0.6372 -0.7175
11826TIP3    H156969   3.680   2.575   0.174  0.0209  0.7724 -2.5129
11826TIP3    H256970   3.592   2.557   0.052 -1.4167 -2.3270 -1.1236
11827TIP3   OH256971   1.000   5.937   2.916  0.3099  0.1875  0.7357
11827TIP3    H156972   1.052   5.941   2.996  1.2832 -2.2876  0.2999
11827TIP3    H256973   0.909   5.944   2.947  0.6895 -0.2027  1.9990
11828TIP3   OH256974   6.396   2.827   3.704 -0.3684  0.1213 -0.0042
11828TIP3    H156975   6.349   2.754   3.662 -0.7386  0.0077  0.5958
11828TIP3    H256976   6.428   2.791   3.787  0.1247  0.4224 -0.0615
11829TIP3   OH256977   6.193   0.591  15.511 -0.3464  0.1683 -0.0393
11829TIP3    H156978   6.231   0.623  15.429 -0.6487  0.5686 -0.0249
11829TIP3    H256979   6.204   0.496  15.506 -0.8893  0.1343 -0.8071
11830TIP3   OH256980   6.084   5.588  10.999 -0.0213  0.4094 -0.1445
11830TIP3    H156981   6.072   5.532  10.922  2.5274  1.2589 -1.2669
11830TIP3    H256982   6.084   5.677  10.964 -2.1700  1.0651  1.3640
11831TIP3   OH256983   1.915   5.181  12.666 -0.1320  0.8432 -0.3267
11831TIP3    H156984   2.003   5.182  12.702  0.1960 -1.1440 -0.9758
11831TIP3    H256985   1.859   5.158  12.741  0.1077  0.3646 -0.2928
11832TIP3   OH256986   5.098   6.636  16.350 -0.5325  0.0190 -1.1370
11832TIP3    H156987   5.150   6.609  16.275  0.3348 -1.0298 -0.2078
11832TIP3    H256988   5.124   6.727  16.366 -1.1638  0.4448 -2.4336
11833TIP3   OH256989   4.235   4.138  13.943  0.0468  0.3532 -0.1127
11833TIP3    H156990   4.274   4.100  13.865  0.2295 -3.4692  1.6546
11833TIP3    H256991   4.308   4.154  14.002 -0.4296 -1.0942  0.9218
11834TIP3   OH256992   0.486   0.854   6.326  0.1508 -0.0135 -0.4162
11834TIP3    H156993   0.455   0.764   6.335  0.6679 -0.5584 -3.1867
11834TIP3    H256994   0.406   0.906   6.323 -0.3081 -0.7267 -1.4481
11835TIP3   OH256995   5.725   2.008  16.775 -0.3338 -0.2884 -0.0241
11835TIP3    H156996   5.674   2.089  16.776 -0.0618 -0.1219  0.6009
11835TIP3    H256997   5.815   2.036  16.791 -0.4316 -0.8435  1.6511
11836TIP3   OH256998   4.157   5.308  10.848  0.2888  0.3789 -0.5100
11836TIP3    H156999   4.219   5.340  10.914  0.3602 -0.8010  0.0133
11836TIP3    H257000   4.085   5.371  10.852  0.1180  0.1348  0.9791
11837TIP3   OH257001   5.047   1.970  15.221 -0.0992 -0.5951 -0.0406
11837TIP3    H157002   5.111   1.953  15.290  0.1018  1.2567  0.2942
11837TIP3    H257003   5.086   1.934  15.142  1.2016  0.1799  0.2230
11838TIP3   OH257004   2.547   4.595  11.816  0.2568  0.3103  0.3775
11838TIP3    H157005   2.477   4.632  11.761  0.0363  0.7301  0.9314
11838TIP3    H257006   2.500   4.555  11.890  0.5177 -0.6992  0.0184
11839TIP3   OH257007   4.056   2.086  13.660 -0.5521 -0.5883  0.3623
11839TIP3    H157008   4.095   2.133  13.734 -0.6256 -0.8444  0.5636
11839TIP3    H257009   3.972   2.130  13.645  0.3181  0.7836 -0.8707
11840TIP3   OH257010   5.980   5.243  17.060  0.3994 -0.1577  0.0513
11840TIP3    H157011   5.985   5.260  17.154  1.5781 -1.6654  0.2950
11840TIP3    H257012   6.033   5.164  17.047 -0.2016 -0.2983 -1.7977
11841TIP3   OH257013   4.226   1.002   3.768  0.0149  0.1068  0.1935
11841TIP3    H157014   4.299   0.987   3.828 -0.3787  1.5460  1.0888
11841TIP3    H257015   4.267   1.022   3.684  0.5945 -0.6682  0.2761
11842TIP3   OH257016   5.333   4.826  12.432 -0.1113 -0.0793 -0.0990
11842TIP3    H157017   5.328   4.906  12.379 -0.0608  0.0768  0.1277
11842TIP3    H257018   5.247   4.820  12.473 -0.3999 -0.6032 -0.7725
11843TIP3   OH257019   1.869   3.577  12.460 -0.4755  0.0139  0.3897
11843TIP3    H157020   1.814   3.584  12.382 -2.5647 -1.4290  1.6364
11843TIP3    H257021   1.849   3.655  12.511 -0.6344 -0.0249  0.3871
11844TIP3   OH257022   2.613   6.300   4.929  0.1118  0.5373  0.1904
11844TIP3    H157023   2.552   6.313   5.003 -0.4752  3.1214 -0.6557
11844TIP3    H257024   2.634   6.388   4.900 -0.2392 -0.3817 -3.2187
11845TIP3   OH257025   4.425   6.652  17.063  0.1958  0.0315 -0.1576
11845TIP3    H157026   4.498   6.703  17.100  1.1404 -1.0748 -0.4155
11845TIP3    H257027   4.353   6.665  17.124  0.9402  0.3159  0.6927
11846TIP3   OH257028   1.872   0.233  11.418 -0.1461 -0.1902  0.2465
11846TIP3    H157029   1.781   0.246  11.443 -0.6149  0.1367 -1.5144
11846TIP3    H257030   1.871   0.228  11.323  1.6112 -0.7694  0.2123
11847TIP3   OH257031   0.719   1.224   4.907  0.2906  0.0987  0.3825
11847TIP3    H157032   0.745   1.186   4.822  1.7683 -1.6778  1.5503
11847TIP3    H257033   0.654   1.163   4.942 -1.6951  1.7859 -0.2046
11848TIP3   OH257034   1.867   4.322   4.126  0.8050 -0.3015 -0.0567
11848TIP3    H157035   1.856   4.234   4.090  1.5958  0.3696 -2.1313
11848TIP3    H257036   1.788   4.337   4.178 -0.8436 -1.1423 -2.1370
11849TIP3   OH257037   1.832   1.562  10.852  0.3947  0.6095 -0.9501
11849TIP3    H157038   1.912   1.543  10.900  0.2456 -0.8696 -1.2319
11849TIP3    H257039   1.781   1.618  10.911  1.3988  1.1271 -0.5579
11850TIP3   OH257040   5.095   6.508   3.707  0.4212  0.3771 -0.0527
11850TIP3    H157041   5.026   6.549   3.654  0.9336  1.9760  0.4782
11850TIP3    H257042   5.048   6.443   3.760 -0.5841  1.0026 -0.1491
11851TIP3   OH257043   1.860   1.495  14.222 -0.0264 -0.0923  0.0415
11851TIP3    H157044   1.902   1.421  14.177  1.6833  0.8268  0.0605
11851TIP3    H257045   1.769   1.467  14.233  0.2900 -1.6997 -1.0222
11852TIP3   OH257046   1.104   2.921   5.618 -0.5265  0.5886 -0.4430
11852TIP3    H157047   1.101   2.950   5.709 -0.5694 -0.3378 -0.1353
11852TIP3    H257048   1.121   3.001   5.568 -0.4287  1.0990  0.3785
11853TIP3   OH257049   0.335   4.629  11.773  0.5129 -0.8430 -0.0400
11853TIP3    H157050   0.245   4.611  11.799  0.1807 -0.1025 -0.6601
11853TIP3    H257051   0.344   4.724  11.778  0.7947 -0.7706 -1.4508
11854TIP3   OH257052   5.345   0.207   6.553  0.2263  0.1177 -0.1947
11854TIP3    H157053   5.328   0.284   6.607  0.9438 -0.5470  1.0089
11854TIP3    H257054   5.275   0.146   6.573  0.0033  0.2059 -0.6851
11855TIP3   OH257055   5.795   6.165  13.026  0.1507 -0.4987  0.2961
11855TIP3    H157056   5.701   6.174  13.016  0.0849 -2.1132 -0.8543
11855TIP3    H257057   5.818   6.087  12.976  2.0730 -0.2798  0.7363
11856TIP3   OH257058   0.848   6.521   2.741  0.7412 -0.0169 -0.0918
11856TIP3    H157059   0.934   6.562   2.751 -0.5047  2.3516  1.6945
11856TIP3    H257060   0.804   6.535   2.825 -1.9014  0.0293 -1.3819
11857TIP3   OH257061   2.528   1.733   5.790  0.1750  0.0281 -0.0267
11857TIP3    H157062   2.476   1.652   5.788  0.4438 -0.2643  2.1996
11857TIP3    H257063   2.602   1.712   5.847  0.3131  1.8165  0.5066
11858TIP3   OH257064   3.354   5.927  14.859  0.2305 -0.5555 -0.2602
11858TIP3    H157065   3.401   5.996  14.906 -0.0332 -1.6329  1.6810
11858TIP3    H257066   3.412   5.850  14.864 -1.5753 -1.8895  2.1183
11859TIP3   OH257067   3.333   5.469   3.589 -0.0323 -0.3297  0.1673
11859TIP3    H157068   3.363   5.392   3.638  1.8591 -0.1112 -0.5503
11859TIP3    H257069   3.286   5.522   3.654  3.1329  0.3843  2.1132
11860TIP3   OH257070   5.506   4.282   1.079 -0.6765  0.5210  0.0699
11860TIP3    H157071   5.501   4.378   1.075 -1.8215  0.4177 -1.6565
11860TIP3    H257072   5.556   4.258   1.001 -0.3894 -0.3081  0.5004
11861TIP3   OH257073   5.904   6.339  15.254 -0.0950  0.0319 -0.2052
11861TIP3    H157074   5.864   6.363  15.338 -1.7523 -0.7573 -0.7258
11861TIP3    H257075   5.879   6.410  15.195 -0.1374 -0.1250 -0.3751
11862TIP3   OH257076   4.065   4.387   5.938  0.3875  0.1375  0.1593
11862TIP3    H157077   4.106   4.387   5.851  0.4431  0.2558  0.1856
11862TIP3    H257078   3.973   4.363   5.921  0.6859 -1.1200  0.2055
11863TIP3   OH257079   0.209   6.386   3.679  0.4031 -0.4142  0.1942
11863TIP3    H157080   0.196   6.443   3.604 -1.2473 -0.8501  0.1161
11863TIP3    H257081   0.170   6.433   3.753 -1.3827 -1.5891  0.0441
11864TIP3   OH257082   0.089   6.253  16.863 -0.3791 -0.9466  0.3354
11864TIP3    H157083   0.054   6.165  16.854  0.3355 -1.0960 -1.4146
11864TIP3    H257084   0.181   6.241  16.885 -0.2298 -0.6535 -0.1105
11865TIP3   OH257085   3.229   6.624   1.895  0.2136 -1.0124 -0.0534
11865TIP3    H157086   3.277   6.574   1.830 -1.7491 -0.6496 -1.9008
11865TIP3    H257087   3.139   6.627   1.861 -1.0282 -1.1570  2.8832
11866TIP3   OH257088   3.237   4.680   0.990  0.2961 -0.6140 -0.1820
11866TIP3    H157089   3.324   4.675   0.951  1.2822 -2.4640  2.0658
11866TIP3    H257090   3.250   4.725   1.073 -1.1822  0.3482 -0.4250
11867TIP3   OH257091   0.459   4.778  15.588  0.4630 -0.5369 -0.1659
11867TIP3    H157092   0.548   4.794  15.558  0.3808 -1.9811 -1.3308
11867TIP3    H257093   0.408   4.770  15.508 -0.6492 -0.1002  0.4810
11868TIP3   OH257094   3.723   5.073   0.935  0.0153  0.1941  0.1339
11868TIP3    H157095   3.808   5.100   0.899 -0.2168  0.9509  0.1379
11868TIP3    H257096   3.701   4.993   0.888  1.6145 -1.0806  1.4203
11869TIP3   OH257097   3.010   6.263   0.298 -0.4202 -0.9001  0.3239
11869TIP3    H157098   3.030   6.241   0.207 -1.6964 -1.8941  0.2462
11869TIP3    H257099   3.063   6.341   0.316  0.7152 -1.3364 -0.9035
11870TIP3   OH257100   1.459   1.466  13.208  0.2463 -0.4877 -0.4563
11870TIP3    H157101   1.542   1.498  13.174  2.2265 -2.7046  1.9263
11870TIP3    H257102   1.452   1.503  13.296 -0.2696 -1.9033  0.1322
11871TIP3   OH257103   0.819   1.155   4.660 -1.0404  0.5948  0.0228
11871TIP3    H157104   0.888   1.092   4.639 -1.6659  0.3220 -1.3199
11871TIP3    H257105   0.792   1.189   4.575 -0.1661  3.3063  0.7356
11872TIP3   OH257106   3.225   3.366   1.854 -0.2541  0.1302 -0.3063
11872TIP3    H157107   3.227   3.461   1.838  1.9268  0.2692  0.4779
11872TIP3    H257108   3.196   3.357   1.944 -0.3596  0.0505 -0.3476
11873TIP3   OH257109   3.209   4.207  12.308 -0.5114  0.3294 -0.2455
11873TIP3    H157110   3.214   4.180  12.400 -1.2660 -0.9112 -0.5418
11873TIP3    H257111   3.280   4.158  12.265  0.5793  1.7647 -0.1605
11874TIP3   OH257112   2.935   5.184   4.336  0.4670 -0.4666 -0.1142
11874TIP3    H157113   2.863   5.242   4.359  0.9581  0.7764 -1.5109
11874TIP3    H257114   2.939   5.120   4.407 -0.0169  1.2861  1.5639
11875TIP3   OH257115   1.136   0.437  10.256 -0.0852 -0.6537 -1.0070
11875TIP3    H157116   1.069   0.381  10.218 -0.5803 -0.2215 -0.7794
11875TIP3    H257117   1.102   0.461  10.342  1.6507 -2.8184  0.3847
11876TIP3   OH257118   6.305   3.716  13.258  0.0233  0.3287  0.3692
11876TIP3    H157119   6.304   3.787  13.194  0.6376 -1.0012 -1.1997
11876TIP3    H257120   6.299   3.636  13.205  1.6421 -0.8690  1.8717
11877TIP3   OH257121   5.259   5.413   1.380 -0.4978 -0.5212  0.1255
11877TIP3    H157122   5.219   5.439   1.297 -0.0094 -0.1950 -0.0083
11877TIP3    H257123   5.350   5.394   1.359  1.1857  4.4729  1.3217
11878TIP3   OH257124   6.394   5.204  16.628  0.3332  0.0391 -0.0825
11878TIP3    H157125   6.464   5.270  16.621  1.5175 -1.2387 -0.8510
11878TIP3    H257126   6.318   5.245  16.589  0.6904  1.4190  0.6112
11879TIP3   OH257127   0.222   5.893  13.070  0.5105  0.1469 -0.2250
11879TIP3    H157128   0.311   5.913  13.100  1.3923 -1.3380 -1.7069
11879TIP3    H257129   0.179   5.979  13.066  0.6249  0.6265  3.9628
11880TIP3   OH257130   2.804   5.499  16.996  0.1409 -0.4109  0.0580
11880TIP3    H157131   2.852   5.571  16.955 -0.7054  0.5632  0.7345
11880TIP3    H257132   2.745   5.468  16.928  1.7939 -1.7631 -0.8581
11881TIP3   OH257133   1.291   5.743  14.140 -0.5641 -0.1220  0.5314
11881TIP3    H157134   1.351   5.730  14.067  1.4224  1.5623  1.7440
11881TIP3    H257135   1.291   5.659  14.186  1.0675 -0.1293  0.5901
11882TIP3   OH257136   2.368   2.109  15.834 -0.4029 -0.1371  0.0354
11882TIP3    H157137   2.340   2.196  15.863 -0.2547 -0.5224  1.4059
11882TIP3    H257138   2.463   2.116  15.823 -0.2337 -0.4143  1.2504
11883TIP3   OH257139   2.877   6.530   5.131  0.7031 -0.3796  0.5016
11883TIP3    H157140   2.788   6.496   5.131  0.4421  0.2728 -0.0856
11883TIP3    H257141   2.872   6.612   5.082  1.4316  0.1886  1.3279
11884TIP3   OH257142   3.260   6.443   4.943 -0.8683  0.0331 -0.5704
11884TIP3    H157143   3.291   6.526   4.980 -1.0452 -0.1818  0.0703
11884TIP3    H257144   3.338   6.404   4.902 -0.4353 -0.2000  0.4619
11885TIP3   OH257145   5.025   3.976   0.443  0.4660  0.4408 -0.1284
11885TIP3    H157146   4.994   3.949   0.357 -0.0021 -1.5801  0.6199
11885TIP3    H257147   4.945   3.986   0.496  0.7198  2.0024  0.0191
11886TIP3   OH257148   4.995   4.839   1.426  0.2192 -0.2377 -0.1842
11886TIP3    H157149   4.986   4.927   1.462  0.3402 -0.1910 -0.2689
11886TIP3    H257150   5.028   4.786   1.499 -1.2302 -0.5270  0.2939
11887TIP3   OH257151   1.136   0.737  16.289 -0.5131 -0.0661  0.0675
11887TIP3    H157152   1.200   0.675  16.323 -1.2044 -0.2482  1.0627
11887TIP3    H257153   1.164   0.822  16.324 -1.9059 -0.4177  2.1679
11888TIP3   OH257154   6.039   3.048   1.280  0.2185  0.1492 -0.0156
11888TIP3    H157155   6.078   3.109   1.217 -1.7943 -0.0667 -1.5821
11888TIP3    H257156   6.090   2.968   1.270  0.3138  0.3111 -0.9475
11889TIP3   OH257157   4.660   3.714  15.175 -0.1591 -0.4924  0.7172
11889TIP3    H157158   4.601   3.683  15.106 -0.1824 -2.8074  1.7007
11889TIP3    H257159   4.709   3.637  15.202 -0.1524  0.3149  3.3068
11890TIP3   OH257160   4.967   4.052  14.822  0.4147  0.4608  0.0500
11890TIP3    H157161   4.931   3.964  14.829 -0.7407  0.8223 -0.9121
11890TIP3    H257162   4.959   4.088  14.911 -0.6496  0.1496  0.1018
11891TIP3   OH257163   4.744   0.295   0.173 -0.1346 -0.6780 -0.5273
11891TIP3    H157164   4.790   0.379   0.183 -0.2693 -0.8742  2.7177
11891TIP3    H257165   4.813   0.232   0.152  0.3001 -0.1239 -0.7841
11892TIP3   OH257166   3.621   4.826   2.688 -0.2207  0.3961  0.3138
11892TIP3    H157167   3.638   4.917   2.664  0.5729  0.5322  1.3254
11892TIP3    H257168   3.599   4.829   2.781  0.3934 -0.4986  0.5002
11893TIP3   OH257169   4.788   6.034   2.485  0.1147  0.1182  0.4917
11893TIP3    H157170   4.736   5.955   2.500 -0.7287  0.6288  0.2943
11893TIP3    H257171   4.742   6.103   2.532 -0.0758  0.8306 -0.7058
11894TIP3   OH257172   0.550   5.510  12.391 -0.2626 -0.7222  0.5577
11894TIP3    H157173   0.644   5.525  12.397 -0.0887 -1.9123  1.1873
11894TIP3    H257174   0.514   5.591  12.355  1.0327 -0.3609  0.0558
11895TIP3   OH257175   2.968   6.360  13.172  0.1363  0.0808  0.2920
11895TIP3    H157176   2.911   6.419  13.221  0.4523 -0.1369  0.9274
11895TIP3    H257177   2.926   6.352  13.087  0.7167  2.2262 -0.2769
11896TIP3   OH257178   2.686   2.871   5.380  0.8656 -0.2427  0.6451
11896TIP3    H157179   2.662   2.881   5.288  0.9508  2.5813  0.8671
11896TIP3    H257180   2.769   2.822   5.378  0.0248 -1.7017 -0.6338
11897TIP3   OH257181   1.532   5.659   4.794 -0.2950  0.5739  0.5757
11897TIP3    H157182   1.517   5.589   4.858  0.2093 -0.3167 -0.2320
11897TIP3    H257183   1.504   5.739   4.837 -1.4081 -0.2025  1.3457
11898TIP3   OH257184   5.940   1.329   3.916 -0.2660 -0.0108  0.1581
11898TIP3    H157185   5.998   1.360   3.847 -2.2672 -0.2597 -1.7563
11898TIP3    H257186   5.930   1.235   3.900 -2.1293  0.2279 -0.3961
11899TIP3   OH257187   3.003   4.809  14.945  0.4503  0.0713 -0.3728
11899TIP3    H157188   3.087   4.769  14.964 -0.1145 -0.7169  0.5774
11899TIP3    H257189   2.944   4.736  14.927 -0.4540  0.4726  0.7903
11900TIP3   OH257190   1.623   3.045   0.166  0.7284  0.3296 -0.0392
11900TIP3    H157191   1.712   3.036   0.200  0.4611  0.2330  0.6547
11900TIP3    H257192   1.627   3.008   0.077  1.3957  0.4134 -0.0471
11901TIP3   OH257193   5.805   3.092  15.071 -0.6219 -0.1274 -0.2609
11901TIP3    H157194   5.891   3.050  15.074  0.1052  1.3067 -0.3358
11901TIP3    H257195   5.817   3.167  15.013 -2.1922 -0.4539 -1.0684
11902TIP3   OH257196   6.550   3.878  12.869  0.3565 -0.1967  0.2116
11902TIP3    H157197   6.570   3.794  12.828  1.5695 -0.9330  2.1790
11902TIP3    H257198   6.547   3.940  12.796  0.3974 -1.7641 -1.1835
11903TIP3   OH257199   4.711   5.117  14.397 -0.1633 -0.0453 -0.1168
11903TIP3    H157200   4.682   5.208  14.388 -0.2133  0.0642  1.0368
11903TIP3    H257201   4.664   5.070  14.328  0.3822  0.9100 -1.1670
11904TIP3   OH257202   0.323   2.760   2.485  0.0145 -0.2841 -0.0216
11904TIP3    H157203   0.411   2.797   2.491 -0.5525  0.8753  2.3156
11904TIP3    H257204   0.266   2.824   2.528 -2.1411 -0.6357 -2.1230
11905TIP3   OH257205   6.482   4.913   5.091  0.3480 -0.1567 -0.0637
11905TIP3    H157206   6.451   4.904   5.181  1.4227 -2.0708  0.1729
11905TIP3    H257207   6.567   4.870   5.090 -0.0530 -1.0693 -2.1965
11906TIP3   OH257208   0.407   2.149   5.899  1.0595 -0.2395 -0.6265
11906TIP3    H157209   0.376   2.225   5.849  1.2320 -0.3875 -0.9632
11906TIP3    H257210   0.327   2.111   5.937  0.6712 -1.2029 -2.3004
11907TIP3   OH257211   4.161   3.187  11.643 -0.7016 -0.1421 -0.5715
11907TIP3    H157212   4.107   3.153  11.714 -0.3639 -1.0715 -0.7354
11907TIP3    H257213   4.250   3.158  11.665 -0.5219 -0.0170 -1.1237
11908TIP3   OH257214   4.233   3.375   2.827 -0.0793 -0.0391  0.3177
11908TIP3    H157215   4.203   3.452   2.874  0.8155  0.6206 -0.1689
11908TIP3    H257216   4.274   3.409   2.748 -0.2689 -1.0553 -0.2331
11909TIP3   OH257217   6.532   3.380  16.494  0.0837 -0.0805  0.4430
11909TIP3    H157218   6.535   3.473  16.471  0.9374 -0.5997 -1.8714
11909TIP3    H257219   6.593   3.339  16.433 -2.0910 -2.4732 -0.3087
11910TIP3   OH257220   1.815   5.499  11.263  0.1269 -0.4038  0.2315
11910TIP3    H157221   1.750   5.469  11.200  1.6245 -0.3216 -1.4538
11910TIP3    H257222   1.869   5.422  11.281  1.7983  0.2885 -1.3504
11911TIP3   OH257223   3.356   0.834   3.219  0.6910  0.7125 -0.3424
11911TIP3    H157224   3.422   0.850   3.286 -0.0302  0.6126  0.4062
11911TIP3    H257225   3.279   0.805   3.267  0.3799 -0.0865 -1.2670
11912TIP3   OH257226   5.686   2.837   1.228  0.5190  0.4980 -0.7420
11912TIP3    H157227   5.769   2.794   1.245  0.5471  1.7082  3.1180
11912TIP3    H257228   5.676   2.834   1.133  4.9584  0.3885 -1.3998
11913TIP3   OH257229   3.978   3.409   3.261 -0.4516  0.2098 -0.4460
11913TIP3    H157230   3.908   3.475   3.263  0.5794  1.3325  0.4041
11913TIP3    H257231   3.964   3.363   3.179 -1.9853  0.6257 -0.4569
11914TIP3   OH257232   0.456   3.169   2.997 -0.4288 -0.1549 -1.1645
11914TIP3    H157233   0.492   3.188   2.910  1.5236 -0.6370 -0.5129
11914TIP3    H257234   0.369   3.133   2.980 -0.1707 -0.0292 -2.8993
11915TIP3   OH257235   3.316   2.532   0.352 -0.4898 -0.0098 -0.6081
11915TIP3    H157236   3.292   2.607   0.297 -2.0980 -0.6470 -0.8515
11915TIP3    H257237   3.272   2.549   0.435  0.9327  0.3527  0.0884
11916TIP3   OH257238   6.796   2.691  14.738 -0.4045  0.1626  0.3233
11916TIP3    H157239   6.760   2.610  14.775 -0.7609  0.3645  0.4282
11916TIP3    H257240   6.725   2.755  14.749  0.5531  0.9918  1.9583
11917TIP3   OH257241   4.938   6.239   2.888  0.0410  0.6501  0.0868
11917TIP3    H157242   4.861   6.295   2.879 -1.5613 -1.6147 -1.0317
11917TIP3    H257243   4.972   6.229   2.799  0.2827 -0.1938  0.2670
11918TIP3   OH257244   3.098   5.908  15.152 -0.1274 -0.5564  0.4186
11918TIP3    H157245   3.049   5.828  15.168 -1.2874 -0.1530 -0.9058
11918TIP3    H257246   3.043   5.977  15.189 -0.5052 -0.1157 -0.9227
11919TIP3   OH257247   6.694   4.889   6.290  0.2939  0.2145 -0.6183
11919TIP3    H157248   6.783   4.923   6.299  1.0307 -1.7327 -0.2153
11919TIP3    H257249   6.658   4.890   6.378  0.6880 -0.9493 -0.4275
11920TIP3   OH257250   5.128   5.967   1.234 -0.5411  0.0290  0.1738
11920TIP3    H157251   5.123   6.059   1.209 -0.9771 -0.3241 -1.1449
11920TIP3    H257252   5.054   5.926   1.188  0.8426 -1.3226 -0.9606
11921TIP3   OH257253   4.889   5.583  14.742 -0.5781 -0.5339  0.7348
11921TIP3    H157254   4.896   5.585  14.647  0.0038  0.9344  0.7875
11921TIP3    H257255   4.979   5.572  14.773 -0.6557 -0.1507  1.1176
11922TIP3   OH257256   6.055   2.493  10.972 -0.2153 -0.2463 -0.6306
11922TIP3    H157257   5.971   2.470  10.932  0.5072 -1.4663 -1.5131
11922TIP3    H257258   6.092   2.559  10.914 -0.6368  0.4504 -0.1251
11923TIP3   OH257259   6.698   5.902  14.226 -0.7103 -0.3168 -0.4507
11923TIP3    H157260   6.668   5.965  14.292 -0.1683 -0.3535 -0.1667
11923TIP3    H257261   6.773   5.945  14.184 -1.0008 -0.3278 -0.9880
11924TIP3   OH257262   2.603   5.652   2.051 -0.2171  0.6726 -0.5539
11924TIP3    H157263   2.541   5.580   2.060  1.5092 -0.9433 -0.9589
11924TIP3    H257264   2.573   5.701   1.975 -0.5046 -0.6214 -1.2974
11925TIP3   OH257265   4.641   0.151   3.594 -0.5086 -0.3077 -0.1913
11925TIP3    H157266   4.734   0.133   3.576 -0.2069  0.0872  0.9130
11925TIP3    H257267   4.603   0.167   3.507  0.4525 -0.4714 -0.6613
11926TIP3   OH257268   6.749   0.121   5.770  0.1815 -0.5084 -0.2145
11926TIP3    H157269   6.713   0.038   5.802  0.0285 -0.3522  0.0231
11926TIP3    H257270   6.693   0.143   5.695 -1.3207  0.5847  1.1742
11927TIP3   OH257271   0.198   1.053   4.138  0.1970 -0.4978 -0.2335
11927TIP3    H157272   0.285   1.063   4.177 -0.0835  0.4124  0.2073
11927TIP3    H257273   0.208   1.083   4.047  0.3449 -0.3670 -0.1736
11928TIP3   OH257274   5.196   6.234   3.841 -0.1486  0.0675 -0.4311
11928TIP3    H157275   5.231   6.203   3.924 -0.6539 -0.4397 -0.4044
11928TIP3    H257276   5.175   6.326   3.857 -0.3174 -0.0497  0.0268
11929TIP3   OH257277   0.360   3.997  13.134 -0.9843  0.1717  0.1033
11929TIP3    H157278   0.290   3.995  13.070 -2.9600  3.0723  1.9293
11929TIP3    H257279   0.418   4.067  13.105 -1.0691  0.4905  0.6821
11930TIP3   OH257280   6.226   5.454   1.157  0.4576 -0.6446 -0.8428
11930TIP3    H157281   6.303   5.506   1.181  0.6446 -0.4685 -1.7881
11930TIP3    H257282   6.152   5.501   1.195  0.6530  0.1938 -1.4725
11931TIP3   OH257283   5.728   6.682  12.868 -0.0773  0.1737  0.3451
11931TIP3    H157284   5.775   6.599  12.871  0.5584  0.5381  0.5174
11931TIP3    H257285   5.769   6.736  12.936 -0.0359  0.8649 -0.2210
11932TIP3   OH257286   3.733   0.651  13.981 -0.4968  0.0298  0.3385
11932TIP3    H157287   3.743   0.744  13.959  2.1652  0.2567  2.0311
11932TIP3    H257288   3.755   0.605  13.900 -0.3809  0.8713 -0.1269
11933TIP3   OH257289   5.986   4.949   1.232 -0.1944  0.3991  0.0819
11933TIP3    H157290   5.928   4.881   1.266 -0.2492  0.4921  0.1736
11933TIP3    H257291   6.069   4.903   1.215 -0.7707 -0.1041 -1.6161
11934TIP3   OH257292   3.928   6.100  12.694 -0.5514 -0.1796  0.7074
11934TIP3    H157293   3.870   6.114  12.769  0.9538 -0.6013  2.0023
11934TIP3    H257294   3.872   6.063  12.626 -1.7922 -0.5374  1.8947
11935TIP3   OH257295   0.152   0.682   6.361  0.0055 -0.2302  0.0503
11935TIP3    H157296   0.163   0.769   6.323 -0.7845 -0.0902  0.1295
11935TIP3    H257297   0.238   0.642   6.354  0.4890  0.7138  0.4054
11936TIP3   OH257298   1.365   4.232   1.789  0.2742  0.1429  0.3024
11936TIP3    H157299   1.359   4.293   1.715  1.3523  1.8307  1.5248
11936TIP3    H257300   1.282   4.241   1.835  0.0708 -0.0138 -0.0302
11937TIP3   OH257301   0.672   3.378   3.358  0.2178 -0.5508 -0.5892
11937TIP3    H157302   0.754   3.428   3.355  0.4564 -0.8691  0.3800
11937TIP3    H257303   0.697   3.291   3.327  0.4841 -0.9466  0.7004
11938TIP3   OH257304   2.284   5.650  13.473  0.4831 -0.0158 -0.1988
11938TIP3    H157305   2.192   5.676  13.466  0.9765  1.3489 -2.7085
11938TIP3    H257306   2.333   5.729  13.449  2.3414 -0.7823  0.8714
11939TIP3   OH257307   0.574   3.117  16.770  0.2688  0.0666 -0.2015
11939TIP3    H157308   0.577   3.128  16.865  1.8482 -0.9199 -0.1132
11939TIP3    H257309   0.561   3.023  16.757  0.3347  0.1551 -0.9655
11940TIP3   OH257310   5.036   0.144   3.788 -0.0890 -0.0428  0.2415
11940TIP3    H157311   4.956   0.186   3.755  1.3794  1.3850 -1.6874
11940TIP3    H257312   5.070   0.206   3.853  0.5623  0.3951 -0.5060
11941TIP3   OH257313   4.702   3.986  13.681 -0.1380 -0.1097 -0.3035
11941TIP3    H157314   4.626   3.944  13.722  0.1853  1.5349  2.2498
11941TIP3    H257315   4.673   4.076  13.663  0.4852 -0.1510 -1.6144
11942TIP3   OH257316   5.848   4.590  16.882  0.1499 -0.3153 -0.0840
11942TIP3    H157317   5.762   4.568  16.917  0.1229  0.0590  0.0967
11942TIP3    H257318   5.865   4.524  16.815 -0.1656 -0.5421  0.0578
11943TIP3   OH257319   2.830   4.167  12.545  0.1091  0.3546  0.4945
11943TIP3    H157320   2.789   4.081  12.558 -0.8176  0.7647  0.3949
11943TIP3    H257321   2.815   4.213  12.627 -0.4412  0.8299  0.1356
11944TIP3   OH257322   5.447   2.038   0.326  0.0787  0.3880  0.5477
11944TIP3    H157323   5.469   2.131   0.329 -0.8495  0.6728 -0.7560
11944TIP3    H257324   5.490   2.005   0.247 -1.3663  0.2156 -0.1984
11945TIP3   OH257325   6.040   6.283  13.553  0.5405  0.2416  0.1025
11945TIP3    H157326   6.061   6.220  13.483  1.2672 -0.5102  0.9786
11945TIP3    H257327   6.124   6.320  13.578  0.2171  0.9254  0.2056
11946TIP3   OH257328   1.854   6.750   2.644  0.4426  0.2585 -0.1899
11946TIP3    H157329   1.795   6.825   2.637  0.6735  0.3048 -2.2915
11946TIP3    H257330   1.888   6.737   2.555  0.8240 -2.0056  0.2134
11947TIP3   OH257331   6.122   2.193   1.244  0.0530 -0.4762  0.0630
11947TIP3    H157332   6.088   2.164   1.328  1.3819 -1.2089  0.3871
11947TIP3    H257333   6.178   2.120   1.215 -0.0841 -0.0773 -1.2676
11948TIP3   OH257334   5.577   3.747   4.274 -0.0192 -1.0213  0.3982
11948TIP3    H157335   5.599   3.658   4.302  0.1787 -0.7508  1.0933
11948TIP3    H257336   5.574   3.798   4.354  2.8674  0.2872 -0.2197
11949TIP3   OH257337   5.200   3.791  16.921  0.3597 -0.2397 -0.1991
11949TIP3    H157338   5.206   3.695  16.914 -0.8177 -0.5163  1.8646
11949TIP3    H257339   5.139   3.806  16.993 -0.7627  2.0895 -1.5292
11950TIP3   OH257340   0.496   4.575   1.861 -0.5010  0.0919 -0.2123
11950TIP3    H157341   0.522   4.665   1.877  0.1709 -0.4151  1.9598
11950TIP3    H257342   0.539   4.551   1.778  0.0434  1.4786 -0.3497
11951TIP3   OH257343   3.542   6.109  12.639 -0.0614  0.1760  0.5297
11951TIP3    H157344   3.505   6.026  12.670  1.3370  0.0095  1.8386
11951TIP3    H257345   3.597   6.085  12.565 -0.2480  0.0466  0.4317
11952TIP3   OH257346   4.728   3.552   3.356 -0.2514  0.5688  0.3307
11952TIP3    H157347   4.751   3.628   3.303  1.3452  1.2063  1.8447
11952TIP3    H257348   4.652   3.580   3.407  0.8503  1.5437  1.5278
11953TIP3   OH257349   1.043   4.287   5.761  0.8251 -0.2597 -0.0013
11953TIP3    H157350   1.107   4.277   5.690 -0.8109 -0.5498 -1.4876
11953TIP3    H257351   0.993   4.365   5.738  0.2626 -0.3573  0.8574
11954TIP3   OH257352   0.032   5.921  11.455 -0.1253 -0.6455 -0.0744
11954TIP3    H157353  -0.030   5.928  11.528  0.8549 -0.5098  0.7748
11954TIP3    H257354   0.022   6.003  11.407 -1.2008 -0.9870 -0.4479
11955TIP3   OH257355   0.760   0.161   4.066  0.2120 -0.3421  0.2700
11955TIP3    H157356   0.828   0.132   4.127  1.4704  0.2859 -0.7940
11955TIP3    H257357   0.803   0.161   3.980 -1.1852 -0.0761 -0.4586
11956TIP3   OH257358   3.935   2.531   0.200 -0.0311  0.2294 -0.1119
11956TIP3    H157359   3.853   2.535   0.250 -0.0833 -0.0100 -0.1744
11956TIP3    H257360   3.919   2.464   0.134  0.8316 -1.1489  1.0225
11957TIP3   OH257361   0.752   4.207   5.887  0.1263 -0.2530  0.4502
11957TIP3    H157362   0.758   4.292   5.843 -0.3496 -0.7810 -0.6876
11957TIP3    H257363   0.720   4.228   5.975 -0.9733  0.6825 -0.1287
11958TIP3   OH257364   0.607   1.042  16.261 -0.2650 -0.0774 -0.3670
11958TIP3    H157365   0.558   1.120  16.287 -0.0122  0.0989 -0.4089
11958TIP3    H257366   0.618   0.992  16.341  1.3867  0.9508  0.1088
11959TIP3   OH257367   6.158   2.897   3.420  0.1545  0.3434  0.0167
11959TIP3    H157368   6.132   2.979   3.379 -0.3900 -0.2413 -0.8381
11959TIP3    H257369   6.092   2.833   3.392  0.8666 -0.5121  0.2170
11960TIP3   OH257370   5.258   3.780   2.828 -0.4265  0.4482  0.1428
11960TIP3    H157371   5.316   3.855   2.817 -1.4279  1.2090 -0.1740
11960TIP3    H257372   5.269   3.754   2.919  0.6883  0.3221 -0.0173
11961TIP3   OH257373   3.510   2.814  13.353  0.4665  0.1017  0.9590
11961TIP3    H157374   3.453   2.875  13.305 -0.2061 -1.1025  0.1898
11961TIP3    H257375   3.464   2.800  13.436  0.8153  0.9045  1.3075
11962TIP3   OH257376   3.208   2.212  14.299  0.4599 -0.6421  0.2984
11962TIP3    H157377   3.273   2.189  14.233 -0.2629  1.7002 -1.4085
11962TIP3    H257378   3.259   2.238  14.376  1.4883 -0.3148 -0.4729
11963TIP3   OH257379   1.094   4.336  14.595  0.6092 -0.4813  0.4006
11963TIP3    H157380   1.123   4.424  14.573 -0.6543 -0.0464  0.4258
11963TIP3    H257381   1.062   4.300  14.512  1.8995 -1.2481  0.2070
11964TIP3   OH257382   3.325   4.946   5.507 -0.0701  0.9554 -0.0298
11964TIP3    H157383   3.419   4.957   5.522 -0.0884 -1.0745  1.9576
11964TIP3    H257384   3.319   4.892   5.428  0.5473 -0.7537  1.0525
11965TIP3   OH257385   0.299   3.030  14.734  0.2261  0.0931 -0.0691
11965TIP3    H157386   0.207   3.055  14.725 -0.0498 -0.8638  0.0252
11965TIP3    H257387   0.323   2.996  14.648  0.7496  1.1141 -0.3464
11966TIP3   OH257388   2.380   2.249   2.950  1.0143 -0.1625 -0.3751
11966TIP3    H157389   2.420   2.183   3.006 -1.0719  0.3424  1.8670
11966TIP3    H257390   2.424   2.331   2.973  1.6487 -0.3025 -1.0778
11967TIP3   OH257391   4.683   2.568  11.437 -0.2261 -0.0509 -0.3250
11967TIP3    H157392   4.709   2.554  11.346 -2.6683  1.9030 -1.4569
11967TIP3    H257393   4.642   2.655  11.437 -1.6873 -0.6277  2.3239
11968TIP3   OH257394   1.526   4.469   5.792  0.5413  0.0923 -0.2583
11968TIP3    H157395   1.507   4.563   5.797 -0.4837  0.0303 -1.9979
11968TIP3    H257396   1.519   4.439   5.883  0.0761  1.5552  0.2335
11969TIP3   OH257397   6.039   0.270  14.869  0.2071  0.3368 -0.2425
11969TIP3    H157398   5.997   0.288  14.785  0.0543  0.8636 -0.0572
11969TIP3    H257399   6.131   0.291  14.854  0.3737 -0.5890 -0.5800
11970TIP3   OH257400   4.213   0.793   3.027  0.5639  0.4057 -0.1884
11970TIP3    H157401   4.159   0.749   2.961  1.0939  0.0590 -0.3990
11970TIP3    H257402   4.159   0.866   3.057 -0.5569 -0.6608  0.5284
11971TIP3   OH257403   4.163   4.187  16.333 -0.8992  0.2571 -0.2804
11971TIP3    H157404   4.203   4.274  16.339 -0.3405 -0.0622  0.9569
11971TIP3    H257405   4.195   4.141  16.410 -1.2745 -1.0217 -0.8711
11972TIP3   OH257406   0.985   6.513  13.149 -0.0398 -0.0941  0.2743
11972TIP3    H157407   1.007   6.420  13.153 -0.3913 -0.1295  3.0797
11972TIP3    H257408   0.896   6.519  13.185 -1.4141  1.0436 -2.8718
11973TIP3   OH257409   4.610   1.867   3.295  0.6881  0.2741  0.0335
11973TIP3    H157410   4.529   1.907   3.265  0.5157  1.6927  2.1711
11973TIP3    H257411   4.678   1.905   3.239  0.3982  2.8681  1.3214
11974TIP3   OH257412   3.698   2.069  13.339  0.2941  0.4634  0.5732
11974TIP3    H157413   3.758   2.021  13.396  0.7864 -0.2686 -0.5182
11974TIP3    H257414   3.646   2.000  13.297  0.6662  0.8961 -0.6378
11975TIP3   OH257415   5.933   5.749   4.740  0.6356  0.2780 -0.2785
11975TIP3    H157416   5.985   5.800   4.677 -1.3150  0.5222 -1.7768
11975TIP3    H257417   5.846   5.745   4.701 -0.3813 -0.4842  1.9379
11976TIP3   OH257418   0.792   4.840   1.345  0.4776 -0.0283 -0.1908
11976TIP3    H157419   0.746   4.923   1.358 -1.1938 -0.8923 -0.2833
11976TIP3    H257420   0.728   4.784   1.300  1.8935 -1.0603 -0.9846
11977TIP3   OH257421   6.793   0.107   4.870  0.3565 -0.3491  0.5447
11977TIP3    H157422   6.843   0.188   4.882  0.2724 -0.0292 -1.0178
11977TIP3    H257423   6.725   0.111   4.936  0.9021  0.4152  1.0855
11978TIP3   OH257424   6.328   4.220   4.796  0.1585  0.0567  0.1633
11978TIP3    H157425   6.321   4.144   4.738  0.0025  0.0997  0.1256
11978TIP3    H257426   6.390   4.278   4.752 -0.1538  0.2036 -0.0894
11979TIP3   OH257427   1.547   5.377   1.078  0.1626 -0.1544 -0.4466
11979TIP3    H157428   1.589   5.301   1.119 -1.7558 -0.5366  0.9375
11979TIP3    H257429   1.577   5.452   1.128  1.0051 -0.1291 -0.9658
11980TIP3   OH257430   2.703   3.031  14.174  0.1440  1.0989 -0.1542
11980TIP3    H157431   2.695   2.967  14.245  1.7222 -0.8347 -1.6078
11980TIP3    H257432   2.700   3.116  14.219 -1.8205  0.0707  1.8752
11981TIP3   OH257433   1.238   2.926  11.228 -0.1235 -0.1586 -0.7699
11981TIP3    H157434   1.304   2.966  11.172 -0.9771  1.5861 -0.6133
11981TIP3    H257435   1.278   2.924  11.315 -0.0064  0.2328 -0.8121
11982TIP3   OH257436   0.845   2.120  11.735 -0.4248  0.1813 -0.4250
11982TIP3    H157437   0.756   2.132  11.770 -0.1215  1.2059  0.0550
11982TIP3    H257438   0.898   2.098  11.811 -0.3266 -0.8422 -0.7756
11983TIP3   OH257439   3.647   5.076  13.878 -0.2074 -0.4964  0.0387
11983TIP3    H157440   3.642   5.144  13.945  0.2778  0.2377 -0.6625
11983TIP3    H257441   3.571   5.020  13.895 -0.1316 -0.2818  1.1513
11984TIP3   OH257442   3.486   2.090  16.100  0.3229  0.9281  0.5693
11984TIP3    H157443   3.554   2.065  16.038  0.7268 -0.9884  1.7204
11984TIP3    H257444   3.409   2.040  16.073  0.3261  0.5528  1.2289
11985TIP3   OH257445   5.832   5.768   5.212 -0.3233 -0.4286 -0.5235
11985TIP3    H157446   5.782   5.777   5.294 -0.5744  0.6893 -0.7800
11985TIP3    H257447   5.909   5.824   5.225 -1.2261  1.1711 -1.6738
11986TIP3   OH257448   0.909   1.202  17.196  0.6616 -0.5441  0.0832
11986TIP3    H157449   0.884   1.220  17.105 -0.2646  0.6529  0.5470
11986TIP3    H257450   0.993   1.247  17.207 -1.1603  3.0106  0.9393
11987TIP3   OH257451   5.504   0.153   2.880 -0.1563  0.8082  0.0259
11987TIP3    H157452   5.556   0.170   2.801 -2.5546  1.2047 -1.5872
11987TIP3    H257453   5.428   0.210   2.871 -2.1892 -1.5869  0.8838
11988TIP3   OH257454   3.821   6.053   2.327 -0.3179 -0.1415  0.0673
11988TIP3    H157455   3.902   6.095   2.355 -2.2205  3.2637  1.0464
11988TIP3    H257456   3.796   6.101   2.248 -2.7915  0.9688  1.4214
11989TIP3   OH257457   4.619   1.840   0.853  0.5515  0.0214  0.1516
11989TIP3    H157458   4.644   1.929   0.880  0.8357 -0.3280  1.0645
11989TIP3    H257459   4.624   1.788   0.933  1.0784 -0.9728 -0.5055
11990TIP3   OH257460   4.847   4.606  14.195  0.0478  0.4329 -0.1817
11990TIP3    H157461   4.841   4.661  14.273  1.1810  0.7836 -0.3316
11990TIP3    H257462   4.858   4.517  14.229 -0.3292  0.4771  0.0569
11991TIP3   OH257463   2.768   6.682  13.473 -0.0100 -0.4695 -0.1236
11991TIP3    H157464   2.789   6.594  13.504  0.7207 -0.3014 -0.1103
11991TIP3    H257465   2.791   6.681  13.380 -0.9176 -0.5748 -0.3511
11992TIP3   OH257466   5.523   0.730   4.713  0.6748 -0.1237  0.1770
11992TIP3    H157467   5.583   0.747   4.785  0.2636  0.1287  0.4577
11992TIP3    H257468   5.449   0.684   4.753 -1.2525  3.0881  0.6183
11993TIP3   OH257469   4.910   0.360  13.537 -0.0738  0.4101  0.1326
11993TIP3    H157470   4.848   0.384  13.468  0.9815  1.7247 -0.4118
11993TIP3    H257471   4.958   0.285  13.502  1.0692  1.6145 -0.9991
11994TIP3   OH257472   1.600   6.327   4.998 -0.0901  0.2488 -0.1158
11994TIP3    H157473   1.574   6.372   5.078  0.7511 -1.8502  1.4517
11994TIP3    H257474   1.680   6.279   5.023 -0.4821 -1.4154 -1.8597
11995TIP3   OH257475   4.535   1.766  16.534 -0.4570 -0.0399  0.0485
11995TIP3    H157476   4.453   1.800  16.499 -0.1243 -0.3831 -1.1312
11995TIP3    H257477   4.551   1.686  16.483  1.2746  0.7341 -0.7186
11996TIP3   OH257478   5.691   5.914   2.822 -1.1053 -0.0869  0.6003
11996TIP3    H157479   5.673   5.820   2.811 -0.2152 -0.3508  1.2979
11996TIP3    H257480   5.615   5.948   2.869 -0.8339 -0.7311  1.5302
11997TIP3   OH257481   3.956   1.336  12.532  0.6987  0.4536  0.2694
11997TIP3    H157482   3.943   1.353  12.438  0.3625 -0.3932  0.1517
11997TIP3    H257483   3.870   1.307  12.563  1.3845 -1.7617  0.2643
11998TIP3   OH257484   2.722   6.375   6.234 -0.0566 -0.0357  0.1178
11998TIP3    H157485   2.743   6.286   6.262  0.8805  0.0304 -0.3493
11998TIP3    H257486   2.667   6.410   6.305  1.0838 -0.3465  1.1865
11999TIP3   OH257487   0.562   5.305  15.735 -0.0956 -0.0619  0.2639
11999TIP3    H157488   0.516   5.334  15.814  1.2470  3.2607 -0.0340
11999TIP3    H257489   0.654   5.325  15.752  0.3635 -0.3504 -1.6982
12000TIP3   OH257490   2.320   3.724  13.642 -0.0679  0.0504 -1.0077
12000TIP3    H157491   2.230   3.736  13.674 -0.1021  0.9791 -1.4194
12000TIP3    H257492   2.309   3.671  13.563 -0.2170 -0.1757 -0.8372
12001TIP3   OH257493   0.099   3.174  12.107  0.5984 -0.0256  0.5053
12001TIP3    H157494   0.172   3.235  12.119  1.7595 -0.5575 -2.6446
12001TIP3    H257495   0.135   3.105  12.050 -2.2268 -0.4797 -0.9179
12002TIP3   OH257496   3.459   2.198   3.381  0.2113  0.2756 -0.4068
12002TIP3    H157497   3.391   2.200   3.313  0.1595 -0.5175 -0.3885
12002TIP3    H257498   3.538   2.227   3.336  0.4045 -1.2178 -1.0949
12003TIP3   OH257499   0.959   3.105  15.922  0.2767  0.7194 -0.6359
12003TIP3    H157500   1.006   3.025  15.948  0.0179  1.2179  1.5482
12003TIP3    H257501   0.896   3.075  15.856 -0.1688 -1.0136  0.4992
12004TIP3   OH257502   6.189   1.679   1.107 -0.5240  0.2695 -0.1196
12004TIP3    H157503   6.161   1.625   1.181  0.0859 -0.6293 -0.5194
12004TIP3    H257504   6.184   1.620   1.032  1.5275  0.3279 -0.3450
12005TIP3   OH257505   2.980   2.088   0.590  0.4095  0.2057  0.3310
12005TIP3    H157506   3.019   2.016   0.539  1.2309  1.4180 -0.8021
12005TIP3    H257507   3.016   2.167   0.551 -2.2648  1.3650  0.0319
12006TIP3   OH257508   1.765   1.640   5.099 -0.6402 -0.1802  0.0818
12006TIP3    H157509   1.761   1.732   5.074  1.4698 -0.4126 -1.3998
12006TIP3    H257510   1.706   1.596   5.037  1.2710 -0.2173 -1.8407
12007TIP3   OH257511   2.947   5.216  13.638 -0.2053 -0.1373  0.1072
12007TIP3    H157512   3.015   5.193  13.702 -0.4131  1.2425  0.8739
12007TIP3    H257513   2.907   5.295  13.674 -1.1386 -0.0094 -1.1549
12008TIP3   OH257514   0.644   3.608  11.187 -0.0522 -0.0666  0.5225
12008TIP3    H157515   0.736   3.589  11.207  0.0679 -0.5537 -0.4755
12008TIP3    H257516   0.643   3.630  11.094 -1.2273 -1.9819  0.0211
12009TIP3   OH257517   4.819   0.384  11.536  0.0648  0.4111 -0.1536
12009TIP3    H157518   4.769   0.332  11.473 -0.3426 -0.0314  0.5287
12009TIP3    H257519   4.788   0.474  11.522 -0.4197  0.2394 -0.2073
12010TIP3   OH257520   5.782   6.647  11.549 -0.3306  0.4076  0.0707
12010TIP3    H157521   5.780   6.671  11.642  2.7449  1.1240  0.0679
12010TIP3    H257522   5.720   6.707  11.507  0.5329  2.2369  1.2832
12011TIP3   OH257523   5.900   0.186   5.378 -0.1716 -0.0389  0.3426
12011TIP3    H157524   5.888   0.091   5.374  0.4442 -0.1560  0.9230
12011TIP3    H257525   5.972   0.197   5.440 -0.7818  0.8518  0.9064
12012TIP3   OH257526   3.647   3.470  13.327  0.6854 -0.0626  0.3694
12012TIP3    H157527   3.625   3.530  13.399  1.1054 -0.8537  1.1816
12012TIP3    H257528   3.615   3.514  13.248 -0.2136  0.6135  1.0900
12013TIP3   OH257529   5.403   1.886   5.673 -0.3781  0.1949 -0.2970
12013TIP3    H157530   5.419   1.805   5.721 -0.6789  0.3074  0.0058
12013TIP3    H257531   5.490   1.921   5.655 -0.2159 -0.7395 -1.3987
12014TIP3   OH257532   1.551   0.352  12.748 -0.2590  0.1263  0.4343
12014TIP3    H157533   1.521   0.387  12.664  1.0234  0.3564  0.0499
12014TIP3    H257534   1.629   0.301  12.726 -0.5905 -0.7956  1.3453
12015TIP3   OH257535   5.543   1.219  12.575  0.0692 -0.0882 -0.1378
12015TIP3    H157536   5.539   1.268  12.657 -2.9734 -0.7639  0.2217
12015TIP3    H257537   5.552   1.127  12.602 -3.2413 -0.5969 -0.2816
12016TIP3   OH257538   1.270   5.221   0.232  0.5461 -0.3530 -0.4920
12016TIP3    H157539   1.208   5.269   0.177 -1.5626  0.0095  1.9939
12016TIP3    H257540   1.280   5.136   0.189 -3.7976 -1.4424  0.1665
12017TIP3   OH257541   3.390   2.803  11.070  0.2374  0.4478  0.5407
12017TIP3    H157542   3.380   2.884  11.119  0.1807 -0.0462  1.3674
12017TIP3    H257543   3.302   2.784  11.037  0.2413  0.6933  0.3857
12018TIP3   OH257544   2.615   6.288   2.007  0.1111  0.7101  0.1384
12018TIP3    H157545   2.565   6.334   1.939  0.0171 -0.4578 -0.6101
12018TIP3    H257546   2.690   6.251   1.961  0.7026  0.9154  0.9173
12019TIP3   OH257547   3.365   1.731   0.279  0.7432 -0.2578  0.1834
12019TIP3    H157548   3.413   1.800   0.233 -1.3758  0.3672 -1.2901
12019TIP3    H257549   3.394   1.737   0.370  2.1554  1.1709 -0.3202
12020TIP3   OH257550   1.689   3.858  13.863 -0.2138 -0.2783 -0.3382
12020TIP3    H157551   1.720   3.881  13.951 -1.1582 -1.4851  0.3494
12020TIP3    H257552   1.599   3.889  13.861 -0.1459 -0.1072 -0.9551
12021TIP3   OH257553   0.422   3.288  17.199 -0.0198 -0.3710 -0.1913
12021TIP3    H157554   0.355   3.260  17.261  0.9977  0.7189  1.4807
12021TIP3    H257555   0.446   3.208  17.152 -0.1548 -1.4714  1.5177
12022TIP3   OH257556   1.463   1.112   6.192  0.5072  0.3689 -0.4279
12022TIP3    H157557   1.445   1.108   6.286 -0.1746  1.1313 -0.5170
12022TIP3    H257558   1.547   1.066   6.182  0.7303  0.5201  0.5885
12023TIP3   OH257559   2.185   6.136  13.597  0.5241  0.3639 -0.3064
12023TIP3    H157560   2.178   6.197  13.671 -2.5747  0.0577 -0.2315
12023TIP3    H257561   2.151   6.053  13.631 -0.9864  0.2140 -2.0158
12024TIP3   OH257562   5.414   5.891  10.527 -0.8401  0.2293  0.0590
12024TIP3    H157563   5.489   5.915  10.473 -1.4713  1.2418 -0.3958
12024TIP3    H257564   5.352   5.852  10.465 -0.7699 -0.4617  0.4054
12025TIP3   OH257565   6.111   3.546   0.135  0.0939 -0.6029 -0.9809
12025TIP3    H157566   6.205   3.539   0.154 -0.1312 -1.3119 -0.0659
12025TIP3    H257567   6.083   3.625   0.182 -0.0132 -1.1138 -0.1606
12026TIP3   OH257568   0.723   2.175  12.779 -0.3250  0.2792  0.7511
12026TIP3    H157569   0.758   2.089  12.755 -0.9525  0.4215 -0.8391
12026TIP3    H257570   0.762   2.235  12.716  0.7051  1.3205  2.3243
12027TIP3   OH257571   6.799   4.128   4.717 -0.0495 -0.1331 -0.1780
12027TIP3    H157572   6.727   4.151   4.776 -0.9647 -0.9168 -0.9553
12027TIP3    H257573   6.870   4.103   4.776 -0.9007 -0.8045  0.6064
12028TIP3   OH257574   5.101   2.177   6.297 -0.0635  0.0931  1.0260
12028TIP3    H157575   5.060   2.094   6.324 -1.1500  0.2329 -0.1002
12028TIP3    H257576   5.195   2.159   6.302 -0.2667 -0.9537  1.5560
12029TIP3   OH257577   0.963   6.284  15.934 -0.5698  0.1023  0.2176
12029TIP3    H157578   0.962   6.338  15.855 -0.7252 -0.0444  0.1188
12029TIP3    H257579   0.920   6.203  15.908 -1.5149  0.4288  0.7140
12030TIP3   OH257580   6.541   4.481   0.636 -0.0040 -0.1308 -0.5068
12030TIP3    H157581   6.477   4.470   0.707  1.0589  2.0156  0.9134
12030TIP3    H257582   6.515   4.564   0.594  0.4765 -0.4404 -1.4427
12031TIP3   OH257583   5.747   2.769   5.038 -0.6924 -1.0450  0.8440
12031TIP3    H157584   5.710   2.703   5.097 -1.0084 -1.6492  0.0047
12031TIP3    H257585   5.707   2.749   4.953  1.1412 -1.3753  0.0096
12032TIP3   OH257586   3.106   0.448  11.707  0.0362 -0.3994  0.0970
12032TIP3    H157587   3.017   0.482  11.709 -0.0046 -0.5044  0.0656
12032TIP3    H257588   3.116   0.414  11.618  0.0300 -0.5957  0.1706
12033TIP3   OH257589   6.802   3.465   4.136  0.2825 -0.6699 -0.6649
12033TIP3    H157590   6.718   3.511   4.135 -0.1124 -1.3446  0.3421
12033TIP3    H257591   6.862   3.525   4.092 -0.5053  0.2588 -0.5156
12034TIP3   OH257592   2.115   0.650   4.730  0.7492  0.0514 -0.3223
12034TIP3    H157593   2.114   0.587   4.658 -2.1584 -0.5300  0.1144
12034TIP3    H257594   2.120   0.596   4.809 -1.6944  0.2752  0.0534
12035TIP3   OH257595   5.122   0.948  11.210 -0.4312 -0.6003  0.0224
12035TIP3    H157596   5.212   0.982  11.206 -0.3429 -0.7954  0.2721
12035TIP3    H257597   5.071   1.008  11.156 -0.4899  0.5888  1.3408
12036TIP3   OH257598   5.446   1.933  16.331 -0.2179 -0.1344 -0.8062
12036TIP3    H157599   5.394   1.996  16.282  1.3081  1.6778 -0.2341
12036TIP3    H257600   5.528   1.925  16.280  0.0160 -0.8930 -0.3354
12037TIP3   OH257601   1.933   2.318   2.455 -0.2140 -0.0723 -0.4987
12037TIP3    H157602   1.999   2.258   2.419  0.2128 -0.4835  0.9021
12037TIP3    H257603   1.860   2.313   2.393  0.5122 -0.6974 -1.3312
12038TIP3   OH257604   5.364   0.553   4.548  0.2761 -0.1426  0.3092
12038TIP3    H157605   5.373   0.642   4.513 -0.6830 -0.8526 -1.8929
12038TIP3    H257606   5.381   0.496   4.473 -1.9803 -1.7600  0.9419
12039TIP3   OH257607   6.535   5.319  11.645  0.0503 -0.0116  0.0053
12039TIP3    H157608   6.604   5.256  11.663 -0.0255  0.1812  1.0053
12039TIP3    H257609   6.478   5.275  11.583  1.4349  0.0865 -1.4120
12040TIP3   OH257610   5.562   1.018  10.382 -0.0541  0.7835 -0.2106
12040TIP3    H157611   5.619   1.095  10.388  0.7318  0.2039 -0.0641
12040TIP3    H257612   5.478   1.053  10.353 -0.1529  1.9009  1.3259
12041TIP3   OH257613   0.783   6.154  12.092  0.4261 -0.1087  0.0529
12041TIP3    H157614   0.783   6.084  12.157  2.3890 -1.3700 -1.1813
12041TIP3    H257615   0.874   6.184  12.090  0.3421  0.1290 -1.8285
12042TIP3   OH257616   2.283   2.043   5.203  0.3726 -0.0841  0.1563
12042TIP3    H157617   2.228   2.115   5.233  1.2883 -0.0393  1.8744
12042TIP3    H257618   2.282   1.980   5.276  1.1409 -0.9039 -0.5147
12043TIP3   OH257619   3.019   1.761   2.791 -0.5496 -0.0030 -0.2950
12043TIP3    H157620   3.014   1.814   2.871  1.2361  0.2257 -0.2816
12043TIP3    H257621   2.985   1.676   2.816  2.1059 -0.6777  1.4523
12044TIP3   OH257622   0.407   4.359  14.260 -0.1403 -0.0294  0.5523
12044TIP3    H157623   0.452   4.358  14.344  1.3782 -2.3193 -0.1767
12044TIP3    H257624   0.470   4.396  14.199 -0.3991 -0.3816  0.0606
12045TIP3   OH257625   2.305   0.076   5.335 -0.3544 -0.0989  0.1240
12045TIP3    H157626   2.271   0.020   5.405 -0.2462  0.7669  0.8899
12045TIP3    H257627   2.228   0.093   5.280 -1.1401  1.4777  1.5945
12046TIP3   OH257628   1.386   5.227   3.248 -0.2729 -0.6054 -0.1821
12046TIP3    H157629   1.461   5.246   3.193 -0.6807 -0.1705 -0.6027
12046TIP3    H257630   1.330   5.305   3.240  0.4693  0.2633  2.2250
12047TIP3   OH257631   5.238   3.650  13.773  0.0481 -0.0552 -0.1800
12047TIP3    H157632   5.267   3.564  13.741 -0.8129  0.1386 -1.5601
12047TIP3    H257633   5.145   3.655  13.748 -0.4315  0.4967  1.6088
12048TIP3   OH257634   3.019   5.061  13.004 -0.0114  0.3829  0.2320
12048TIP3    H157635   3.038   5.112  13.083  0.0242 -0.6330  0.9033
12048TIP3    H257636   3.097   5.006  12.992 -0.8485 -0.9699  0.7179
12049TIP3   OH257637   5.059   6.325  12.961  0.5021 -0.1834  0.5186
12049TIP3    H157638   5.149   6.348  12.940  1.2499 -2.6067  0.8502
12049TIP3    H257639   5.052   6.232  12.942 -2.3890  0.1947 -0.9581
12050TIP3   OH257640   6.440   3.617  11.358 -0.7185  0.2266  0.6326
12050TIP3    H157641   6.450   3.590  11.267 -1.4301  0.8001  0.3715
12050TIP3    H257642   6.519   3.585  11.402 -1.3316 -1.9200  0.2713
12051TIP3   OH257643   4.921   2.785   0.328 -0.4060  0.2013  0.4453
12051TIP3    H157644   4.842   2.811   0.282 -1.0813 -1.5190  0.5668
12051TIP3    H257645   4.992   2.823   0.277 -1.0744 -2.1470 -2.4937
12052TIP3   OH257646   6.159   1.577  11.302  0.5012  0.6223  0.4826
12052TIP3    H157647   6.184   1.603  11.391  2.6175  1.4038 -0.2845
12052TIP3    H257648   6.063   1.578  11.303  0.4482  3.4244  1.9576
12053TIP3   OH257649   6.790   4.326  12.917 -0.1863  0.0241  0.9357
12053TIP3    H157650   6.749   4.325  12.830  0.6470  0.4711  0.5175
12053TIP3    H257651   6.718   4.313  12.978 -0.6063 -1.7430  0.1099
12054TIP3   OH257652   3.355   0.134   2.703 -0.1619 -0.1465  0.0122
12054TIP3    H157653   3.369   0.058   2.760  0.2705  0.0218  0.1386
12054TIP3    H257654   3.440   0.147   2.660 -0.1115  0.5039  0.2919
12055TIP3   OH257655   4.081   1.835   3.521 -0.0062  0.4932  0.1065
12055TIP3    H157656   4.039   1.752   3.499 -1.4287  1.5881 -1.5975
12055TIP3    H257657   4.161   1.810   3.568 -0.7063 -1.7889  0.1987
12056TIP3   OH257658   2.535   6.574  15.639  0.1156  0.3193  0.1173
12056TIP3    H157659   2.497   6.658  15.615  0.7888  0.4547 -0.5066
12056TIP3    H257660   2.599   6.556  15.570  1.0978  0.0427  1.0761
12057TIP3   OH257661   1.906   6.556   1.287  0.1141 -0.4373  0.0746
12057TIP3    H157662   1.938   6.607   1.361 -1.4884  1.3034 -0.3413
12057TIP3    H257663   1.892   6.468   1.322 -0.7185  0.3708  1.8973
12058TIP3   OH257664   3.000   6.364   6.679  0.3196  0.0133 -0.2606
12058TIP3    H157665   3.044   6.299   6.624  0.0949 -0.3568 -0.0095
12058TIP3    H257666   2.924   6.318   6.714  0.1525  0.4170 -0.0852
12059TIP3   OH257667   4.616   3.484  15.888  0.0626 -0.1808  0.4467
12059TIP3    H157668   4.599   3.391  15.903  0.4864 -0.1048  1.4729
12059TIP3    H257669   4.690   3.504  15.946  0.2017  0.7120 -0.0320
12060TIP3   OH257670   5.581   0.430  11.057  0.1169 -0.0285 -0.0464
12060TIP3    H157671   5.618   0.377  11.127 -0.0364  1.4224  1.1946
12060TIP3    H257672   5.657   0.465  11.011  0.3286  1.3417  1.2567
12061TIP3   OH257673   2.782   2.703   1.224  0.5266  0.0794 -0.8327
12061TIP3    H157674   2.743   2.626   1.265  2.8237 -2.0778 -2.4060
12061TIP3    H257675   2.858   2.724   1.279  0.8366  0.1819 -1.2931
12062TIP3   OH257676   5.442   4.134  13.619  0.2027 -0.6638  0.4464
12062TIP3    H157677   5.412   4.152  13.708 -0.6033  2.1387 -0.2747
12062TIP3    H257678   5.362   4.127  13.567  0.5485  2.6712 -0.7850
12063TIP3   OH257679   5.208   5.311  12.809  0.1055  0.1157 -0.3933
12063TIP3    H157680   5.119   5.281  12.790  0.1743 -0.0784 -0.4130
12063TIP3    H257681   5.262   5.232  12.799  0.2351  0.1651 -0.0682
12064TIP3   OH257682   4.626   2.573   5.498 -0.1102 -0.2864  0.1571
12064TIP3    H157683   4.622   2.488   5.455 -0.9067 -0.6176  0.8855
12064TIP3    H257684   4.561   2.569   5.567  1.2383  0.1954  1.5142
12065TIP3   OH257685   5.134   1.553  10.551  0.3576  0.6605 -0.3068
12065TIP3    H157686   5.055   1.500  10.546  1.7646 -1.5905 -0.3007
12065TIP3    H257687   5.119   1.626  10.491 -1.6606  0.2629 -0.3466
12066TIP3   OH257688   6.070   2.712  13.687 -0.2193  0.2234 -0.3344
12066TIP3    H157689   6.113   2.638  13.729 -0.8709 -1.0573 -1.8186
12066TIP3    H257690   5.990   2.725  13.738  1.1123  1.7009  1.5606
12067TIP3   OH257691   4.175   4.937   5.731 -0.1327  0.4855  0.2610
12067TIP3    H157692   4.222   4.973   5.806  0.1281  0.5262  0.0775
12067TIP3    H257693   4.170   4.843   5.748 -0.6123  0.5696  0.6289
12068TIP3   OH257694   2.711   3.279   0.621  0.3134 -0.3392 -0.0428
12068TIP3    H157695   2.721   3.219   0.547  1.8234 -0.8141  0.5013
12068TIP3    H257696   2.714   3.222   0.698  0.8653  0.3392  0.4504
12069TIP3   OH257697   6.698   2.025  16.126 -0.2746  0.1505 -0.1285
12069TIP3    H157698   6.641   2.016  16.050  0.7440 -1.6600 -0.7262
12069TIP3    H257699   6.762   1.955  16.117  1.4006  1.4464  1.0880
12070TIP3   OH257700   6.784   2.235  16.456  0.4816 -0.4757  0.8260
12070TIP3    H157701   6.720   2.167  16.437  0.8188 -0.4165 -0.6462
12070TIP3    H257702   6.808   2.220  16.547 -1.8446 -0.2855  1.5249
12071TIP3   OH257703   4.246   4.738  14.106  0.7115 -0.2870  0.0659
12071TIP3    H157704   4.244   4.774  14.018  0.9315  0.2092  0.2570
12071TIP3    H257705   4.183   4.791  14.156 -0.3859 -1.4016 -0.0893
12072TIP3   OH257706   4.938   2.709  16.536  0.1618 -0.1644  0.3057
12072TIP3    H157707   4.950   2.614  16.535  0.8522 -0.0977  1.0166
12072TIP3    H257708   4.919   2.732  16.445 -2.5209 -1.2532  0.5265
12073TIP3   OH257709   1.517   0.437   2.122  0.4465 -0.2028 -0.0576
12073TIP3    H157710   1.596   0.418   2.172  0.8691  1.5523  0.0129
12073TIP3    H257711   1.447   0.394   2.171  1.0918 -0.0770  1.0150
12074TIP3   OH257712   3.324   0.342  12.829 -0.1252 -0.1575 -0.3733
12074TIP3    H157713   3.235   0.311  12.808  0.2071 -0.5448 -1.2828
12074TIP3    H257714   3.321   0.361  12.922 -0.8790 -1.1740 -0.1626
12075TIP3   OH257715   4.395   5.308   0.199 -0.3019  0.2824 -0.2939
12075TIP3    H157716   4.446   5.340   0.273 -1.4750 -0.1333  0.7319
12075TIP3    H257717   4.428   5.219   0.184  1.9124  1.3360 -2.1708
12076TIP3   OH257718   2.015   1.633   2.517 -0.3127  0.4094 -0.0498
12076TIP3    H157719   1.929   1.610   2.482 -2.0333  1.2927  3.2086
12076TIP3    H257720   2.015   1.599   2.606  3.6511 -1.4311 -0.5371
12077TIP3   OH257721   3.567   5.980  13.146 -0.4025 -0.5117 -0.5244
12077TIP3    H157722   3.576   5.963  13.240  0.4516  1.9267 -0.1063
12077TIP3    H257723   3.549   6.074  13.140 -0.8372 -0.6923 -2.7946
12078TIP3   OH257724   6.570   4.933  15.428  0.1884  0.4317 -0.1764
12078TIP3    H157725   6.518   4.998  15.380 -0.6585 -0.3065 -0.2815
12078TIP3    H257726   6.566   4.962  15.519  0.2341  0.7973 -0.2873
12079TIP3   OH257727   0.254   2.273  15.442 -0.1637 -0.1376  0.6140
12079TIP3    H157728   0.276   2.294  15.533  1.6252  0.4352  0.0881
12079TIP3    H257729   0.334   2.234  15.407 -0.5689  0.3917 -0.9460
12080TIP3   OH257730   0.078   0.158  15.650 -0.4648  0.7013 -0.1461
12080TIP3    H157731   0.076   0.252  15.637  1.1110  0.4729 -2.8285
12080TIP3    H257732   0.057   0.121  15.564  0.1857 -1.3691  0.5022
12081TIP3   OH257733   4.366   5.422   5.133  0.0712 -0.1371  0.3476
12081TIP3    H157734   4.416   5.341   5.120 -0.3857 -0.4730  0.6421
12081TIP3    H257735   4.352   5.427   5.228 -2.2785 -1.1932  0.1393
12082TIP3   OH257736   0.600   0.282  15.937 -1.2805 -0.1645 -0.2131
12082TIP3    H157737   0.559   0.349  15.991 -1.1924  0.8461 -1.3684
12082TIP3    H257738   0.589   0.313  15.847  1.4988 -0.1109 -0.6171
12083TIP3   OH257739   4.280   0.360   6.781 -0.9388 -0.3008  0.3184
12083TIP3    H157740   4.193   0.399   6.780 -1.1898 -0.8407  0.3739
12083TIP3    H257741   4.307   0.360   6.689 -1.0152 -0.1700  0.2956
12084TIP3   OH257742   3.797   1.472   4.567  0.1814  0.0363  0.0126
12084TIP3    H157743   3.786   1.521   4.485 -1.4127  1.3029  0.9098
12084TIP3    H257744   3.822   1.384   4.539  0.2862  0.5909 -1.7988
12085TIP3   OH257745   1.502   0.956   1.017 -0.0584  0.2795 -0.0120
12085TIP3    H157746   1.463   0.879   1.057 -0.6576  0.4519 -0.2509
12085TIP3    H257747   1.545   0.923   0.938 -1.6635  0.3890 -0.9784
12086TIP3   OH257748   6.000   4.491  11.816 -0.0153  0.8439 -0.2848
12086TIP3    H157749   6.003   4.425  11.885 -0.6571  1.4693  0.3562
12086TIP3    H257750   6.048   4.566  11.852  1.1227  0.5758 -1.1924
12087TIP3   OH257751   1.091   5.832   0.246 -0.0584 -0.0909 -0.3471
12087TIP3    H157752   1.133   5.752   0.213 -0.0788  0.5590 -2.0590
12087TIP3    H257753   1.160   5.877   0.295  0.4220 -0.4017 -0.7243
12088TIP3   OH257754   0.580   6.664   4.299 -0.3893  0.1976 -0.1333
12088TIP3    H157755   0.623   6.689   4.218  1.2766 -0.9980  0.3319
12088TIP3    H257756   0.581   6.568   4.298 -1.8043  0.1356  0.5711
12089TIP3   OH257757   2.039   1.728   4.452  0.5188  0.7134  1.0903
12089TIP3    H157758   2.000   1.646   4.422  1.8288 -0.1244  1.6018
12089TIP3    H257759   2.064   1.773   4.371  1.0094 -0.0060  0.8350
12090TIP3   OH257760   6.599   6.293  17.047  0.0270 -0.5017  0.3424
12090TIP3    H157761   6.685   6.288  17.089 -0.5870  0.8572  1.9304
12090TIP3    H257762   6.537   6.294  17.121 -1.2773 -0.3409 -0.7172
12091TIP3   OH257763   4.732   0.974   4.324 -0.1571 -0.5586 -0.4804
12091TIP3    H157764   4.664   1.031   4.360  0.5373  0.2901 -0.4561
12091TIP3    H257765   4.757   0.919   4.398 -0.5854 -0.6452 -0.3973
12092TIP3   OH257766   4.530   1.885  15.654  0.1780 -0.2961 -0.6841
12092TIP3    H157767   4.563   1.825  15.587  0.2780 -2.1053  0.9159
12092TIP3    H257768   4.557   1.846  15.737 -0.2139  1.7128  0.4650
12093TIP3   OH257769   0.785   2.034  14.301  0.3248  0.0393  0.8538
12093TIP3    H157770   0.869   2.007  14.262 -0.4952 -0.8169 -0.4011
12093TIP3    H257771   0.803   2.119  14.340  1.5400  0.3509 -0.2985
12094TIP3   OH257772   4.435   0.565   4.673  0.6508  1.0652  0.4739
12094TIP3    H157773   4.350   0.608   4.663 -0.3797 -1.2157 -1.7087
12094TIP3    H257774   4.434   0.530   4.762 -3.0207 -3.0720 -0.8426
12095TIP3   OH257775   5.330   2.172  11.895  0.0635 -0.2557  0.2655
12095TIP3    H157776   5.333   2.076  11.896 -0.2102 -0.3845 -2.6334
12095TIP3    H257777   5.309   2.196  11.985 -1.5876 -2.9926  0.7295
12096TIP3   OH257778   4.964   1.850  14.428  0.3795  0.4468  0.1647
12096TIP3    H157779   4.896   1.856  14.495 -0.1286 -0.1949 -0.2779
12096TIP3    H257780   5.041   1.819  14.474 -0.0877 -0.4211  0.3795
12097TIP3   OH257781   3.828   4.346  15.614  0.0083  0.0285 -0.1094
12097TIP3    H157782   3.912   4.338  15.570  0.5687 -0.1078  0.9628
12097TIP3    H257783   3.839   4.298  15.696 -1.2461 -0.3424 -0.1380
12098TIP3   OH257784   0.835   2.579  14.244 -0.1779 -0.1729  0.3412
12098TIP3    H157785   0.803   2.494  14.275  0.6915 -0.7256 -0.1889
12098TIP3    H257786   0.799   2.587  14.156 -0.8074  0.3238  0.6472
12099TIP3   OH257787   3.355   2.535  13.125  0.8268  0.3886  0.4655
12099TIP3    H157788   3.291   2.498  13.064 -1.3049  2.1548  1.4895
12099TIP3    H257789   3.405   2.459  13.155  0.5560 -0.8020 -1.8527
12100TIP3   OH257790   5.150   0.911  13.473 -0.7386  0.3636 -0.3247
12100TIP3    H157791   5.207   0.889  13.399  1.8242  1.0377  1.3351
12100TIP3    H257792   5.111   0.828  13.499 -0.5381 -0.1180 -1.5088
12101TIP3   OH257793   1.541   1.080  13.614  0.9595 -0.8509  0.6390
12101TIP3    H157794   1.469   1.143  13.622  0.6827 -1.0589 -0.1921
12101TIP3    H257795   1.618   1.135  13.603  0.7187 -0.6531 -0.0890
12102TIP3   OH257796   1.382   2.843   4.688  0.1579 -0.3230  0.1467
12102TIP3    H157797   1.471   2.851   4.722 -0.2397  0.3014  1.0604
12102TIP3    H257798   1.393   2.844   4.593  1.0062  1.4015  0.2242
12103TIP3   OH257799   5.085   1.966  16.925 -0.5767 -0.1020 -0.3930
12103TIP3    H157800   5.025   1.901  16.889 -0.6628 -1.5373  2.0875
12103TIP3    H257801   5.086   2.037  16.861 -0.8108 -2.3478 -3.0297
12104TIP3   OH257802   0.492   3.566   3.678  0.2362  0.0731 -0.1299
12104TIP3    H157803   0.565   3.509   3.655  0.9168  1.0621 -0.4953
12104TIP3    H257804   0.507   3.589   3.769 -0.6321 -1.1607  0.3583
12105TIP3   OH257805   2.069   3.407   2.803  0.1060  0.4059 -0.4351
12105TIP3    H157806   2.029   3.321   2.790  0.3702  0.1122  0.5939
12105TIP3    H257807   2.158   3.397   2.769  0.4398 -0.0224  0.5359
12106TIP3   OH257808   3.530   1.218   2.747  0.1954  0.1089 -0.1566
12106TIP3    H157809   3.479   1.215   2.828 -0.5804 -1.6285 -0.6752
12106TIP3    H257810   3.575   1.303   2.750 -0.9734  0.7093  1.3756
12107TIP3   OH257811   0.603   4.081  14.915 -0.2647  0.3865 -0.2712
12107TIP3    H157812   0.664   4.016  14.950 -0.3181  0.4942  0.0285
12107TIP3    H257813   0.520   4.035  14.907 -0.4230  0.5366  0.3938
12108TIP3   OH257814   6.654   3.396   0.594 -0.0431  0.5292  0.0683
12108TIP3    H157815   6.708   3.396   0.673 -0.4787 -1.1540  0.4050
12108TIP3    H257816   6.589   3.327   0.609 -0.5336  0.6083 -1.4934
12109TIP3   OH257817   0.409   1.129   5.281  0.7358  0.0108 -0.6048
12109TIP3    H157818   0.371   1.185   5.349  0.7528  0.4533 -0.9575
12109TIP3    H257819   0.460   1.065   5.330 -0.1458 -0.3586 -0.1414
12110TIP3   OH257820   5.345   0.552   0.510  0.1344  0.0588  0.0119
12110TIP3    H157821   5.322   0.605   0.586 -0.1741  0.6468 -0.4794
12110TIP3    H257822   5.393   0.612   0.452  1.5477 -0.7357  0.3184
12111TIP3   OH257823   3.265   0.059  13.963  0.3102  0.4587  1.1334
12111TIP3    H157824   3.184   0.024  13.929  0.7636 -0.2012  0.7246
12111TIP3    H257825   3.238   0.130  14.022 -0.5794 -0.1526  1.4753
12112TIP3   OH257826   2.631   2.178  15.761  0.1167 -0.4712 -0.3595
12112TIP3    H157827   2.650   2.141  15.675 -0.5871 -0.5278 -0.4915
12112TIP3    H257828   2.661   2.269  15.755  1.7236 -0.9426 -0.0776
12113TIP3   OH257829   4.363   4.691  14.566 -0.0870 -0.3363 -0.8515
12113TIP3    H157830   4.297   4.689  14.496  0.2121 -0.5667 -1.1307
12113TIP3    H257831   4.422   4.762  14.540 -0.0527 -0.3326 -0.7620
12114TIP3   OH257832   6.810   0.704  16.897 -0.2937  0.9598  0.2700
12114TIP3    H157833   6.858   0.670  16.973  1.2433 -3.2396 -2.2285
12114TIP3    H257834   6.719   0.680  16.914 -0.1273  0.9677  1.2116
12115TIP3   OH257835   0.483   6.007   2.284 -0.1123 -0.1002 -0.3672
12115TIP3    H157836   0.444   6.024   2.198 -1.0892 -2.2680 -0.4263
12115TIP3    H257837   0.517   5.918   2.278  0.5586  0.0023  1.2475
12116TIP3   OH257838   6.762   0.697  12.200 -0.3887 -0.2665  0.2523
12116TIP3    H157839   6.757   0.746  12.118 -0.1285 -0.4787  0.1100
12116TIP3    H257840   6.823   0.626  12.183 -1.4622 -1.2060  0.1658
12117TIP3   OH257841   3.252   3.997   3.167  0.0914 -0.1770  0.7360
12117TIP3    H157842   3.198   4.031   3.097  1.2789 -1.9589 -1.1519
12117TIP3    H257843   3.299   4.074   3.201 -0.4668  0.7146 -0.4554
12118TIP3   OH257844   0.134   4.797  13.405 -0.1392 -0.2554  0.5593
12118TIP3    H157845   0.159   4.706  13.389 -0.8390 -0.2093 -0.9595
12118TIP3    H257846   0.155   4.843  13.324 -1.9688  0.4384  0.4243
12119TIP3   OH257847   0.038   1.220   5.252  0.2347 -0.0912  0.1777
12119TIP3    H157848  -0.028   1.219   5.321 -1.1162  0.4696 -1.0662
12119TIP3    H257849   0.027   1.305   5.209  0.0987 -0.9609 -1.6046
12120TIP3   OH257850   4.123   1.309  15.685  0.4475  0.0187 -0.0645
12120TIP3    H157851   4.136   1.254  15.608 -1.7427 -2.1944  1.0180
12120TIP3    H257852   4.180   1.270  15.752  0.6424  0.5411  0.0831
12121TIP3   OH257853   0.802   6.200   3.787  0.2511  0.2021  0.5038
12121TIP3    H157854   0.875   6.143   3.762 -1.0241 -1.0169 -0.6120
12121TIP3    H257855   0.735   6.140   3.820  0.5237  1.4639  3.7672
12122TIP3   OH257856   5.522   3.905   4.488  0.1423  0.5788 -0.1172
12122TIP3    H157857   5.433   3.923   4.518 -0.2477  0.5108 -1.2059
12122TIP3    H257858   5.568   3.876   4.567 -1.1794 -0.7902  0.1959
12123TIP3   OH257859   2.428   2.470   1.364  0.0089 -0.1587 -0.0041
12123TIP3    H157860   2.437   2.511   1.450 -1.7095  1.8030 -0.6824
12123TIP3    H257861   2.514   2.481   1.324  0.4444  0.0930  0.9604
12124TIP3   OH257862   3.096   5.615  12.249  0.3061  0.3579 -0.5041
12124TIP3    H157863   3.029   5.669  12.208  0.3807  0.1523 -0.8957
12124TIP3    H257864   3.059   5.527  12.251  0.3291  0.3551 -0.1916
12125TIP3   OH257865   0.230   4.158   1.224 -0.3169 -0.1208  0.2560
12125TIP3    H157866   0.137   4.137   1.217 -0.5271 -0.1166  2.4594
12125TIP3    H257867   0.274   4.088   1.177 -1.3832 -0.7810  0.2094
12126TIP3   OH257868   6.589   3.123  16.762  0.7930  0.2245 -0.2197
12126TIP3    H157869   6.648   3.073  16.819 -0.7021 -0.0973  1.1204
12126TIP3    H257870   6.628   3.211  16.759  1.0265  0.2016  1.1736
12127TIP3   OH257871   5.655   3.422  15.228 -0.5807 -0.4256  0.3838
12127TIP3    H157872   5.626   3.458  15.144 -0.5501 -0.0144  0.5500
12127TIP3    H257873   5.747   3.447  15.234 -0.9951  0.9780  1.2923
12128TIP3   OH257874   1.598   3.710  10.807 -0.1872  0.2299  0.1401
12128TIP3    H157875   1.614   3.736  10.898 -0.3464  1.1240 -0.0721
12128TIP3    H257876   1.682   3.678  10.776  0.2245  1.2156  0.1985
12129TIP3   OH257877   5.426   2.440   1.718 -0.6166 -0.7371 -0.3487
12129TIP3    H157878   5.388   2.447   1.806  2.6041 -1.7101  1.2938
12129TIP3    H257879   5.475   2.522   1.707 -0.2462 -1.0191 -0.8344
12130TIP3   OH257880   0.294   4.923   0.431 -0.1353 -0.3340 -1.2411
12130TIP3    H157881   0.316   4.839   0.472  0.0724 -0.1803 -1.0389
12130TIP3    H257882   0.368   4.943   0.375  0.0513 -0.0320 -0.8939
12131TIP3   OH257883   0.989   5.248  14.088 -1.1537 -0.8023 -0.1704
12131TIP3    H157884   1.083   5.234  14.077 -0.8231  0.5473  0.6206
12131TIP3    H257885   0.950   5.212  14.009  0.4736  2.8154 -2.9641
12132TIP3   OH257886   1.484   5.762  17.151 -0.2867 -0.1541  0.0854
12132TIP3    H157887   1.528   5.677  17.152 -0.5637 -0.3086 -0.5607
12132TIP3    H257888   1.416   5.754  17.218 -0.5981 -0.6002 -0.2769
12133TIP3   OH257889   6.459   6.108   4.649 -0.0985 -0.1956 -0.5202
12133TIP3    H157890   6.372   6.092   4.613 -0.9747 -3.5623  2.5399
12133TIP3    H257891   6.519   6.093   4.575 -1.9357 -1.3045 -1.8587
12134TIP3   OH257892   2.069   6.515  11.592 -0.5008 -0.4195  0.3737
12134TIP3    H157893   2.138   6.466  11.546 -0.3626  1.3824 -1.4726
12134TIP3    H257894   2.018   6.448  11.637  1.2395 -1.9939  0.1434
12135TIP3   OH257895   1.253   3.055   2.356 -0.1017 -0.3026  0.0097
12135TIP3    H157896   1.337   3.028   2.319 -0.0176 -1.0065  0.6981
12135TIP3    H257897   1.228   3.131   2.304 -0.0025 -1.2705 -1.5069
12136TIP3   OH257898   4.958   4.296   0.194 -0.6259  0.0606 -0.4008
12136TIP3    H157899   4.901   4.290   0.271  0.7151  0.7826  0.6850
12136TIP3    H257900   4.969   4.389   0.180  2.5179  0.0693  1.2002
12137TIP3   OH257901   5.582   1.532   2.522  0.7743 -0.2002 -0.1377
12137TIP3    H157902   5.645   1.532   2.450  1.0574  0.8704  0.0953
12137TIP3    H257903   5.521   1.603   2.501  0.2650 -0.5344  0.1810
12138TIP3   OH257904   2.338   0.049   4.481  0.4735  0.3107 -0.2443
12138TIP3    H157905   2.343   0.016   4.571 -0.5125  0.2643 -0.1883
12138TIP3    H257906   2.354  -0.029   4.427 -2.1207 -0.4301 -0.1134
12139TIP3   OH257907   4.412   4.642   0.473 -0.6393 -0.0177 -0.0429
12139TIP3    H157908   4.426   4.717   0.414 -0.8043 -0.8660 -1.1870
12139TIP3    H257909   4.324   4.611   0.453 -0.4548 -0.7192  0.1947
12140TIP3   OH257910   0.182   1.277   0.152 -0.0857 -0.1647  0.3680
12140TIP3    H157911   0.228   1.328   0.086  2.0863 -0.8881  1.2390
12140TIP3    H257912   0.196   1.186   0.127 -1.5696 -0.4306  0.3679
12141TIP3   OH257913   6.419   5.658   1.243  0.0821 -0.2709 -0.2865
12141TIP3    H157914   6.382   5.702   1.320 -0.2118 -0.3325 -0.3897
12141TIP3    H257915   6.462   5.727   1.194 -0.0959 -0.1548 -0.2804
12142TIP3   OH257916   5.556   5.515   2.487 -0.0727  0.1117 -0.1746
12142TIP3    H157917   5.623   5.485   2.548  0.8232  0.2938 -1.0378
12142TIP3    H257918   5.475   5.479   2.520  0.5461 -0.6446  0.5490
12143TIP3   OH257919   2.152   0.055  14.420 -0.0103  0.3767  0.4926
12143TIP3    H157920   2.168   0.149  14.412 -0.3248  0.3558 -0.4727
12143TIP3    H257921   2.233   0.021  14.460  0.4867  0.9289 -0.0191
12144TIP3   OH257922   3.222   2.955  11.839  0.4511  0.2574 -0.6933
12144TIP3    H157923   3.279   2.953  11.916 -0.5063  0.0776  0.0284
12144TIP3    H257924   3.168   2.876  11.848  0.1372  0.3883 -1.4010
12145TIP3   OH257925   4.437   2.779  15.066  0.0251 -0.4371 -0.3618
12145TIP3    H157926   4.352   2.789  15.025 -0.6562 -0.2722  1.0212
12145TIP3    H257927   4.458   2.686  15.057 -0.4843 -0.5531 -0.3806
12146TIP3   OH257928   4.321   4.923   3.536  0.1489 -0.1381 -0.1057
12146TIP3    H157929   4.388   4.896   3.473  1.0240 -1.5806  1.3673
12146TIP3    H257930   4.258   4.973   3.484 -1.5819 -4.8108 -3.2244
12147TIP3   OH257931   0.917   3.994  11.444 -0.1221 -0.0875 -0.5396
12147TIP3    H157932   0.989   4.055  11.459 -1.4120  1.4873 -0.4136
12147TIP3    H257933   0.952   3.930  11.383  1.4341  0.5050 -0.3153
12148TIP3   OH257934   2.998   1.366   5.526 -0.1691  0.0532 -0.8177
12148TIP3    H157935   3.019   1.424   5.453 -0.6205 -0.5143 -1.4084
12148TIP3    H257936   2.920   1.319   5.498 -0.8621  0.4288  0.3767
12149TIP3   OH257937   3.648   1.169  13.936  0.1007  0.4662 -0.5779
12149TIP3    H157938   3.743   1.182  13.936  0.0195  1.5074  1.3610
12149TIP3    H257939   3.629   1.131  13.850  2.0440  1.8284 -1.7044
12150TIP3   OH257940   1.006   4.406   2.803 -0.2256 -0.3288  0.5833
12150TIP3    H157941   1.061   4.481   2.825 -1.7100  1.1447 -0.3940
12150TIP3    H257942   0.933   4.445   2.753 -1.9749 -2.1976  1.5623
12151TIP3   OH257943   0.960   2.295  13.874 -0.2535 -0.2450  0.1157
12151TIP3    H157944   1.034   2.334  13.920  0.5949 -1.5500 -0.0830
12151TIP3    H257945   0.936   2.359  13.807 -1.2439  1.5072  2.0414
12152TIP3   OH257946   6.603   5.472   4.762 -0.4470 -0.1173  0.7963
12152TIP3    H157947   6.560   5.473   4.676 -1.9092  3.2517  1.3815
12152TIP3    H257948   6.680   5.416   4.750 -0.1163  0.8435 -2.9702
12153TIP3   OH257949   2.137   3.705   1.636 -0.2909 -0.0051  0.0259
12153TIP3    H157950   2.072   3.774   1.623 -0.9138 -0.2053  1.7789
12153TIP3    H257951   2.094   3.643   1.695  0.7930 -1.1374 -0.3503
12154TIP3   OH257952   0.436   6.810   0.844 -0.1435  0.4814  0.1378
12154TIP3    H157953   0.521   6.769   0.863 -0.2663  0.2556  0.2034
12154TIP3    H257954   0.371   6.743   0.867 -0.3364  0.6165 -0.0073
12155TIP3   OH257955   5.911   1.086  12.712  0.1542 -0.1866 -0.3049
12155TIP3    H157956   5.905   0.992  12.731  0.4388 -0.3076 -0.7817
12155TIP3    H257957   5.899   1.091  12.617 -0.2622  0.3010 -0.2262
12156TIP3   OH257958   3.536   5.222  11.557  0.2960  0.3986  0.1400
12156TIP3    H157959   3.604   5.155  11.553 -0.0548 -0.0522  1.2827
12156TIP3    H257960   3.530   5.256  11.468 -0.4353 -2.0155 -0.8078
12157TIP3   OH257961   6.005   5.936  11.949  0.1859  0.2107 -0.3127
12157TIP3    H157962   6.034   5.869  12.010 -1.4908  0.3753  0.7128
12157TIP3    H257963   6.073   5.937  11.881  1.1266 -1.2863  0.5469
12158TIP3   OH257964   6.526   5.974  13.240 -0.5297 -0.1243 -0.2561
12158TIP3    H157965   6.493   6.006  13.156 -0.8402  1.6986  0.5256
12158TIP3    H257966   6.466   6.010  13.305  1.6865  1.4971  1.0339
12159TIP3   OH257967   3.717   3.660  12.910  0.6940  0.1037 -0.2079
12159TIP3    H157968   3.705   3.747  12.871  0.6936  0.1217 -0.1675
12159TIP3    H257969   3.680   3.599  12.846 -0.2395  0.2129  0.2101
12160TIP3   OH257970   6.326   1.233   1.442  0.9449 -0.5403 -0.3746
12160TIP3    H157971   6.261   1.210   1.507  1.8502 -1.0568  0.3765
12160TIP3    H257972   6.278   1.240   1.360 -0.3753  0.9721  0.4717
12161TIP3   OH257973   1.211   0.234   1.739  0.4392  0.1257 -0.0713
12161TIP3    H157974   1.280   0.270   1.794  0.2945 -1.5568  1.3045
12161TIP3    H257975   1.239   0.144   1.722 -1.5635 -0.7178  0.8420
12162TIP3   OH257976   5.493   5.451   2.202  1.1691 -0.5222 -0.2555
12162TIP3    H157977   5.466   5.416   2.287  2.4773  0.4029  0.5858
12162TIP3    H257978   5.520   5.541   2.221  1.6405 -0.3510 -1.6223
12163TIP3   OH257979   3.334   1.311  15.612 -0.1383 -0.0955  0.0213
12163TIP3    H157980   3.388   1.359  15.676  1.1903  1.3660 -2.0758
12163TIP3    H257981   3.397   1.261  15.560 -1.1994 -1.3074 -0.1585
12164TIP3   OH257982   6.294   3.949   2.639 -0.1325 -0.5815  0.3980
12164TIP3    H157983   6.297   4.018   2.706  0.6731  1.0768 -1.2525
12164TIP3    H257984   6.384   3.941   2.608 -0.8326  0.5858 -2.2347
12165TIP3   OH257985   5.580   6.758   0.439  0.2801 -0.2669 -0.1907
12165TIP3    H157986   5.660   6.809   0.451  0.7934 -0.8648 -0.9625
12165TIP3    H257987   5.543   6.750   0.527  0.9547  0.1854  0.1457
12166TIP3   OH257988   5.322   1.129  10.996 -0.3434 -0.5030  0.0319
12166TIP3    H157989   5.231   1.155  11.008  0.1780  0.3896  2.6109
12166TIP3    H257990   5.320   1.068  10.922 -3.2593 -1.7060  0.9728
12167TIP3   OH257991   1.523   1.694   1.885 -0.1450  0.3215 -0.7456
12167TIP3    H157992   1.601   1.747   1.901  0.0870 -0.6253  1.5490
12167TIP3    H257993   1.464   1.716   1.957 -0.7810 -1.2093 -0.7730
12168TIP3   OH257994   4.418   1.439  16.355  0.4094  0.1063  0.4532
12168TIP3    H157995   4.448   1.452  16.265 -2.1984  3.1981 -0.1558
12168TIP3    H257996   4.379   1.352  16.355  2.3287 -0.8233 -0.7517
12169TIP3   OH257997   4.252   1.435   5.435  0.2735 -0.2286  0.4194
12169TIP3    H157998   4.175   1.394   5.396  0.0467  1.9458 -1.6468
12169TIP3    H257999   4.222   1.469   5.519 -0.8987  0.1337 -0.1253
12170TIP3   OH258000   4.324   0.442  16.831 -0.1574  0.0118  0.2981
12170TIP3    H158001   4.400   0.394  16.798  0.2651  0.7664  0.1541
12170TIP3    H258002   4.274   0.465  16.753 -0.7782 -0.8647  0.4214
12171TIP3   OH258003   4.141   4.312  10.892 -0.0018 -0.1629 -0.2556
12171TIP3    H158004   4.184   4.259  10.825  1.2816  1.1588 -0.5224
12171TIP3    H258005   4.200   4.386  10.906 -0.4698 -0.1482  1.9858
12172TIP3   OH258006   2.994   2.972   2.936 -0.0192 -0.2955  0.0111
12172TIP3    H158007   2.995   3.041   2.869 -0.0666 -0.5081 -0.2113
12172TIP3    H258008   2.966   2.894   2.889  0.1688 -0.4986  0.2343
12173TIP3   OH258009   2.550   0.259  14.257  0.2625 -0.1598 -0.0015
12173TIP3    H158010   2.630   0.289  14.216  0.1854 -0.3953 -0.3284
12173TIP3    H258011   2.491   0.334  14.254  0.0076 -0.3816 -0.9749
12174TIP3   OH258012   6.777   4.890  15.674 -0.8137 -0.0786 -0.1559
12174TIP3    H158013   6.724   4.933  15.741  1.2643 -1.0283  2.2744
12174TIP3    H258014   6.826   4.962  15.633  0.6233  0.2983  1.9986
12175TIP3   OH258015   6.191   3.653   6.639 -0.4559  0.8406  0.6199
12175TIP3    H158016   6.102   3.671   6.606 -0.7781 -1.4601  0.0832
12175TIP3    H258017   6.228   3.740   6.656 -2.2982  1.9118 -0.4971
12176TIP3   OH258018   5.138   4.311   3.830 -0.3104  0.4727 -0.4157
12176TIP3    H158019   5.216   4.334   3.881 -0.3991 -0.1071 -0.0076
12176TIP3    H258020   5.109   4.394   3.792  1.5681  0.4112 -2.1029
12177TIP3   OH258021   4.411   5.971  12.702 -0.5169  0.3995  0.1900
12177TIP3    H158022   4.441   5.881  12.719 -1.2983 -0.5729 -2.8573
12177TIP3    H258023   4.329   5.960  12.654 -0.0394  2.6776 -1.3038
12178TIP3   OH258024   1.150   4.503   5.060  0.1278 -0.3157  1.5320
12178TIP3    H158025   1.085   4.493   5.129 -0.0862 -1.0588  1.2378
12178TIP3    H258026   1.206   4.425   5.069 -0.9540 -1.3618 -0.2136
12179TIP3   OH258027   5.970   2.382   5.258  0.0328 -0.3508  0.1431
12179TIP3    H158028   6.035   2.340   5.202 -0.8890  0.7162 -1.8306
12179TIP3    H258029   5.901   2.316   5.267  1.0073 -1.2277  1.6708
12180TIP3   OH258030   1.405   4.989   0.377  0.0594 -0.0937 -0.7636
12180TIP3    H158031   1.451   5.074   0.374 -1.8057  1.0445  0.6018
12180TIP3    H258032   1.347   4.991   0.302 -1.2021  0.6396  0.1874
12181TIP3   OH258033   4.818   3.885  14.180  0.2059  0.1208  0.4922
12181TIP3    H158034   4.833   3.874  14.274 -0.9734 -1.9008  0.5048
12181TIP3    H258035   4.848   3.974  14.161 -0.1258  0.8190  2.8922
12182TIP3   OH258036   3.286   0.390   5.482 -0.2584 -0.0660  0.2500
12182TIP3    H158037   3.337   0.375   5.561  0.8560 -0.2191 -0.4673
12182TIP3    H258038   3.290   0.307   5.434 -1.0724 -0.0346  0.1050
12183TIP3   OH258039   0.038   4.662  12.956 -0.2626  0.3397 -0.4002
12183TIP3    H158040   0.067   4.712  13.032  1.1552 -1.3942  0.2530
12183TIP3    H258041  -0.028   4.602  12.991 -0.9775  0.7862 -0.9337
12184TIP3   OH258042   5.402   1.001   4.124 -0.2513 -0.1501  0.3297
12184TIP3    H158043   5.445   1.030   4.204  1.6114  0.2559 -0.7619
12184TIP3    H258044   5.473   0.978   4.065 -1.3876  2.3358 -2.2667
12185TIP3   OH258045   4.658   5.824  11.542  0.4284 -0.5811  0.2876
12185TIP3    H158046   4.575   5.853  11.579  1.0525  0.3335  1.0079
12185TIP3    H258047   4.633   5.772  11.465 -0.7856  0.3209  0.0384
12186TIP3   OH258048   4.034   0.006   0.711 -0.0364 -0.4074 -0.2557
12186TIP3    H158049   4.036   0.035   0.802 -2.4572 -0.4648 -0.1200
12186TIP3    H258050   4.024  -0.089   0.716 -0.6687 -0.3613 -0.5535
12187TIP3   OH258051   0.393   1.742   5.879 -0.3840 -0.7401  0.0493
12187TIP3    H158052   0.442   1.775   5.954 -0.1254  1.8939 -1.1611
12187TIP3    H258053   0.459   1.708   5.820 -0.1225  0.9254 -0.6841
12188TIP3   OH258054   0.616   6.104  12.414 -0.0603  0.6290  0.1981
12188TIP3    H158055   0.562   6.164  12.362 -0.8825 -1.5092 -1.5724
12188TIP3    H258056   0.675   6.064  12.350  0.4203 -0.4657  1.2940
12189TIP3   OH258057   3.330   5.788  14.457  0.2247  0.7105 -0.5650
12189TIP3    H158058   3.268   5.789  14.530  0.3665 -0.8080 -0.3911
12189TIP3    H258059   3.416   5.785  14.499  0.3113 -0.0196 -0.7652
12190TIP3   OH258060   3.092   4.659   0.703  0.2319  0.3125 -0.4434
12190TIP3    H158061   3.004   4.623   0.689 -0.1493  0.6269  0.9603
12190TIP3    H258062   3.104   4.656   0.798  1.2287  1.4653 -0.5110
12191TIP3   OH258063   6.485   5.091   6.489 -0.5596 -0.1757 -0.2740
12191TIP3    H158064   6.480   5.173   6.539 -0.3547  1.4850 -2.7898
12191TIP3    H258065   6.397   5.081   6.452 -0.6527 -1.2798  0.1916
12192TIP3   OH258066   2.621   0.463  15.644  0.0903 -0.1413  0.3058
12192TIP3    H158067   2.530   0.494  15.638  0.0446  0.0772  1.6715
12192TIP3    H258068   2.664   0.527  15.699  0.1679 -2.0627  2.6579
12193TIP3   OH258069   6.546   5.388   3.947  0.1707 -0.0360 -0.0251
12193TIP3    H158070   6.498   5.395   4.030 -1.9139 -1.9099 -0.9652
12193TIP3    H258071   6.527   5.470   3.902  0.4609  0.5580  0.8989
12194TIP3   OH258072   0.680   0.306  14.922 -0.1829 -0.3505  0.7216
12194TIP3    H158073   0.726   0.249  14.983 -0.7936 -0.8206  0.7486
12194TIP3    H258074   0.743   0.321  14.851  1.1110  1.4363  2.1380
12195TIP3   OH258075   3.741   1.546   1.348 -0.1336  0.1285 -0.2260
12195TIP3    H158076   3.690   1.511   1.421 -0.4010 -0.9267 -0.9117
12195TIP3    H258077   3.815   1.590   1.390 -1.4915  1.5577  0.7781
12196TIP3   OH258078   2.608   6.195  12.585 -0.1189  0.1591 -0.0099
12196TIP3    H158079   2.691   6.152  12.564 -0.4585 -0.1711 -0.7017
12196TIP3    H258080   2.625   6.240  12.667  1.1748  1.2444 -0.8295
12197TIP3   OH258081   4.734   1.608  16.057 -0.4735 -0.6995 -0.6042
12197TIP3    H158082   4.734   1.628  16.151 -1.4177  0.6829 -0.8768
12197TIP3    H258083   4.823   1.577  16.040  1.0758  2.9009  0.0157
12198TIP3   OH258084   2.875   2.082   5.504 -0.0655 -0.0781 -0.8660
12198TIP3    H158085   2.846   2.079   5.412 -4.0595 -0.6903  0.2252
12198TIP3    H258086   2.864   1.992   5.534 -1.2576  0.6032  0.8286
12199TIP3   OH258087   5.310   5.526  11.062 -0.0488 -0.5450  0.0520
12199TIP3    H158088   5.356   5.520  10.979 -1.1872  0.2966 -0.6674
12199TIP3    H258089   5.272   5.439  11.075  1.7055 -1.2734  0.6829
12200TIP3   OH258090   3.410   0.305  15.469  0.2218  0.3716 -0.3846
12200TIP3    H158091   3.492   0.306  15.520  0.2033  0.2883 -0.3543
12200TIP3    H258092   3.369   0.222  15.491  0.1123  0.4281 -0.3744
12201TIP3   OH258093   0.687   4.213   4.097  0.4314 -0.2762 -0.2637
12201TIP3    H158094   0.660   4.256   4.016 -0.0768 -0.5939 -0.2632
12201TIP3    H258095   0.778   4.242   4.109  1.0214 -1.3767 -1.7240
12202TIP3   OH258096   4.182   2.691   0.170  0.8155 -0.5287 -0.1564
12202TIP3    H158097   4.096   2.650   0.176  0.8583 -0.3730  3.0002
12202TIP3    H258098   4.170   2.776   0.211  2.3720 -0.2742 -0.1945
12203TIP3   OH258099   2.102   2.777  13.085  0.1116 -0.9105  0.1875
12203TIP3    H158100   2.069   2.854  13.130  1.1155  0.8264 -1.8682
12203TIP3    H258101   2.132   2.719  13.155 -0.6924  0.5425  1.7930
12204TIP3   OH258102   4.388   4.776   1.743  0.4103  0.7421 -0.0601
12204TIP3    H158103   4.364   4.837   1.674 -0.3994  0.8207  0.2851
12204TIP3    H258104   4.452   4.824   1.796 -2.0091  2.3001  1.6732
12205TIP3   OH258105   2.060   0.735  16.659 -0.3210  0.0590  0.2794
12205TIP3    H158106   2.023   0.820  16.638 -1.3215 -0.9462 -2.4897
12205TIP3    H258107   2.114   0.712  16.583 -1.0708 -2.2731  0.3466
12206TIP3   OH258108   6.420   1.945  15.082 -0.0584  0.3945 -0.7044
12206TIP3    H158109   6.396   2.000  15.156  5.6434  1.3888  0.8542
12206TIP3    H258110   6.417   1.856  15.116  1.9025  0.7975  0.6546
12207TIP3   OH258111   2.736   5.198   5.464  0.1382  0.1302 -0.3861
12207TIP3    H158112   2.687   5.157   5.393 -0.6512 -0.6903  0.5835
12207TIP3    H258113   2.823   5.216   5.427 -0.7709  1.2895 -2.0361
12208TIP3   OH258114   5.936   2.827  15.074  0.2048  0.4126  0.0657
12208TIP3    H158115   5.855   2.803  15.030 -0.0594  1.3834  0.0043
12208TIP3    H258116   6.003   2.773  15.033 -0.3981 -0.3735  0.0928
12209TIP3   OH258117   5.117   4.115  16.736 -0.4585  0.5996  0.7671
12209TIP3    H158118   5.062   4.149  16.665  0.8338 -0.0803 -0.6097
12209TIP3    H258119   5.095   4.022  16.741  0.4112  0.3644  0.3338
12210TIP3   OH258120   0.166   5.296  11.801 -0.4096 -0.0087 -0.0163
12210TIP3    H158121   0.254   5.263  11.787 -0.5060 -0.8162  1.1230
12210TIP3    H258122   0.178   5.385  11.835 -0.1431  1.1073 -2.7638
12211TIP3   OH258123   3.339   1.723  15.086  0.2914 -0.1822  0.1195
12211TIP3    H158124   3.361   1.662  15.156  0.6803 -0.3099 -0.1064
12211TIP3    H258125   3.262   1.770  15.118  0.5680 -0.1156  0.7057
12212TIP3   OH258126   0.820   1.455   0.457  0.3811  0.0226 -0.2249
12212TIP3    H158127   0.897   1.466   0.401  1.1276  0.6074  0.8988
12212TIP3    H258128   0.854   1.458   0.546 -1.0547  1.2759  0.3179
12213TIP3   OH258129   1.323   1.804   2.209  0.4365  0.1253 -0.1197
12213TIP3    H158130   1.287   1.892   2.205  2.0936  0.7978 -1.5260
12213TIP3    H258131   1.275   1.755   2.142  1.0375  0.5929 -0.9087
12214TIP3   OH258132   1.182   5.254   0.491  0.2322 -0.4202  0.2786
12214TIP3    H158133   1.140   5.340   0.491  0.9107 -0.0850  0.1293
12214TIP3    H258134   1.213   5.242   0.401  0.4074 -0.6948  0.3754
12215TIP3   OH258135   5.046   6.278  16.062 -0.1118 -0.0465 -0.5636
12215TIP3    H158136   5.014   6.189  16.049 -0.4757  0.3230 -2.5694
12215TIP3    H258137   5.126   6.283  16.011  0.1508  0.6503 -0.0985
12216TIP3   OH258138   1.621   0.046  15.705 -0.7886 -0.0124  0.0402
12216TIP3    H158139   1.676  -0.032  15.714  1.1429  1.1228 -1.0281
12216TIP3    H258140   1.562   0.043  15.780 -0.3015 -2.1147  0.4003
12217TIP3   OH258141   1.804   4.606   2.817 -0.3713  0.0125  0.3346
12217TIP3    H158142   1.729   4.547   2.826  0.0811 -0.5335  0.5398
12217TIP3    H258143   1.877   4.558   2.854  0.0219  0.6740  0.4304
12218TIP3   OH258144   4.970   6.101   5.380 -0.1548 -0.2153 -0.5267
12218TIP3    H158145   4.991   6.137   5.466 -0.3764 -0.9255 -0.1709
12218TIP3    H258146   5.056   6.083   5.341 -0.0408 -1.7130  0.3330
12219TIP3   OH258147   5.297   3.033   5.722  0.0098  0.3876  0.2553
12219TIP3    H158148   5.377   3.036   5.671 -0.5277  1.4235 -0.5822
12219TIP3    H258149   5.312   3.094   5.794 -0.2856  1.1830 -0.3386
12220TIP3   OH258150   0.900   2.695   5.608  0.5860 -0.6764 -0.6255
12220TIP3    H158151   0.817   2.741   5.597  0.8845  0.2358  0.6713
12220TIP3    H258152   0.961   2.762   5.640  1.0108 -1.9713  1.4365
12221TIP3   OH258153   2.453   6.605  11.551  0.2274 -0.0949  0.0853
12221TIP3    H158154   2.484   6.518  11.577 -0.4874 -0.1160  0.9308
12221TIP3    H258155   2.507   6.666  11.601 -0.4150 -0.1077  0.8132
12222TIP3   OH258156   4.300   1.331   3.342  0.0031  0.3081 -0.3013
12222TIP3    H158157   4.270   1.361   3.256  0.1500  0.2194 -0.3820
12222TIP3    H258158   4.283   1.237   3.342 -0.1657  0.3376 -0.1646
12223TIP3   OH258159   0.744   4.609  11.486 -0.3716 -0.2023 -0.0302
12223TIP3    H158160   0.760   4.617  11.580  0.9491 -3.3198  0.1172
12223TIP3    H258161   0.648   4.605  11.478 -0.4854 -0.1529  1.1989
12224TIP3   OH258162   4.481   2.429  13.160 -0.4915 -0.2140 -0.2090
12224TIP3    H158163   4.408   2.487  13.137 -0.0939  0.3560 -0.0585
12224TIP3    H258164   4.445   2.341  13.153 -0.4779 -0.0913 -2.7478
12225TIP3   OH258165   1.612   0.255  11.450  0.2899  0.0050 -0.2904
12225TIP3    H158166   1.574   0.314  11.515  0.0080  0.6446 -1.0157
12225TIP3    H258167   1.552   0.180  11.449 -0.6785  0.7506 -1.0137
12226TIP3   OH258168   0.348   0.770  13.393 -0.5998  0.3385  0.2957
12226TIP3    H158169   0.316   0.680  13.398 -0.9393  0.4596  0.3367
12226TIP3    H258170   0.277   0.823  13.429 -0.7957  0.7133 -0.6260
12227TIP3   OH258171   2.824   2.249   1.590  0.2505  0.3130 -0.7003
12227TIP3    H158172   2.892   2.182   1.587  0.4471  0.3833  0.8740
12227TIP3    H258173   2.832   2.286   1.678  0.8389  3.1317 -1.8279
12228TIP3   OH258174   0.830   2.106   5.087 -0.0022  0.0162  0.2342
12228TIP3    H158175   0.900   2.078   5.146  0.4145 -1.1471 -0.7880
12228TIP3    H258176   0.762   2.039   5.096  0.3025 -0.4783 -1.0047
12229TIP3   OH258177   5.465   2.423   5.486  0.3202 -0.3724  0.1270
12229TIP3    H158178   5.423   2.401   5.570  0.0449 -1.0877 -0.1898
12229TIP3    H258179   5.426   2.507   5.461 -1.2561 -1.1902 -0.3504
12230TIP3   OH258180   3.427   4.537   5.821  0.0903  0.0499  0.2946
12230TIP3    H158181   3.335   4.527   5.796  0.1870  1.6521 -0.8994
12230TIP3    H258182   3.475   4.479   5.763  0.0035  1.0777 -0.8517
12231TIP3   OH258183   6.447   2.978   5.984 -0.0734  0.2311 -0.7080
12231TIP3    H158184   6.448   3.072   5.969 -1.0048 -0.0770 -3.2154
12231TIP3    H258185   6.539   2.953   5.987  0.2653  0.8557 -3.3671
12232TIP3   OH258186   5.115   2.197  16.775 -0.0609  0.1258 -0.4360
12232TIP3    H158187   5.102   2.238  16.860  0.6751  0.2662 -0.3879
12232TIP3    H258188   5.203   2.222  16.749 -0.4591  0.5049 -1.4751
12233TIP3   OH258189   2.065   4.474  12.621  0.0577 -0.6153 -0.2616
12233TIP3    H158190   2.137   4.507  12.567  0.7037 -0.9907  0.3472
12233TIP3    H258191   2.092   4.386  12.646 -0.0323 -0.3117  0.9854
12234TIP3   OH258192   6.303   2.813  11.529 -0.4149 -0.2033 -0.6241
12234TIP3    H158193   6.217   2.783  11.558 -0.4915  0.2598 -0.3565
12234TIP3    H258194   6.354   2.732  11.518 -0.8675 -0.4777 -0.7466
12235TIP3   OH258195   4.010   2.979  17.157  0.1385 -0.3364 -0.3804
12235TIP3    H158196   4.015   2.884  17.143 -1.5880 -0.3721 -1.0535
12235TIP3    H258197   3.922   3.002  17.126  1.1166  1.7548 -1.8201
12236TIP3   OH258198   2.066   0.680  14.740  0.0163  0.1323 -0.5131
12236TIP3    H158199   2.073   0.633  14.657 -0.3180  1.7267 -1.4814
12236TIP3    H258200   1.988   0.644  14.781 -0.1607 -0.2505 -1.1629
12237TIP3   OH258201   1.865   1.748   4.668  0.4136 -0.2982  0.0038
12237TIP3    H158202   1.834   1.658   4.673  0.9492 -0.5335 -0.7035
12237TIP3    H258203   1.863   1.769   4.575  0.2631  0.4368  0.1677
12238TIP3   OH258204   3.507   0.693  14.124 -0.4698 -0.5778 -0.3880
12238TIP3    H158205   3.588   0.672  14.077  0.2028  1.2920 -0.1223
12238TIP3    H258206   3.523   0.663  14.214  0.1158  0.1892 -0.2274
12239TIP3   OH258207   3.499   0.276   1.024  0.5547 -0.1552 -0.0795
12239TIP3    H158208   3.520   0.273   0.931 -0.7739  0.4365 -0.4296
12239TIP3    H258209   3.424   0.336   1.030 -1.7788 -2.8986  0.8642
12240TIP3   OH258210   2.231   1.295   1.379 -0.5726 -0.8461 -1.1255
12240TIP3    H158211   2.153   1.328   1.425  0.8814  0.9562  0.1638
12240TIP3    H258212   2.226   1.336   1.293 -0.6563 -0.0887 -0.7733
12241TIP3   OH258213   2.820   0.864  11.176 -0.0844 -0.2039  0.0863
12241TIP3    H158214   2.790   0.937  11.229  0.6259 -0.7766  1.3367
12241TIP3    H258215   2.854   0.800  11.240  1.0582 -0.8033 -1.0592
12242TIP3   OH258216   1.835   1.514   1.671  0.0132  0.0649  0.4018
12242TIP3    H158217   1.922   1.480   1.691  0.6544  0.9907 -0.7006
12242TIP3    H258218   1.841   1.607   1.691 -0.3826  0.3407 -0.7215
12243TIP3   OH258219   2.002   5.145   6.316  0.0695 -0.2836  0.4781
12243TIP3    H158220   2.097   5.154   6.302  0.2078 -0.7169  1.0994
12243TIP3    H258221   1.967   5.126   6.228  0.5896 -0.3554  0.2820
12244TIP3   OH258222   2.926   5.279   5.097 -0.1818  0.1405  0.5124
12244TIP3    H158223   2.982   5.356   5.097  0.8499 -0.5969  1.2650
12244TIP3    H258224   2.846   5.308   5.141 -0.2961  1.1066 -0.2828
12245TIP3   OH258225   2.537   4.770   1.669 -0.0540  0.1002  0.1290
12245TIP3    H158226   2.590   4.693   1.689  0.1248  0.2487  0.2327
12245TIP3    H258227   2.496   4.751   1.585  0.9025  0.3758 -0.4173
12246TIP3   OH258228   1.633   2.667   6.462  0.5683  0.5124 -0.2561
12246TIP3    H158229   1.722   2.635   6.481  1.1471  0.3936 -2.8629
12246TIP3    H258230   1.640   2.762   6.475  0.8978  0.4357  0.1719
12247TIP3   OH258231   4.558   5.737   0.286 -0.4602 -0.0934 -0.1252
12247TIP3    H158232   4.539   5.826   0.256  1.2466  0.9865  1.7415
12247TIP3    H258233   4.513   5.730   0.371 -0.8458 -1.1495 -0.4051
12248TIP3   OH258234   6.304   5.132  15.919  0.0613 -1.1180  0.0573
12248TIP3    H158235   6.358   5.211  15.930 -2.1851  0.4868  0.2872
12248TIP3    H258236   6.241   5.156  15.851 -1.2838 -2.3684  0.8285
12249TIP3   OH258237   4.033   6.716  11.176  0.0858 -0.3526 -0.0080
12249TIP3    H158238   4.021   6.697  11.269  1.8637  0.3014  0.4008
12249TIP3    H258239   3.974   6.789  11.158  0.2222 -0.0341  0.7979
12250TIP3   OH258240   0.663   0.221  11.014 -0.5890  0.0429  0.1534
12250TIP3    H158241   0.706   0.293  11.059 -1.2337  0.2561  0.4264
12250TIP3    H258242   0.598   0.188  11.076 -0.1070 -0.9710  0.1553
12251TIP3   OH258243   4.470   3.257  15.441 -0.4569  0.0176  0.1972
12251TIP3    H158244   4.376   3.272  15.452 -0.6093  0.4199 -1.4993
12251TIP3    H258245   4.512   3.330  15.487 -1.0159  0.7888 -0.4965
12252TIP3   OH258246   4.631   2.262   0.655  1.3029 -0.7513  0.6010
12252TIP3    H158247   4.719   2.241   0.622  0.4227 -1.4410 -1.4421
12252TIP3    H258248   4.578   2.272   0.576 -0.1973  0.9168  1.7667
12253TIP3   OH258249   6.524   3.951   3.612  0.1422 -0.1390  0.2353
12253TIP3    H158250   6.537   3.856   3.607  0.1781 -0.0956 -0.6057
12253TIP3    H258251   6.613   3.987   3.608  0.0911 -0.0475 -0.1046
12254TIP3   OH258252   5.263   0.853  17.032  0.0119 -0.3131 -0.1687
12254TIP3    H158253   5.188   0.798  17.055  0.8942 -1.5198 -0.1192
12254TIP3    H258254   5.285   0.826  16.943 -0.4583  1.0309 -0.7235
12255TIP3   OH258255   1.155   3.614   2.278  0.2670  0.0921  0.1693
12255TIP3    H158256   1.232   3.605   2.222  0.7785 -1.4179  1.0317
12255TIP3    H258257   1.186   3.585   2.364 -1.0739  0.2061  0.7030
12256TIP3   OH258258   2.012   2.121  12.271  0.1576 -0.7228 -0.1612
12256TIP3    H158259   1.927   2.143  12.234  0.8971  1.3319 -0.7931
12256TIP3    H258260   2.004   2.140  12.364 -0.3845 -1.6652  0.0035
12257TIP3   OH258261   0.433   5.913  12.759 -0.7351 -0.0552  0.8371
12257TIP3    H158262   0.492   5.839  12.769 -1.1331 -0.9527 -2.4800
12257TIP3    H258263   0.375   5.889  12.687 -1.9458  2.8235  0.6926
12258TIP3   OH258264   5.819   5.721   2.025  0.4067  0.2895 -0.7582
12258TIP3    H158265   5.813   5.816   2.017 -0.5188  0.2701 -0.3862
12258TIP3    H258266   5.787   5.702   2.113  1.9322 -0.2603 -0.3014
12259TIP3   OH258267   4.380   3.635  16.133 -0.0100  0.0203 -0.2937
12259TIP3    H158268   4.372   3.592  16.218 -2.2263  1.6031  0.3841
12259TIP3    H258269   4.376   3.728  16.154  1.4370  0.5085 -1.9956
12260TIP3   OH258270   0.284   5.741  13.381 -0.0659 -0.2274  0.2661
12260TIP3    H158271   0.204   5.790  13.361 -0.4657 -0.5337  1.0709
12260TIP3    H258272   0.335   5.800  13.437  0.4454  0.1027 -0.5205
12261TIP3   OH258273   0.621   6.025  16.479 -0.5213  0.5628  0.8903
12261TIP3    H158274   0.551   6.049  16.418  0.0811  0.1456  0.0166
12261TIP3    H258275   0.579   6.029  16.565 -1.6251  0.3333  0.3920
12262TIP3   OH258276   2.127   3.680  11.653  0.1249  0.1393 -0.4830
12262TIP3    H158277   2.208   3.629  11.649  1.2935  1.8853 -0.3666
12262TIP3    H258278   2.152   3.766  11.619 -1.3602  1.1044  0.7517
12263TIP3   OH258279   1.981   4.131  13.908 -0.4642 -0.4755  0.2275
12263TIP3    H158280   1.995   4.110  13.816 -0.9217  0.4514 -0.0634
12263TIP3    H258281   1.886   4.127  13.919 -0.4082 -0.6168  0.6720
12264TIP3   OH258282   4.405   0.545  12.131 -0.2820  0.0282  0.4003
12264TIP3    H158283   4.463   0.588  12.068 -1.4970  1.4623  0.1948
12264TIP3    H258284   4.421   0.591  12.213 -1.3104  0.6414  0.2729
12265TIP3   OH258285   1.715   1.575  12.789 -0.6046 -0.4867  0.4927
12265TIP3    H158286   1.738   1.633  12.716 -0.4610 -1.0784  0.0573
12265TIP3    H258287   1.790   1.517  12.799 -1.7394 -2.2892 -0.7935
12266TIP3   OH258288   5.818   2.479   1.357  0.6223 -0.1828  0.4068
12266TIP3    H158289   5.754   2.490   1.287  2.3052 -1.0185 -1.3700
12266TIP3    H258290   5.853   2.568   1.371  0.1617  0.0186  0.3000
12267TIP3   OH258291   0.249   4.699  11.426  0.1882  0.3485 -0.3249
12267TIP3    H158292   0.268   4.786  11.462 -2.1865  0.9416 -0.3899
12267TIP3    H258293   0.240   4.713  11.332 -0.5324  0.1171 -0.2969
12268TIP3   OH258294   3.635   1.377   3.535 -0.1564  0.1563  0.0336
12268TIP3    H158295   3.550   1.343   3.563 -0.3409 -0.4252 -1.1479
12268TIP3    H258296   3.661   1.438   3.604 -0.7166 -0.9641  1.2570
12269TIP3   OH258297   3.510   6.312  11.943  0.1836  0.1484  0.2883
12269TIP3    H158298   3.443   6.302  12.010 -0.9553 -1.0432 -0.9524
12269TIP3    H258299   3.470   6.369  11.877  1.2323  1.1950  0.5293
12270TIP3   OH258300   3.167   2.809  16.199 -0.0396 -0.2668 -0.3387
12270TIP3    H158301   3.164   2.801  16.294  1.9178 -1.8006 -0.3571
12270TIP3    H258302   3.115   2.735  16.167  0.0192 -0.2547 -0.4630
12271TIP3   OH258303   1.293   4.261   2.848 -0.2378 -0.2183 -1.0156
12271TIP3    H158304   1.243   4.253   2.767  1.7120  0.2339 -2.3456
12271TIP3    H258305   1.244   4.209   2.912 -1.9280 -0.4521 -2.4205
12272TIP3   OH258306   5.346   0.603   0.098  0.2932  0.6645 -0.2617
12272TIP3    H158307   5.273   0.644   0.143 -0.2262 -0.4311 -0.0785
12272TIP3    H258308   5.309   0.525   0.057  0.9070  1.2144 -1.9642
12273TIP3   OH258309   4.201   3.297   1.093  0.2092  0.5703  0.2462
12273TIP3    H158310   4.240   3.382   1.072 -0.2651  0.8459  0.4496
12273TIP3    H258311   4.261   3.233   1.055  1.4121  0.9365  1.4338
12274TIP3   OH258312   1.589   6.176  11.180 -0.0887 -0.3498 -0.4263
12274TIP3    H158313   1.617   6.097  11.134  1.9311 -0.3033  0.6134
12274TIP3    H258314   1.670   6.222  11.200 -1.0533  0.7496  1.1507
12275TIP3   OH258315   1.079   1.710  12.448  0.1264  0.1032 -0.0684
12275TIP3    H158316   0.999   1.757  12.425 -0.1817 -0.8144 -0.9579
12275TIP3    H258317   1.049   1.631  12.492  0.6029  0.2978  0.6278
12276TIP3   OH258318   3.572   2.061   2.902 -0.0980 -0.1878 -0.7453
12276TIP3    H158319   3.616   2.061   2.987 -1.8890 -1.1287  0.2328
12276TIP3    H258320   3.639   2.093   2.841  1.0265  1.2229  1.0935
12277TIP3   OH258321   6.094   2.248   3.726  0.1904  0.6103  0.9950
12277TIP3    H158322   6.051   2.165   3.746  0.0155  0.8669  1.7258
12277TIP3    H258323   6.080   2.302   3.805  2.8796  0.3035  1.7721
12278TIP3   OH258324   3.262   0.324   3.922 -0.7991  0.0933 -0.3001
12278TIP3    H158325   3.231   0.305   4.010 -1.8211  0.5047 -0.5553
12278TIP3    H258326   3.305   0.243   3.894  1.8554  0.7577  1.4836
12279TIP3   OH258327   4.213   2.013  14.817  0.7907  0.4743 -0.0114
12279TIP3    H158328   4.124   1.978  14.810  0.9852 -0.1167  0.4048
12279TIP3    H258329   4.264   1.962  14.753  0.4088  2.2866 -1.8618
12280TIP3   OH258330   0.145   4.984   3.829  0.5391  1.0371 -0.4626
12280TIP3    H158331   0.119   4.987   3.737  1.3069  0.3028 -0.7212
12280TIP3    H258332   0.237   5.010   3.828  1.5215 -2.0488 -0.3473
12281TIP3   OH258333   1.843   2.533   2.653  0.2201 -0.0624  0.5899
12281TIP3    H158334   1.887   2.530   2.738 -0.4181  0.4659  0.9402
12281TIP3    H258335   1.915   2.527   2.589  0.7374  0.0055  1.1540
12282TIP3   OH258336   4.856   3.499  13.825 -0.3130 -0.0001 -0.3540
12282TIP3    H158337   4.911   3.448  13.884 -1.1673  1.1071  1.4648
12282TIP3    H258338   4.890   3.478  13.737  0.6358 -2.1108  0.4392
12283TIP3   OH258339   3.401   0.443  13.169  0.1179  0.1537  0.0432
12283TIP3    H158340   3.427   0.363  13.122  0.2549 -0.3835  1.0139
12283TIP3    H258341   3.325   0.416  13.220 -0.7179  1.0218 -0.7024
12284TIP3   OH258342   3.705   4.019   3.086  0.1300  0.1694 -0.3212
12284TIP3    H158343   3.647   4.084   3.047  1.1858  1.6329  0.4569
12284TIP3    H258344   3.759   4.069   3.148  0.7817 -1.5045  0.5154
12285TIP3   OH258345   0.337   1.749   1.347  0.1919  0.1427  0.4966
12285TIP3    H158346   0.317   1.843   1.343  0.4803  0.1742 -0.5877
12285TIP3    H258347   0.274   1.708   1.288  0.2344 -0.3100  0.7649
12286TIP3   OH258348   1.097   1.111  14.937  0.1690 -0.6030 -0.4671
12286TIP3    H158349   1.055   1.050  14.998  2.2650  1.3058  3.2633
12286TIP3    H258350   1.171   1.062  14.902 -0.1172 -1.2710 -0.1556
12287TIP3   OH258351   6.494   2.005   3.844  0.4350 -0.7105 -0.2180
12287TIP3    H158352   6.473   2.094   3.814 -0.8192 -2.2709 -4.9537
12287TIP3    H258353   6.408   1.964   3.858  0.9419 -1.5881  0.3845
12288TIP3   OH258354   4.759   2.027  10.902  0.2136 -1.2035 -0.0007
12288TIP3    H158355   4.845   2.010  10.941 -0.0385  0.0022  1.1288
12288TIP3    H258356   4.762   2.119  10.876  0.4730 -1.9957 -3.1794
12289TIP3   OH258357   2.164   2.518   0.109  0.1402  0.2727  0.0023
12289TIP3    H158358   2.216   2.502   0.187 -1.0132  1.0652  0.9745
12289TIP3    H258359   2.142   2.611   0.114 -1.4318 -0.0528 -0.3233
12290TIP3   OH258360   3.835   1.040   2.029  0.1516  0.5120  0.4839
12290TIP3    H158361   3.822   1.127   1.991 -0.9111  0.4221  0.5968
12290TIP3    H258362   3.930   1.029   2.031  0.2832  1.0946 -0.8508
12291TIP3   OH258363   1.445   1.365  10.929 -0.0491  0.1946 -0.2559
12291TIP3    H158364   1.437   1.359  10.834 -1.3553 -1.2350 -0.0912
12291TIP3    H258365   1.428   1.457  10.950  2.8622  1.1543 -1.5713
12292TIP3   OH258366   2.877   0.219   1.195  0.3047 -0.1633  0.5969
12292TIP3    H158367   2.808   0.267   1.150  0.2979  0.5954  1.3886
12292TIP3    H258368   2.936   0.287   1.228  2.5272 -0.8103 -1.7054
12293TIP3   OH258369   3.262   1.927  12.090  0.4178  0.4188  0.2221
12293TIP3    H158370   3.177   1.890  12.068  0.6109  0.6554 -0.9748
12293TIP3    H258371   3.242   2.009  12.134  0.0262  0.5672 -0.2317
12294TIP3   OH258372   3.279   2.185  11.932  0.1876  0.6288  0.1448
12294TIP3    H158373   3.198   2.223  11.897  0.9587  2.3382  0.1297
12294TIP3    H258374   3.273   2.199  12.026 -0.9010 -2.0633  0.5896
12295TIP3   OH258375   5.057   4.334  11.810  0.4966  0.4254  0.2262
12295TIP3    H158376   4.985   4.360  11.753 -0.6099  2.8893  2.5516
12295TIP3    H258377   5.136   4.356  11.761 -0.4206  2.4856 -0.4005
12296TIP3   OH258378   6.475   5.267   5.052 -0.1427  0.2176  0.1678
12296TIP3    H158379   6.545   5.209   5.021  1.0744  2.2373 -1.0649
12296TIP3    H258380   6.492   5.277   5.146 -0.5788 -1.5959  0.4910
12297TIP3   OH258381   1.818   5.534  16.242 -0.6161  0.0020  0.0261
12297TIP3    H158382   1.824   5.473  16.168  0.2489  0.2531 -0.1190
12297TIP3    H258383   1.736   5.581  16.228 -0.6553 -0.2383 -0.5565
12298TIP3   OH258384   2.508   2.909   1.183  0.4615 -0.8082  0.7089
12298TIP3    H158385   2.596   2.872   1.190  1.2787  0.9416  0.1737
12298TIP3    H258386   2.516   2.997   1.220 -0.6454 -0.0020 -0.8517
12299TIP3   OH258387   3.864   5.158  14.485 -0.0959 -0.2191 -0.2338
12299TIP3    H158388   3.796   5.154  14.418  1.5629  0.1073 -2.0293
12299TIP3    H258389   3.893   5.068  14.494 -0.1788 -0.2317 -0.0904
12300TIP3   OH258390   3.759   5.785   5.599  0.5912  0.4941  0.2900
12300TIP3    H158391   3.783   5.862   5.651  0.2411  0.9246 -0.1854
12300TIP3    H258392   3.665   5.776   5.612  0.3943  0.9584 -0.7416
12301TIP3   OH258393   3.498   0.669  16.020  0.1876 -0.8405  0.2010
12301TIP3    H158394   3.582   0.707  16.048  0.6156 -2.8853  1.9785
12301TIP3    H258395   3.522   0.592  15.968 -0.5309 -1.6865  1.0723
12302TIP3   OH258396   1.185   0.095   0.805 -0.2281 -0.1322  0.2914
12302TIP3    H158397   1.114   0.056   0.856 -0.6037 -0.0009 -0.1178
12302TIP3    H258398   1.245   0.022   0.788 -0.8035 -0.4890 -0.2663
12303TIP3   OH258399   1.645   1.856   7.019 -0.7424  0.0238  0.0175
12303TIP3    H158400   1.606   1.797   6.955 -1.0044  0.1497  0.0577
12303TIP3    H258401   1.601   1.835   7.101  1.1535 -1.7124  0.6905
12304TIP3   OH258402   2.513   5.666   1.071  0.3207 -0.0898  0.2300
12304TIP3    H158403   2.593   5.664   1.018 -0.0594  0.4605 -0.3816
12304TIP3    H258404   2.537   5.621   1.152  1.0134 -0.6720 -0.2773
12305TIP3   OH258405   4.511   3.402   1.716 -0.2151 -0.0702 -0.3413
12305TIP3    H158406   4.477   3.422   1.629  0.8325  2.0442 -0.3416
12305TIP3    H258407   4.475   3.316   1.738  0.3072 -1.1363 -3.2795
12306TIP3   OH258408   5.727   5.088  12.034  0.0698 -0.1260 -0.5723
12306TIP3    H158409   5.671   5.067  12.109 -1.0171 -2.0095 -1.8219
12306TIP3    H258410   5.803   5.031  12.045 -0.3070 -0.7512 -1.0994
12307TIP3   OH258411   0.485   5.972  14.664 -0.3438 -0.0823  0.1607
12307TIP3    H158412   0.557   5.916  14.637 -0.0968 -1.1060  2.6809
12307TIP3    H258413   0.526   6.056  14.686 -0.3669  0.3011 -1.1682
12308TIP3   OH258414   2.721   1.977  14.062  0.0144 -0.0816 -0.7324
12308TIP3    H158415   2.763   1.955  14.145 -1.3372  0.4916  0.1448
12308TIP3    H258416   2.702   2.071  14.068 -2.0920 -0.4523 -0.7074
12309TIP3   OH258417   4.340   6.790   5.572 -0.5139  0.3403  0.1749
12309TIP3    H158418   4.404   6.780   5.501  0.7280 -0.4160  1.3552
12309TIP3    H258419   4.262   6.744   5.540  0.1118 -0.2120 -0.6089
12310TIP3   OH258420   1.304   6.322   4.967  0.3753 -0.2849  0.5399
12310TIP3    H158421   1.260   6.237   4.972 -0.2544  0.0061  0.0007
12310TIP3    H258422   1.386   6.303   4.920  0.6657 -0.7532  1.2131
12311TIP3   OH258423   1.940   4.107  14.331  0.5368  0.0846  0.0615
12311TIP3    H158424   1.926   4.102  14.425  1.0485 -0.6130  0.1112
12311TIP3    H258425   1.933   4.200  14.310 -0.0294  0.1927  0.7124
12312TIP3   OH258426   5.705   1.157   4.645 -0.6311 -0.7829 -0.7070
12312TIP3    H158427   5.761   1.213   4.699 -0.8608 -2.5583  1.5362
12312TIP3    H258428   5.625   1.209   4.633 -0.1914  0.0550 -0.1786
12313TIP3   OH258429   5.641   6.004  14.993 -0.2138  0.1031 -0.4105
12313TIP3    H158430   5.691   5.923  15.003  1.9158  1.0336 -2.5454
12313TIP3    H258431   5.697   6.072  15.031 -1.3123  0.8060  0.0247
12314TIP3   OH258432   5.113   4.278  14.257  0.0263  0.5807  0.1069
12314TIP3    H158433   5.026   4.249  14.230 -0.5411  1.7241  0.6276
12314TIP3    H258434   5.096   4.352  14.315  1.3671  1.4173 -0.5320
12315TIP3   OH258435   5.902   3.719   2.390  0.2689 -0.0272 -0.3358
12315TIP3    H158436   5.974   3.657   2.402  2.1159  1.3171 -3.3172
12315TIP3    H258437   5.945   3.799   2.359 -2.4909  1.0417 -1.6870
12316TIP3   OH258438   3.036   1.476  12.494 -0.6112  0.2929 -0.4620
12316TIP3    H158439   2.959   1.533  12.491 -0.4046  0.5573 -1.0933
12316TIP3    H258440   3.054   1.455  12.402  0.1547  0.3636 -0.3395
12317TIP3   OH258441   5.137   4.538  14.449 -0.2865  0.5516 -0.4720
12317TIP3    H158442   5.175   4.607  14.503  1.0157  0.6198 -1.4243
12317TIP3    H258443   5.049   4.525  14.484 -0.5500  2.6659 -0.2612
12318TIP3   OH258444   0.295   4.875   3.111 -0.0757 -0.3867 -0.1869
12318TIP3    H158445   0.294   4.957   3.160 -2.4073 -1.0444  0.9793
12318TIP3    H258446   0.206   4.865   3.077  0.0001 -2.6557  0.1153
12319TIP3   OH258447   2.256   0.394  16.720  0.1602  0.0003  0.6621
12319TIP3    H158448   2.255   0.314  16.773  0.9313  0.3452  1.2114
12319TIP3    H258449   2.229   0.365  16.633 -0.6777 -0.6535  1.1199
12320TIP3   OH258450   3.693   3.429  16.369  0.4847  0.0054 -0.3476
12320TIP3    H158451   3.739   3.496  16.420  0.8990 -0.1498 -0.5120
12320TIP3    H258452   3.690   3.465  16.280 -2.3929  1.3883  0.2249
12321TIP3   OH258453   2.462   5.707  15.787 -0.1996  0.8676 -0.1228
12321TIP3    H158454   2.533   5.655  15.749 -1.2858 -0.3668 -0.5626
12321TIP3    H258455   2.433   5.763  15.716 -1.3419 -0.4833 -0.7717
12322TIP3   OH258456   6.547   0.740  16.941  0.4816  0.1280  0.1192
12322TIP3    H158457   6.512   0.820  16.981  0.8659 -0.6167  2.0303
12322TIP3    H258458   6.470   0.699  16.900  0.2884  1.4542 -0.9178
12323TIP3   OH258459   6.382   3.917  13.070 -0.6886 -0.5489 -0.2834
12323TIP3    H158460   6.302   3.914  13.018 -0.0166  0.3497 -1.4315
12323TIP3    H258461   6.452   3.896  13.007  0.1375  0.4245  0.2797
12324TIP3   OH258462   3.770   1.151  11.709 -0.2272  0.1591 -0.2545
12324TIP3    H158463   3.844   1.205  11.739 -0.4988  0.4660 -0.1356
12324TIP3    H258464   3.733   1.200  11.636  0.1935 -0.4019 -0.8555
12325TIP3   OH258465   0.731   0.701  15.252  0.1424  0.1016 -0.1813
12325TIP3    H158466   0.672   0.699  15.177  0.2579  0.7935 -0.3044
12325TIP3    H258467   0.707   0.625  15.305 -0.6399  0.1938 -0.3942
12326TIP3   OH258468   1.460   6.345  11.840  0.3206 -0.2698 -0.4852
12326TIP3    H158469   1.531   6.287  11.814  1.7724  0.4159  1.6292
12326TIP3    H258470   1.467   6.350  11.936 -1.6572  1.0045 -0.3425
12327TIP3   OH258471   3.917   1.827  11.302 -0.4068 -0.5335 -0.4153
12327TIP3    H158472   3.837   1.878  11.315 -0.0745 -0.0265 -0.3053
12327TIP3    H258473   3.953   1.861  11.220  0.3710  0.1753  0.2012
12328TIP3   OH258474   3.687   5.771   1.619 -0.1670 -0.1812  0.1835
12328TIP3    H158475   3.650   5.791   1.533 -0.2816  0.2145  0.3225
12328TIP3    H258476   3.629   5.702   1.654 -0.5978  0.2178  0.2722
12329TIP3   OH258477   2.394   0.348  12.191 -0.3425  0.3906  0.2162
12329TIP3    H158478   2.320   0.292  12.213  0.0401  0.0366  0.6297
12329TIP3    H258479   2.460   0.288  12.155 -0.2891  0.7130 -0.2324
12330TIP3   OH258480   5.195   6.817   3.316  0.3586 -0.0095  0.3229
12330TIP3    H158481   5.176   6.900   3.272  1.5372  0.1537  0.0630
12330TIP3    H258482   5.286   6.798   3.291 -0.1300 -1.7540 -0.2159
12331TIP3   OH258483   5.254   6.717   1.629 -0.1621  0.3629 -0.1158
12331TIP3    H158484   5.287   6.803   1.656  0.8228 -0.3218  0.9640
12331TIP3    H258485   5.312   6.691   1.558  1.8680 -0.9024  1.8742
12332TIP3   OH258486   4.263   3.730  15.561 -0.5146 -0.6736  0.1398
12332TIP3    H158487   4.341   3.712  15.614 -0.3344  1.7290  0.8313
12332TIP3    H258488   4.290   3.710  15.472  0.6820 -0.5353  0.4429
12333TIP3   OH258489   0.254   3.733  11.988 -0.3423 -0.1359  0.0079
12333TIP3    H158490   0.224   3.819  12.016 -0.1241  0.3757 -1.2937
12333TIP3    H258491   0.282   3.745  11.898  1.8600 -1.0685  0.5124
12334TIP3   OH258492   3.402   5.284  13.358  0.2405  0.2507 -0.5772
12334TIP3    H158493   3.311   5.302  13.335  0.2108 -1.0590 -1.5928
12334TIP3    H258494   3.448   5.366  13.340 -0.8470  1.2077  0.7772
12335TIP3   OH258495   2.059   0.460   4.559 -0.0480  0.0187  0.1643
12335TIP3    H158496   2.095   0.400   4.494  1.7917 -0.6045  1.6931
12335TIP3    H258497   2.010   0.404   4.619 -0.3264  0.3665  0.2660
12336TIP3   OH258498   2.007   0.222  16.966  0.1057  0.9064  0.1359
12336TIP3    H158499   2.046   0.301  17.004  0.9665  0.9517 -0.8067
12336TIP3    H258500   2.055   0.208  16.885 -0.3598 -0.3237  0.0495
12337TIP3   OH258501   4.514   2.909   5.652  1.0159 -0.3550  0.1613
12337TIP3    H158502   4.465   2.828   5.639  0.5630 -0.1181  0.3672
12337TIP3    H258503   4.604   2.881   5.667  1.4142 -0.7207 -2.3947
12338TIP3   OH258504   5.535   4.933  14.684  0.2567 -0.0312  0.2081
12338TIP3    H158505   5.600   4.871  14.650  0.0633  0.7778 -1.7655
12338TIP3    H258506   5.494   4.887  14.757  0.1189 -2.2487 -1.1686
12339TIP3   OH258507   1.293   4.049  13.276  0.2397  0.1605 -0.3152
12339TIP3    H158508   1.319   3.964  13.310  0.5635  0.3510 -0.0826
12339TIP3    H258509   1.243   4.090  13.348  2.2382  1.1994  0.5570
12340TIP3   OH258510   5.468   0.760  14.853 -0.3290 -0.3066  0.3613
12340TIP3    H158511   5.390   0.707  14.869 -0.6385 -0.2205 -0.8095
12340TIP3    H258512   5.520   0.710  14.791 -0.4814  0.5885 -0.5241
12341TIP3   OH258513   4.946   1.422  13.917 -0.2548 -0.9196 -0.2250
12341TIP3    H158514   4.915   1.447  14.004 -0.5650 -1.9677 -0.0264
12341TIP3    H258515   5.028   1.375  13.934  1.5499  1.8058 -0.7318
12342TIP3   OH258516   2.231   6.083  15.954  0.5129  0.1374 -0.3910
12342TIP3    H158517   2.206   5.996  15.923  0.5086  0.0351 -0.1051
12342TIP3    H258518   2.151   6.135  15.944  0.3537 -0.0374 -0.0331
12343TIP3   OH258519   6.811   2.733  11.740  0.2792  0.1721 -0.6307
12343TIP3    H158520   6.781   2.642  11.730 -0.4669  0.4209 -0.6584
12343TIP3    H258521   6.743   2.786  11.699  0.9615  0.7202 -1.0720
12344TIP3   OH258522   3.603   0.330   4.669 -0.5192 -0.0868  0.3002
12344TIP3    H158523   3.544   0.377   4.727 -1.0456  0.2343 -0.4772
12344TIP3    H258524   3.610   0.243   4.707 -1.4240 -0.1017  0.4607
12345TIP3   OH258525   4.693   3.948   0.539 -0.1401 -0.1260  0.2593
12345TIP3    H158526   4.646   4.004   0.601  0.8622  0.6457  0.3459
12345TIP3    H258527   4.634   3.874   0.525 -1.5077  0.9520  0.1145
12346TIP3   OH258528   1.815   6.196   4.250  0.3691 -0.0884 -0.1626
12346TIP3    H158529   1.721   6.189   4.270  0.7109 -1.0699  1.2211
12346TIP3    H258530   1.856   6.212   4.334  1.4203  0.9587 -0.8462
12347TIP3   OH258531   1.021   1.223   2.757  0.2460 -0.0837  0.3145
12347TIP3    H158532   1.068   1.140   2.744  2.9326  1.0623  1.7709
12347TIP3    H258533   1.085   1.290   2.733 -2.0021  1.6296 -1.2493
12348TIP3   OH258534   0.316   6.621   5.678  0.2109  0.6792 -0.2967
12348TIP3    H158535   0.405   6.648   5.700  0.0001 -0.3985  2.3139
12348TIP3    H258536   0.304   6.648   5.587  2.8789  1.6239 -0.4571
12349TIP3   OH258537   1.198   6.475  12.199  0.1611 -0.0092 -0.5485
12349TIP3    H158538   1.203   6.537  12.271  1.3437 -0.7446  0.0401
12349TIP3    H258539   1.230   6.524  12.123  1.0552  0.1258 -0.0967
12350TIP3   OH258540   6.615   3.176  12.349  0.1207  0.1584  0.0825
12350TIP3    H158541   6.605   3.264  12.314  0.6057  0.6929  1.2558
12350TIP3    H258542   6.537   3.162  12.403  1.0168  0.6711  1.5459
12351TIP3   OH258543   0.669   2.302   1.768  1.0307 -0.0826  0.1358
12351TIP3    H158544   0.720   2.384   1.771  0.0460  0.5300  0.7914
12351TIP3    H258545   0.641   2.288   1.859  1.4878 -1.3597  0.0949
12352TIP3   OH258546   1.145   2.252   2.365 -0.5380  0.1381  0.3888
12352TIP3    H158547   1.088   2.186   2.405 -1.2009  0.1047 -0.5770
12352TIP3    H258548   1.189   2.294   2.439 -1.2483 -0.3611  1.1091
12353TIP3   OH258549   5.890   5.883  11.086  0.2911 -0.1769 -0.0864
12353TIP3    H158550   5.956   5.869  11.018  0.8971  0.2047  0.4170
12353TIP3    H258551   5.826   5.942  11.046  0.9180  0.4669 -0.1554
12354TIP3   OH258552   3.191   1.204   3.885  0.5809  0.7055  0.4933
12354TIP3    H158553   3.263   1.156   3.844 -1.0342  0.1383 -1.8817
12354TIP3    H258554   3.171   1.153   3.964  0.5764 -1.1465 -0.6239
12355TIP3   OH258555   2.785   4.873  15.375 -0.9337 -0.4972 -0.0569
12355TIP3    H158556   2.831   4.821  15.309 -0.4130  0.1644 -0.2296
12355TIP3    H258557   2.803   4.828  15.457  0.2592 -0.1142 -0.0895
12356TIP3   OH258558   5.061   0.691  11.029  0.0797  0.0646  0.1146
12356TIP3    H158559   5.002   0.743  11.084 -0.0827 -0.2816  0.2748
12356TIP3    H258560   5.034   0.710  10.939 -1.1522 -1.0656  0.2064
12357TIP3   OH258561   3.299   1.654   3.254 -0.1475 -0.2947 -0.0882
12357TIP3    H158562   3.332   1.738   3.222  1.8150 -0.8792  0.2550
12357TIP3    H258563   3.283   1.603   3.174  1.1807 -0.4743 -0.2652
12358TIP3   OH258564   1.146   2.934  13.287 -0.3366 -0.1635 -0.1889
12358TIP3    H158565   1.238   2.920  13.264 -0.0079  0.9160  0.3903
12358TIP3    H258566   1.124   3.018  13.247 -0.8084  0.0099  0.4245
12359TIP3   OH258567   0.191   5.615   1.619  0.4002  0.2070  0.1513
12359TIP3    H158568   0.213   5.531   1.659  0.1707  0.6342  1.1890
12359TIP3    H258569   0.141   5.592   1.541  1.6203 -0.6667 -0.4175
12360TIP3   OH258570   3.220   6.312   2.473 -0.4802 -0.2573  0.3638
12360TIP3    H158571   3.178   6.396   2.459 -0.3570 -0.0820  1.0046
12360TIP3    H258572   3.172   6.251   2.417 -2.4456 -0.3184  2.0025
12361TIP3   OH258573   0.899   6.643   6.198  0.7612 -0.0024 -0.1164
12361TIP3    H158574   0.921   6.735   6.186  1.4951 -0.0982  0.3990
12361TIP3    H258575   0.975   6.606   6.243  0.5614 -0.9015 -0.4905
12362TIP3   OH258576   2.765   5.918   4.595 -0.2107 -0.2062 -0.4965
12362TIP3    H158577   2.736   6.009   4.594  1.6081  0.4650  0.7736
12362TIP3    H258578   2.851   5.920   4.553 -0.7256 -1.5956 -1.6666
12363TIP3   OH258579   3.757   3.581  14.881  0.3797  0.0526 -0.3664
12363TIP3    H158580   3.798   3.508  14.834 -0.2411  0.0948 -0.9857
12363TIP3    H258581   3.777   3.658  14.828  0.0336  0.1643 -0.3372
12364TIP3   OH258582   1.658   2.756  15.972 -0.1636 -0.4505  0.4357
12364TIP3    H158583   1.628   2.703  16.046 -0.8295 -0.7727 -0.0590
12364TIP3    H258584   1.625   2.710  15.895 -0.0423  0.2436 -0.0318
12365TIP3   OH258585   4.393   0.838   2.341  0.5282 -0.4581 -0.0644
12365TIP3    H158586   4.323   0.785   2.380  0.2258  0.2462  0.3735
12365TIP3    H258587   4.419   0.899   2.410  2.2792 -1.3553  0.1215
12366TIP3   OH258588   2.781   1.623   0.726  0.4871 -0.2065 -0.0713
12366TIP3    H158589   2.737   1.603   0.809  2.1636 -1.4630  0.5714
12366TIP3    H258590   2.845   1.553   0.716  2.0207  1.2840 -1.1882
12367TIP3   OH258591   6.512   1.339   4.016  0.1624 -0.2321  0.6883
12367TIP3    H158592   6.427   1.298   4.002 -0.5379  1.0035  1.1176
12367TIP3    H258593   6.576   1.267   4.009 -1.0237 -1.4391  1.7436
12368TIP3   OH258594   1.503   2.347  14.607  0.0432  0.2768 -0.4362
12368TIP3    H158595   1.494   2.270  14.552  0.2028  0.1228 -0.2502
12368TIP3    H258596   1.595   2.374  14.595  0.3315 -0.2904  0.4469
12369TIP3   OH258597   1.250   4.781  10.923  0.4965  0.4269 -0.1739
12369TIP3    H158598   1.174   4.777  10.864 -0.6023  2.4810  0.9693
12369TIP3    H258599   1.317   4.826  10.873  0.3445  0.2036 -0.5848
12370TIP3   OH258600   1.524   5.158  16.829  0.2514 -0.0534 -0.1182
12370TIP3    H158601   1.576   5.232  16.860 -0.2523  0.0606  0.4692
12370TIP3    H258602   1.581   5.082  16.845 -0.4918 -0.1746  2.4490
12371TIP3   OH258603   0.332   5.840   0.004  0.2586  0.3265 -0.2339
12371TIP3    H158604   0.343   5.776   0.074  0.7574  0.6703  0.0027
12371TIP3    H258605   0.368   5.798  -0.073  0.9056  0.4513 -0.0045
12372TIP3   OH258606   0.211   6.345   0.710  0.2871 -0.5146 -0.5442
12372TIP3    H158607   0.219   6.306   0.623 -1.3252  1.7131 -1.8255
12372TIP3    H258608   0.257   6.429   0.703 -0.3530 -0.0453  0.5665
12373TIP3   OH258609   2.387   5.538   4.617 -0.5303  0.7324 -0.5137
12373TIP3    H158610   2.297   5.537   4.649 -0.9482 -1.5695 -1.5666
12373TIP3    H258611   2.380   5.548   4.522  0.3625  1.0694 -0.5620
12374TIP3   OH258612   2.722   4.457  12.302  0.0201  0.1204  0.4356
12374TIP3    H158613   2.744   4.542  12.341 -1.4250  0.2715  0.9776
12374TIP3    H258614   2.804   4.408  12.303  0.6585  1.1692  1.0163
12375TIP3   OH258615   5.742   2.152  12.211  0.5598  0.5365 -0.1546
12375TIP3    H158616   5.734   2.143  12.306 -2.2964  0.1295 -0.3254
12375TIP3    H258617   5.808   2.220  12.198  0.2893  1.3285  2.1618
12376TIP3   OH258618   3.493   3.384  15.774 -0.2440  0.2622  0.2462
12376TIP3    H158619   3.588   3.392  15.784 -0.2315 -0.3547  0.6859
12376TIP3    H258620   3.464   3.345  15.856 -0.9879  1.1861  0.4408
12377TIP3   OH258621   4.120   6.738  16.294  0.4520 -0.6032 -0.3463
12377TIP3    H158622   4.195   6.793  16.270 -0.5313  0.8596 -0.2077
12377TIP3    H258623   4.050   6.767  16.236 -0.1844 -1.5063 -0.0433
12378TIP3   OH258624   6.417   3.611  16.972 -0.1294 -0.0091  0.4887
12378TIP3    H158625   6.451   3.545  17.032 -1.1942 -0.4043  0.6782
12378TIP3    H258626   6.360   3.665  17.025  0.5142  0.9072  0.2669
12379TIP3   OH258627   4.754   4.940  13.223  0.9072  0.5212  0.2477
12379TIP3    H158628   4.672   4.943  13.273  1.3436  1.5399  0.9197
12379TIP3    H258629   4.729   4.969  13.135  0.2095 -0.9209 -0.0600
12380TIP3   OH258630   0.505   6.144   6.481 -0.2249 -0.1828  0.1015
12380TIP3    H158631   0.516   6.091   6.560  2.4453 -0.1152 -0.1529
12380TIP3    H258632   0.490   6.233   6.514  0.1110 -0.2824  0.5234
12381TIP3   OH258633   4.797   4.492   2.008  0.0336  0.4299  0.4367
12381TIP3    H158634   4.774   4.517   1.918  1.0994  0.7299  0.2426
12381TIP3    H258635   4.884   4.453   2.001 -0.2970 -0.4909  1.2014
12382TIP3   OH258636   6.673   1.233  17.071 -0.0270 -0.2738 -0.4995
12382TIP3    H158637   6.705   1.320  17.092 -0.6400  0.5079 -2.5815
12382TIP3    H258638   6.731   1.174  17.120  2.0443  1.1988 -1.0484
12383TIP3   OH258639   1.430   2.472  11.893  0.4496  0.1136  0.3526
12383TIP3    H158640   1.336   2.474  11.913  0.5308  0.2124  0.7381
12383TIP3    H258641   1.449   2.562  11.865  0.5931  0.3167  1.0743
12384TIP3   OH258642   2.410   2.630  12.066 -0.7274  0.0396  0.3617
12384TIP3    H158643   2.317   2.634  12.042 -0.6065 -0.9711 -0.3597
12384TIP3    H258644   2.412   2.566  12.137 -0.4509 -0.8354 -0.4167
12385TIP3   OH258645   5.369   5.977  15.020  0.2872 -0.0016  0.4957
12385TIP3    H158646   5.365   6.072  15.032  2.6815  0.5537 -2.0859
12385TIP3    H258647   5.460   5.959  14.998 -0.0301 -2.9884  1.1598
12386TIP3   OH258648   4.498   4.883   5.646  0.3580 -0.8456 -0.0264
12386TIP3    H158649   4.487   4.788   5.635  1.2785 -0.9342 -0.2506
12386TIP3    H258650   4.491   4.897   5.741  1.0492 -1.2582  0.0922
12387TIP3   OH258651   5.036   3.819  17.137  0.5132  0.6303  0.0529
12387TIP3    H158652   5.002   3.756  17.201 -2.7503  0.8306 -1.2421
12387TIP3    H258653   5.046   3.900  17.185 -0.8947  0.5166  0.5992
12388TIP3   OH258654   4.212   2.008  11.264 -0.7629  0.3764  0.5003
12388TIP3    H158655   4.239   1.917  11.277 -0.6270  0.6241  2.0607
12388TIP3    H258656   4.179   2.010  11.173 -0.5016 -1.1485  0.3454
12389TIP3   OH258657   0.923   0.293  10.202  0.5605  0.1682 -0.3279
12389TIP3    H158658   0.877   0.360  10.252  0.8431  0.6774 -0.7461
12389TIP3    H258659   0.873   0.213  10.218  0.5877  0.3377  0.6928
12390TIP3   OH258660   3.667   3.119  11.426 -0.8258 -0.2254  0.1345
12390TIP3    H158661   3.733   3.056  11.399 -1.4117 -0.4827 -0.7404
12390TIP3    H258662   3.587   3.067  11.437 -0.9394  0.1157  0.9468
12391TIP3   OH258663   6.167   5.634   1.449  0.2605 -0.1414 -0.4147
12391TIP3    H158664   6.179   5.729   1.442  0.1571 -0.0475  0.5540
12391TIP3    H258665   6.104   5.613   1.381 -2.7567  1.0920  1.7714
12392TIP3   OH258666   0.243   2.955  11.249  0.2804 -0.1591 -0.0497
12392TIP3    H158667   0.254   2.868  11.288 -0.6862  0.0758  0.7966
12392TIP3    H258668   0.251   2.940  11.154  1.1025 -0.9976  0.1396
12393TIP3   OH258669   0.381   2.394   1.732  0.3581 -0.0767 -0.0289
12393TIP3    H158670   0.454   2.335   1.751 -0.8575 -1.2906  1.1095
12393TIP3    H258671   0.339   2.408   1.817  0.0340  1.6961 -0.4387
12394TIP3   OH258672   3.797   3.645   5.415  0.2055  0.3146 -0.2722
12394TIP3    H158673   3.794   3.721   5.357  0.5268  1.1093  0.7243
12394TIP3    H258674   3.707   3.636   5.448  0.5944  1.6437  1.2955
12395TIP3   OH258675   4.822   1.053  14.034  0.0884  0.7590 -0.0658
12395TIP3    H158676   4.778   1.105  13.967  2.0199  2.0896 -0.3905
12395TIP3    H258677   4.891   1.006  13.987  0.2785  0.2565  0.7015
12396TIP3   OH258678   6.562   3.684   6.799 -0.3408  0.8044 -0.8844
12396TIP3    H158679   6.561   3.776   6.773 -1.0330  0.2278 -3.1695
12396TIP3    H258680   6.637   3.647   6.751  0.6715  0.3758  0.9404
12397TIP3   OH258681   2.106   6.243   5.469  0.4336  0.1476  0.7192
12397TIP3    H158682   2.127   6.195   5.389 -0.0968  0.0107  0.6601
12397TIP3    H258683   2.052   6.317   5.439  0.0999  0.0077  0.9663
12398TIP3   OH258684   6.386   2.456   4.173 -0.3994 -0.1239 -0.5259
12398TIP3    H158685   6.320   2.417   4.117 -0.1392  0.9309 -1.6100
12398TIP3    H258686   6.468   2.413   4.148 -0.3997 -0.1784 -0.4332
12399TIP3   OH258687   5.229   0.291  11.903 -0.5475  0.0753 -0.3404
12399TIP3    H158688   5.154   0.238  11.932 -1.5219  0.6867 -1.6369
12399TIP3    H258689   5.277   0.310  11.983 -1.9479 -0.0925  0.5722
12400TIP3   OH258690   1.834   3.937  10.919  0.0617 -0.7421  0.2084
12400TIP3    H158691   1.920   3.931  10.960  0.9210 -3.2093 -1.6959
12400TIP3    H258692   1.850   3.985  10.838 -0.1692 -1.7888 -0.4801
12401TIP3   OH258693   4.535   6.587  10.738 -0.4923  0.0240 -0.2428
12401TIP3    H158694   4.502   6.555  10.654  0.9400  2.0372 -1.6572
12401TIP3    H258695   4.575   6.511  10.779 -1.9030 -1.1765 -0.9995
12402TIP3   OH258696   4.124   6.005  13.354  0.5243  0.5523 -0.0135
12402TIP3    H158697   4.192   5.950  13.393  3.1454  2.6149 -1.3370
12402TIP3    H258698   4.090   6.057  13.427 -0.4221 -1.1647  0.8362
12403TIP3   OH258699   1.576   5.397   4.193  0.4222 -0.1383 -0.2353
12403TIP3    H158700   1.658   5.360   4.161  0.1998  1.1730 -2.5745
12403TIP3    H258701   1.602   5.475   4.242  0.6098  0.8379 -1.8047
12404TIP3   OH258702   2.896   4.948  14.299 -0.5011 -0.0854 -0.3531
12404TIP3    H158703   2.951   4.870  14.288  0.1550  0.4276 -0.7788
12404TIP3    H258704   2.911   4.975  14.389  1.3455  1.0680 -0.9622
12405TIP3   OH258705   0.871   1.993  13.610  0.2894 -0.2970  0.3456
12405TIP3    H158706   0.790   2.039  13.587  0.5843 -0.6723 -1.5959
12405TIP3    H258707   0.930   2.010  13.537  1.2834 -1.6441  0.7923
12406TIP3   OH258708   6.632   4.736  15.079 -0.1132  0.6249 -0.5851
12406TIP3    H158709   6.618   4.704  15.169  1.0746 -0.3222 -0.7023
12406TIP3    H258710   6.544   4.741  15.041 -0.6087  0.7576  0.5338
12407TIP3   OH258711   1.616   0.432  15.008 -0.0653  0.0130 -0.2122
12407TIP3    H158712   1.536   0.468  15.047 -0.9946 -0.6969 -1.3898
12407TIP3    H258713   1.594   0.420  14.916  0.4536 -2.7271 -0.0739
12408TIP3   OH258714   2.434   3.259  17.169  0.5275  0.8582  0.3677
12408TIP3    H158715   2.469   3.332  17.219  2.0082 -0.6506  1.6366
12408TIP3    H258716   2.501   3.240  17.103  0.5914  0.0636  0.6540
12409TIP3   OH258717   2.842   0.809   2.311 -0.0556  0.0636 -0.2975
12409TIP3    H158718   2.767   0.759   2.280  0.1881 -0.9104  0.5989
12409TIP3    H258719   2.918   0.755   2.286  0.2435  0.2281  0.2457
12410TIP3   OH258720   0.857   0.924  17.164 -0.0795 -0.4234  0.5056
12410TIP3    H158721   0.842   1.013  17.196 -2.2980  0.2830 -2.0883
12410TIP3    H258722   0.942   0.928  17.120 -0.8169  0.9244 -0.9108
12411TIP3   OH258723   1.836   2.912  15.159 -0.2684  0.4555 -0.2605
12411TIP3    H158724   1.879   2.996  15.168  0.7745  0.1108 -1.6844
12411TIP3    H258725   1.887   2.866  15.093  0.1286 -1.9158  1.5530
12412TIP3   OH258726   5.664   0.781   4.428  1.0094  0.1770 -0.2092
12412TIP3    H158727   5.671   0.702   4.374  1.2457 -0.4337  0.6866
12412TIP3    H258728   5.659   0.748   4.518 -0.2055  1.1391  0.1014
12413TIP3   OH258729   4.391   6.185  11.935 -0.1437 -0.6452 -0.4077
12413TIP3    H158730   4.417   6.266  11.979 -0.7541 -0.7733  0.1970
12413TIP3    H258731   4.308   6.161  11.975 -0.2836 -1.2343 -1.0301
12414TIP3   OH258732   3.229   2.235  13.312 -0.2647  0.2299 -0.1910
12414TIP3    H158733   3.248   2.170  13.380 -0.9237  1.9380  1.7125
12414TIP3    H258734   3.312   2.281  13.298 -0.1489 -0.0688 -0.4956
12415TIP3   OH258735   6.240   3.548   3.084 -0.4629 -0.0674 -0.7674
12415TIP3    H158736   6.252   3.556   2.989 -0.7041  0.5183 -0.7495
12415TIP3    H258737   6.314   3.597   3.122 -0.6549  0.1351 -0.6539
12416TIP3   OH258738   4.279   0.599  16.289  0.0796  0.1233  0.2233
12416TIP3    H158739   4.349   0.581  16.350 -0.1088  2.0440  1.0637
12416TIP3    H258740   4.232   0.673  16.326  0.0592  1.5096 -2.3026
12417TIP3   OH258741   4.600   5.907  15.675 -0.0826  0.0780 -0.1951
12417TIP3    H158742   4.637   5.862  15.751  0.3590  0.7468  0.0011
12417TIP3    H258743   4.526   5.853  15.648  1.3404 -1.5723 -0.9192
12418TIP3   OH258744   4.868   6.116   5.128 -0.7670 -0.4912  0.5890
12418TIP3    H158745   4.888   6.125   5.222 -0.1344  2.3943  0.2776
12418TIP3    H258746   4.942   6.158   5.084 -1.8779 -0.2279 -1.1262
12419TIP3   OH258747   5.029   4.217  10.929  0.1068  0.2244  0.3071
12419TIP3    H158748   4.962   4.149  10.921 -1.2450  1.2526  2.0816
12419TIP3    H258749   5.001   4.286  10.869  0.7892 -0.2142 -0.5455
12420TIP3   OH258750   5.782   0.745  11.191 -0.9484 -0.1001  0.2322
12420TIP3    H158751   5.801   0.666  11.140 -0.8914 -0.5121  0.8891
12420TIP3    H258752   5.797   0.719  11.282 -0.1895  0.8778  0.4022
12421TIP3   OH258753   5.840   6.170  15.058 -0.1128 -0.5702 -0.8046
12421TIP3    H158754   5.868   6.201  15.144 -0.1599 -1.1177 -0.5832
12421TIP3    H258755   5.884   6.228  14.996 -1.0417  0.6122 -0.3980
12422TIP3   OH258756   3.414   2.332   1.722  0.2384  0.2180  0.1612
12422TIP3    H158757   3.483   2.395   1.699 -0.2390 -0.2610 -3.0058
12422TIP3    H258758   3.355   2.334   1.647  0.1572 -3.9456 -0.0845
12423TIP3   OH258759   6.648   5.861   0.737 -0.8994  0.2620  0.1081
12423TIP3    H158760   6.715   5.910   0.784  0.8408 -0.3261 -1.5992
12423TIP3    H258761   6.580   5.925   0.718  0.7998  1.8161 -1.1042
12424TIP3   OH258762   1.188   3.935  12.532  0.1206 -0.0620 -0.2831
12424TIP3    H158763   1.155   4.012  12.486 -0.6965 -0.9992 -1.3355
12424TIP3    H258764   1.277   3.923  12.498  1.4463  2.0872  2.0740
12425TIP3   OH258765   0.606   3.575  12.821  0.2117 -0.1295  0.7939
12425TIP3    H158766   0.592   3.494  12.868  1.3497  0.7984  2.8668
12425TIP3    H258767   0.701   3.588  12.823  0.0615  1.2149  0.4539
12426TIP3   OH258768   1.395   5.912   4.432 -0.4246 -0.2674  0.3820
12426TIP3    H158769   1.379   5.922   4.526 -0.2208  0.9485  0.3069
12426TIP3    H258770   1.411   6.002   4.401  0.9051 -0.7921 -0.5581
12427TIP3   OH258771   1.828   0.482   0.531  0.4104  0.0476 -0.0695
12427TIP3    H158772   1.781   0.548   0.481 -0.1616 -0.9063 -0.8433
12427TIP3    H258773   1.900   0.455   0.474  1.2775  0.7389  0.6730
12428TIP3   OH258774   6.415   0.779  11.532 -0.4189  0.5500 -0.4659
12428TIP3    H158775   6.363   0.813  11.605 -2.1505 -0.5187 -1.1113
12428TIP3    H258776   6.377   0.692  11.516  1.7289 -0.3596 -0.8915
12429TIP3   OH258777   1.612   6.392   3.154  0.0296 -0.3462  0.1742
12429TIP3    H158778   1.691   6.365   3.107 -0.1492  0.4005 -0.5741
12429TIP3    H258779   1.612   6.338   3.233  0.8343 -0.9580 -0.2275
12430TIP3   OH258780   6.451   0.645  11.906  0.0704  0.1184  0.0963
12430TIP3    H158781   6.414   0.644  11.818 -0.9975  2.5251  0.4291
12430TIP3    H258782   6.512   0.719  11.906  1.5147 -1.0227  0.8696
12431TIP3   OH258783   1.207   6.475   4.327 -0.1176  0.0758 -0.4136
12431TIP3    H158784   1.187   6.523   4.246  0.0356  0.5551 -0.1731
12431TIP3    H258785   1.215   6.384   4.300  2.2111  0.4980 -1.3335
12432TIP3   OH258786   4.660   5.195   6.138  0.1397  0.1938 -0.2225
12432TIP3    H158787   4.631   5.106   6.159  0.1176 -0.1130 -1.4523
12432TIP3    H258788   4.703   5.226   6.217 -0.0423 -0.8336  0.2975
12433TIP3   OH258789   1.377   5.280  13.786  0.1770 -0.4341 -0.6375
12433TIP3    H158790   1.326   5.248  13.712 -1.6898 -0.0910  0.4243
12433TIP3    H258791   1.358   5.218  13.857 -1.9872  1.7958  0.9003
12434TIP3   OH258792   0.094   4.006  14.870  0.4434 -0.2950  0.1734
12434TIP3    H158793   0.032   3.990  14.799 -0.1652 -1.3056  0.9125
12434TIP3    H258794   0.085   4.099  14.889  0.0378 -0.1803 -0.5289
12435TIP3   OH258795   4.798   4.184   5.635  0.0899 -0.1955 -0.4035
12435TIP3    H158796   4.859   4.157   5.566  0.9492  0.3209  0.1330
12435TIP3    H258797   4.837   4.264   5.671 -0.7386 -0.0426  0.1740
12436TIP3   OH258798   2.061   4.595   3.307 -0.0829 -0.1306 -0.1489
12436TIP3    H158799   2.057   4.502   3.286  1.1262 -0.0949 -0.6048
12436TIP3    H258800   2.005   4.637   3.242 -0.6434 -0.5313  0.0681
12437TIP3   OH258801   5.670   0.249   1.552 -0.1429  0.4489 -0.2110
12437TIP3    H158802   5.709   0.328   1.591  0.5465 -0.1884  0.4242
12437TIP3    H258803   5.735   0.180   1.566 -0.2803 -0.0188 -1.7018
12438TIP3   OH258804   4.840   6.392   3.471  0.2105  0.3057 -0.3873
12438TIP3    H158805   4.792   6.362   3.548  1.0491  0.8895  0.3820
12438TIP3    H258806   4.806   6.480   3.454  0.4103  0.3929 -0.3430
12439TIP3   OH258807   1.643   6.523   4.477  0.5785  0.1759  0.2856
12439TIP3    H158808   1.549   6.543   4.484  0.3090 -1.2906  1.4868
12439TIP3    H258809   1.678   6.593   4.423 -1.0682  1.2245  0.4800
12440TIP3   OH258810   2.326   3.254  11.763  0.1918 -0.5090  0.0173
12440TIP3    H158811   2.247   3.289  11.722 -0.2939 -2.0048 -0.3660
12440TIP3    H258812   2.367   3.330  11.804 -0.2768  0.7239 -1.6656
12441TIP3   OH258813   4.743   3.177   1.769 -0.4271  0.3548 -0.1407
12441TIP3    H158814   4.762   3.254   1.716  1.2176  0.0020 -0.1303
12441TIP3    H258815   4.825   3.160   1.817 -0.3214 -2.0540 -1.0119
12442TIP3   OH258816   6.013   4.875   5.336 -0.3959 -0.2025 -0.6356
12442TIP3    H158817   5.968   4.857   5.418  1.2805 -1.8091  0.0022
12442TIP3    H258818   6.081   4.938   5.359 -0.5629  0.1145 -1.0037
12443TIP3   OH258819   0.569   5.985  10.563 -0.4030 -0.0642 -0.1399
12443TIP3    H158820   0.534   5.954  10.480 -0.0120 -1.6463  0.2337
12443TIP3    H258821   0.661   6.005  10.544  0.1962 -2.1854  0.2487
12444TIP3   OH258822   2.176   6.378   0.354  0.2196 -0.7287 -0.3286
12444TIP3    H158823   2.197   6.318   0.425  0.1014 -1.2288 -0.7129
12444TIP3    H258824   2.098   6.341   0.312  0.4295 -0.5737 -0.8694
12445TIP3   OH258825   2.267   5.910   2.070 -0.0879  0.3312 -0.0985
12445TIP3    H158826   2.237   5.990   2.114  1.8111 -0.2027  2.4064
12445TIP3    H258827   2.362   5.921   2.063  0.2848 -1.8490  0.7317
12446TIP3   OH258828   4.358   2.646  14.511 -0.3670 -0.3867  0.0991
12446TIP3    H158829   4.288   2.584  14.493 -1.3492  0.5414  0.5908
12446TIP3    H258830   4.394   2.668  14.425 -1.9293  0.5156 -0.3769
12447TIP3   OH258831   6.815   4.231  14.022 -0.1074  0.6302 -0.1647
12447TIP3    H158832   6.783   4.213  13.934 -0.5993  2.0419 -0.3001
12447TIP3    H258833   6.749   4.290  14.060  1.0317  1.5385  0.4662
12448TIP3   OH258834   4.474   0.681   2.931 -0.1980  0.3233  0.1216
12448TIP3    H158835   4.381   0.696   2.946  0.0490  1.7334  0.3595
12448TIP3    H258836   4.482   0.673   2.835 -0.5376  0.3166  0.0935
12449TIP3   OH258837   2.650   5.008  14.184  0.3011 -0.4020 -0.1981
12449TIP3    H158838   2.663   5.008  14.089  0.2688  0.8091 -0.2154
12449TIP3    H258839   2.736   4.985  14.219  0.6809  0.5188 -0.4978
12450TIP3   OH258840   3.390   5.921   3.349  0.1273  0.2556  0.1894
12450TIP3    H158841   3.304   5.910   3.390 -0.2225 -0.5117 -0.7284
12450TIP3    H258842   3.431   5.835   3.357  0.8634  0.6362  0.6937
12451TIP3   OH258843   4.075   1.910   4.014  0.2762 -0.2226  0.5223
12451TIP3    H158844   4.163   1.898   4.050  0.5398  0.1564  0.0123
12451TIP3    H258845   4.088   1.966   3.937 -0.2574 -1.1229 -0.2445
12452TIP3   OH258846   4.840   1.599   2.932 -0.4657 -0.0285 -0.4049
12452TIP3    H158847   4.934   1.603   2.947 -0.4516 -0.7457 -0.2274
12452TIP3    H258848   4.825   1.509   2.902 -1.3729 -0.6758  1.7914
12453TIP3   OH258849   4.554   1.813  11.647 -0.1730 -0.3556 -0.7778
12453TIP3    H158850   4.472   1.779  11.683 -0.4654  1.1077 -0.0060
12453TIP3    H258851   4.537   1.906  11.632  1.4305  0.0274 -0.3509
12454TIP3   OH258852   1.671   1.726   0.904  0.0254  0.6766  0.2954
12454TIP3    H158853   1.669   1.661   0.974 -0.2006  0.1225 -0.2105
12454TIP3    H258854   1.763   1.745   0.891  0.0571  0.9729  0.9086
12455TIP3   OH258855   4.289   2.046  15.718 -0.0180  0.4622  0.3843
12455TIP3    H158856   4.374   2.002  15.710 -0.6104 -1.0737  1.8800
12455TIP3    H258857   4.253   2.013  15.801 -1.6924  1.7619  0.2249
12456TIP3   OH258858   0.390   5.783  10.737  0.0133  0.8079  0.0181
12456TIP3    H158859   0.379   5.724  10.812 -0.9013  0.7020 -0.1848
12456TIP3    H258860   0.485   5.790  10.726  0.1556  0.5992  1.0069
12457TIP3   OH258861   6.640   4.137  13.720  0.5154  0.7999 -0.8839
12457TIP3    H158862   6.681   4.088  13.648  1.0690  0.6019 -0.4441
12457TIP3    H258863   6.549   4.146  13.694  0.8295  1.2653 -1.9078
12458TIP3   OH258864   3.182   2.824  10.702 -0.1707  0.4177  0.6049
12458TIP3    H158865   3.188   2.910  10.661  0.5081  0.6486  1.1729
12458TIP3    H258866   3.268   2.785  10.689 -0.1416  0.2476  1.2548
12459TIP3   OH258867   0.454   2.573   1.291  0.0023  0.5299 -0.6487
12459TIP3    H158868   0.464   2.647   1.231  1.1808  0.5048 -0.5145
12459TIP3    H258869   0.481   2.608   1.376 -0.3171  0.1864 -0.4033
12460TIP3   OH258870   3.321   0.694   4.620  0.0897 -0.2490 -0.3913
12460TIP3    H158871   3.270   0.639   4.561  1.1798 -0.3387 -1.2852
12460TIP3    H258872   3.262   0.766   4.644 -1.5548 -2.0397  1.2429
12461TIP3   OH258873   5.194   1.178   0.010  0.0202 -0.4391 -0.1295
12461TIP3    H158874   5.116   1.232  -0.002  0.0848 -0.4779 -0.7893
12461TIP3    H258875   5.163   1.100   0.055 -0.4582 -0.7560 -0.9776
12462TIP3   OH258876   3.546   0.973   0.597  0.2555  0.2600  0.0502
12462TIP3    H158877   3.557   0.879   0.611 -0.6321  0.2947  1.1170
12462TIP3    H258878   3.452   0.987   0.601  0.3720  1.1919 -0.2148
12463TIP3   OH258879   4.335   5.338  14.537 -0.0485  0.2471  0.6463
12463TIP3    H158880   4.370   5.413  14.584 -1.0951  0.2804  1.4108
12463TIP3    H258881   4.326   5.270  14.604 -0.6666 -0.0162  0.2997
12464TIP3   OH258882   4.426   1.462  11.243 -0.5340 -0.1162 -0.2807
12464TIP3    H158883   4.439   1.380  11.290 -0.4834  0.6577  1.1313
12464TIP3    H258884   4.336   1.457  11.211 -0.3396 -0.9576 -0.7242
12465TIP3   OH258885   1.786   6.625   5.065 -0.1170  0.2232 -0.4851
12465TIP3    H158886   1.735   6.555   5.023 -2.6768  1.6941 -0.0164
12465TIP3    H258887   1.731   6.654   5.138  2.1750  0.8414  1.0794
12466TIP3   OH258888   0.553   3.843   3.113 -0.5962 -0.6424  0.4393
12466TIP3    H158889   0.470   3.846   3.065  0.1716 -2.8524 -1.2133
12466TIP3    H258890   0.613   3.894   3.060 -0.1957 -1.5461  0.0026
12467TIP3   OH258891   4.270   5.981   5.494  0.0243  0.1633 -0.0805
12467TIP3    H158892   4.246   5.963   5.586 -1.5203  0.1882 -0.4454
12467TIP3    H258893   4.334   5.914   5.473 -1.8156 -1.7958  0.1633
12468TIP3   OH258894   1.549   6.405  17.191  0.1199  0.3425 -0.0447
12468TIP3    H158895   1.614   6.356  17.242 -0.6126 -0.2387  0.3483
12468TIP3    H258896   1.559   6.372  17.102  0.3987  0.2938  0.0034
12469TIP3   OH258897   6.316   5.374   0.006  0.7744 -0.7067  0.3001
12469TIP3    H158898   6.337   5.383   0.099  2.5688 -0.3460 -0.1007
12469TIP3    H258899   6.309   5.280  -0.008 -1.6576 -0.7334  1.1875
12470TIP3   OH258900   3.982   1.342  17.197  0.4473  0.0059 -0.4036
12470TIP3    H158901   4.062   1.346  17.248  0.5290  0.6558 -0.5690
12470TIP3    H258902   4.002   1.283  17.124  1.1056  0.9431 -0.9955
12471TIP3   OH258903   5.723   6.053  13.837 -0.2933  0.2148 -0.0790
12471TIP3    H158904   5.756   6.032  13.924 -0.1593  0.3571 -0.0952
12471TIP3    H258905   5.657   5.986  13.819  1.1594 -1.0841 -0.7409
12472TIP3   OH258906   6.427   3.902  17.008  1.0248 -0.0739 -0.3655
12472TIP3    H158907   6.371   3.875  17.081  0.6804  1.0655 -0.1854
12472TIP3    H258908   6.503   3.844  17.013  0.4405 -0.8158  0.1479
12473TIP3   OH258909   6.033   4.602   1.029  0.9232  0.8435 -0.1529
12473TIP3    H158910   6.029   4.608   1.124 -0.8903  0.3154 -0.1631
12473TIP3    H258911   6.069   4.515   1.012 -2.7579 -0.9242  0.1546
12474TIP3   OH258912   3.675   2.294   3.221  0.2001 -0.5664  0.2235
12474TIP3    H158913   3.699   2.367   3.278  2.3861 -0.4725 -0.7177
12474TIP3    H258914   3.672   2.332   3.133 -1.4567 -1.0641  0.0208
12475TIP3   OH258915   3.102   3.318  14.399 -0.0009 -0.6666 -0.2090
12475TIP3    H158916   3.011   3.324  14.428 -0.2976 -0.6603 -1.1171
12475TIP3    H258917   3.142   3.400  14.429  0.0165 -1.1554  1.1820
12476TIP3   OH258918   3.809   3.762   4.742  0.1163  0.8612  0.3765
12476TIP3    H158919   3.895   3.721   4.733  0.1647  0.7668  1.2386
12476TIP3    H258920   3.767   3.749   4.656  2.5418  4.6650 -1.6798
12477TIP3   OH258921   3.436   1.886   4.697  0.1275 -0.2926  0.1389
12477TIP3    H158922   3.515   1.834   4.679  0.5997  0.4120  0.1194
12477TIP3    H258923   3.364   1.825   4.682  0.6343 -0.7293 -0.6651
12478TIP3   OH258924   2.818   3.288  16.741 -0.1657 -0.2966 -0.2942
12478TIP3    H158925   2.759   3.304  16.668 -0.4400 -2.1474 -0.5262
12478TIP3    H258926   2.761   3.276  16.817  0.0550  0.3241 -0.0208
12479TIP3   OH258927   4.549   2.790   3.707  0.5024 -0.2586 -0.0712
12479TIP3    H158928   4.575   2.716   3.652  2.1152 -0.5040  0.9341
12479TIP3    H258929   4.626   2.846   3.710  0.5877 -0.3767  2.0535
12480TIP3   OH258930   1.252   5.630   0.094  0.0057  0.2128 -0.2205
12480TIP3    H158931   1.227   5.580   0.016 -1.2317 -1.0927  0.9532
12480TIP3    H258932   1.293   5.566   0.151 -2.4363  0.2430  1.7041
12481TIP3   OH258933   2.296   4.082  10.950  0.3083  0.0214  0.6910
12481TIP3    H158934   2.336   4.070  10.864 -0.4337  1.6799  0.0627
12481TIP3    H258935   2.209   4.042  10.942  0.6430 -0.7792  1.0256
12482TIP3   OH258936   0.590   1.843  16.911  0.5025 -0.4477  0.0734
12482TIP3    H158937   0.534   1.919  16.925  1.3321  0.6339 -1.9899
12482TIP3    H258938   0.678   1.872  16.935  0.9566 -0.4443 -1.4597
12483TIP3   OH258939   3.083   6.122   0.647 -0.2478 -0.0363 -0.3450
12483TIP3    H158940   3.017   6.068   0.605 -0.2876  1.1438 -1.8704
12483TIP3    H258941   3.100   6.078   0.731 -2.4506 -0.7246 -0.1966
12484TIP3   OH258942   3.988   6.291  15.181 -0.6329  0.5726 -0.8820
12484TIP3    H158943   4.004   6.207  15.224  0.1788  1.2708  0.2213
12484TIP3    H258944   4.062   6.347  15.207 -0.8545  1.4729 -2.0453
12485TIP3   OH258945   6.699   0.354   1.833 -0.0921 -0.1467 -0.0900
12485TIP3    H158946   6.674   0.409   1.908  0.6881  1.2389 -0.7866
12485TIP3    H258947   6.722   0.417   1.765  3.2450 -1.2394 -0.1668
12486TIP3   OH258948   0.628   2.445   3.684 -0.0995  0.5301 -0.4618
12486TIP3    H158949   0.674   2.414   3.762 -1.4582  0.3344  0.2927
12486TIP3    H258950   0.697   2.461   3.620  0.9263 -0.6783  0.3061
12487TIP3   OH258951   3.990   2.595   3.646  0.1216 -0.6817  0.4120
12487TIP3    H158952   4.037   2.634   3.719  0.8141  0.1897 -0.4695
12487TIP3    H258953   3.898   2.612   3.664  0.2031 -1.3823  1.5817
12488TIP3   OH258954   2.299   3.340  13.074  0.1476  0.5381  0.1888
12488TIP3    H158955   2.325   3.385  13.155 -0.1781 -0.1079  0.6631
12488TIP3    H258956   2.282   3.411  13.012 -0.0065  1.0621  0.8118
12489TIP3   OH258957   0.281   0.849  14.437  0.4047  0.0641 -0.0501
12489TIP3    H158958   0.286   0.799  14.356 -1.1333 -0.3276  0.0718
12489TIP3    H258959   0.310   0.937  14.412 -0.7284  0.1372 -1.2097
12490TIP3   OH258960   5.977   1.479   5.453  0.1897  0.1078 -1.0795
12490TIP3    H158961   5.902   1.488   5.512  0.7802  3.1865 -0.6109
12490TIP3    H258962   6.052   1.464   5.512  0.5991  1.9839 -1.0562
12491TIP3   OH258963   5.253   0.305  14.702  0.1036  0.0494 -0.2055
12491TIP3    H158964   5.251   0.387  14.752 -0.7545  0.4909 -0.9254
12491TIP3    H258965   5.336   0.264  14.727  0.2863  0.8650  0.5992
12492TIP3   OH258966   5.847   6.636  16.464  0.2223  0.4834  0.0041
12492TIP3    H158967   5.869   6.720  16.423  1.1584 -0.8386 -2.4123
12492TIP3    H258968   5.801   6.660  16.545  3.7139  3.4187  1.4455
12493TIP3   OH258969   5.079   1.922  15.854  0.6641  0.2752 -1.1427
12493TIP3    H158970   5.168   1.889  15.842  1.3807  1.5191  0.3952
12493TIP3    H258971   5.040   1.917  15.767  2.8410  1.4306 -2.2788
12494TIP3   OH258972   1.836   4.341   3.667 -0.0443  0.0167 -0.9756
12494TIP3    H158973   1.759   4.377   3.623  0.5993  1.2651 -1.1145
12494TIP3    H258974   1.829   4.372   3.757  0.5622  0.5864 -1.1184
12495TIP3   OH258975   1.310   2.645   3.931  0.3354  0.4819 -0.1224
12495TIP3    H158976   1.324   2.738   3.915  1.4105 -0.0668 -2.9384
12495TIP3    H258977   1.306   2.606   3.844 -0.2332 -2.1017  0.9725
12496TIP3   OH258978   6.465   6.579   2.711 -0.2630 -0.1601 -0.1889
12496TIP3    H158979   6.379   6.616   2.732 -0.8092 -1.2620 -0.4282
12496TIP3    H258980   6.502   6.556   2.796  1.0711  2.9205  0.2066
12497TIP3   OH258981   4.802   0.578   0.157 -0.6484 -0.0814 -0.0417
12497TIP3    H158982   4.771   0.560   0.068 -0.6285 -1.1783  0.1607
12497TIP3    H258983   4.729   0.621   0.200 -0.9704 -0.3340 -0.3318
12498TIP3   OH258984   2.268   6.731  11.383  0.1829 -0.2739  0.3358
12498TIP3    H158985   2.285   6.657  11.325  0.3005 -0.7023  0.9014
12498TIP3    H258986   2.338   6.726  11.449 -1.5923 -1.5715  2.2417
12499TIP3   OH258987   2.110   1.474   1.562  0.0322 -0.4231  0.3200
12499TIP3    H158988   2.104   1.449   1.654  2.0034 -0.1398  0.5825
12499TIP3    H258989   2.108   1.570   1.563 -1.2222 -0.4385 -0.0679
12500TIP3   OH258990   5.626   4.618  11.386 -0.3428 -1.4328  0.5049
12500TIP3    H158991   5.696   4.662  11.338 -0.2884 -0.8943  1.0706
12500TIP3    H258992   5.664   4.596  11.471 -0.5974 -1.9162  0.5002
12501TIP3   OH258993   2.742   3.794   1.377  0.8519  0.3757  0.3561
12501TIP3    H158994   2.702   3.847   1.308 -2.0626  0.3572  1.8606
12501TIP3    H258995   2.700   3.708   1.367  2.1393 -0.3188  0.7452
12502TIP3   OH258996   3.345   5.356   2.279  0.4979  0.1156 -0.6241
12502TIP3    H158997   3.284   5.353   2.354  2.0490 -1.8208  0.6620
12502TIP3    H258998   3.317   5.283   2.224 -0.0819  0.9983 -1.5333
12503TIP3   OH258999   1.532   0.802   3.232  0.7544  0.1197 -0.2816
12503TIP3    H159000   1.504   0.891   3.251 -0.6064  0.0413 -1.7505
12503TIP3    H259001   1.568   0.806   3.144  0.2139 -0.8685 -0.5688
12504TIP3   OH259002   5.075   1.928  11.333 -0.8475 -0.9979 -0.0071
12504TIP3    H159003   5.158   1.904  11.373 -0.0802 -0.4465 -1.2285
12504TIP3    H259004   5.056   2.015  11.367 -1.2371 -1.3384  0.6992
12505TIP3   OH259005   5.253   4.513  15.737  0.4071  0.1310 -0.7820
12505TIP3    H159006   5.163   4.484  15.719  0.3271 -0.1202 -0.0117
12505TIP3    H259007   5.259   4.512  15.832  0.7211  1.6981 -0.7600
12506TIP3   OH259008   6.244   6.468   3.875  0.4892  0.0411 -0.1047
12506TIP3    H159009   6.178   6.460   3.945  0.4360 -0.7523 -0.2337
12506TIP3    H259010   6.327   6.454   3.920  0.4701 -0.2608 -0.1603
12507TIP3   OH259011   2.084   6.755   6.193  0.1154 -0.1748 -0.4446
12507TIP3    H159012   2.097   6.666   6.227 -0.6849 -0.4250 -0.7797
12507TIP3    H259013   2.043   6.803   6.264  3.5859  0.9253  1.0304
12508TIP3   OH259014   2.248   3.380   5.345 -0.6661 -0.3652  0.3943
12508TIP3    H159015   2.229   3.401   5.436 -0.2953 -0.0884  0.4090
12508TIP3    H259016   2.333   3.421   5.328 -0.8610 -0.1876 -0.1532
12509TIP3   OH259017   1.863   4.773  16.313 -0.6405 -0.3140  0.3696
12509TIP3    H159018   1.957   4.788  16.298 -0.0440 -2.3019  1.7576
12509TIP3    H259019   1.840   4.833  16.384 -0.3253 -0.0695  0.2659
12510TIP3   OH259020   1.848   6.730  14.840  0.4016  0.3013 -0.0925
12510TIP3    H159021   1.914   6.668  14.809  0.0107 -0.7527  1.0848
12510TIP3    H259022   1.890   6.816  14.834  0.9988 -0.0666 -1.6639
12511TIP3   OH259023   0.574   6.592   5.080 -0.8029  0.2912  0.4355
12511TIP3    H159024   0.578   6.622   5.171 -2.4623 -0.4196  0.7816
12511TIP3    H259025   0.585   6.497   5.086 -0.9392  0.2386 -0.1034
12512TIP3   OH259026   3.248   3.824  15.549  0.1606 -0.2630 -0.2085
12512TIP3    H159027   3.157   3.820  15.519 -0.2236 -0.0613  0.8934
12512TIP3    H259028   3.298   3.782  15.479 -0.8237 -0.7607 -0.6361
12513TIP3   OH259029   4.000   4.657  10.514 -0.0440  0.5127 -0.3993
12513TIP3    H159030   3.928   4.630  10.571  0.2921 -0.3253 -0.3693
12513TIP3    H259031   4.079   4.641  10.566  0.1870  1.1815 -0.5328
12514TIP3   OH259032   3.164   2.474  17.055 -0.0727 -0.5268 -0.1043
12514TIP3    H159033   3.227   2.536  17.091  0.3666 -0.2480 -1.3271
12514TIP3    H259034   3.092   2.474  17.118  0.6580 -0.0289  0.7480
12515TIP3   OH259035   5.655   4.485  15.515  0.3004 -0.3326 -0.5106
12515TIP3    H159036   5.586   4.534  15.560  0.6557  0.1632 -0.5053
12515TIP3    H259037   5.622   4.395  15.513 -0.0237 -0.2357  0.1332
12516TIP3   OH259038   3.328   2.893   1.452  0.5052  0.1727 -0.2513
12516TIP3    H159039   3.322   2.884   1.547 -0.4582  1.1817 -0.1970
12516TIP3    H259040   3.245   2.860   1.419 -0.1897  2.0925 -0.5374
12517TIP3   OH259041   2.268   6.528   1.069 -0.4512 -0.0765 -0.1001
12517TIP3    H159042   2.308   6.474   1.137  1.4820  2.4008  0.8922
12517TIP3    H259043   2.204   6.582   1.115  0.0473  0.8099 -0.4125
12518TIP3   OH259044   5.333   6.473  10.431  0.1307  0.5054  0.6627
12518TIP3    H159045   5.305   6.528  10.505 -2.1221  0.3144  0.0286
12518TIP3    H259046   5.350   6.536  10.361  0.2276  0.5500  0.7249
12519TIP3   OH259047   6.407   6.229   1.073  0.0768 -0.4421 -0.4206
12519TIP3    H159048   6.482   6.274   1.033  0.1620 -1.1898 -1.1352
12519TIP3    H259049   6.380   6.287   1.145  1.1753 -0.0326 -0.3082
12520TIP3   OH259050   4.417   4.103  11.993 -0.0144 -0.2366  0.0286
12520TIP3    H159051   4.477   4.158  11.941 -0.0761  0.2278  0.4417
12520TIP3    H259052   4.410   4.148  12.077  1.9314 -2.1717  1.3287
12521TIP3   OH259053   1.751   1.965   2.425 -0.2660  0.2464 -0.2332
12521TIP3    H159054   1.667   1.959   2.379 -1.5406 -0.0192  1.9706
12521TIP3    H259055   1.745   2.046   2.475  1.5841  1.1678 -1.4266
12522TIP3   OH259056   6.117   0.888  11.242 -0.5349 -0.1107  0.5828
12522TIP3    H159057   6.204   0.927  11.239 -1.0839  1.1059 -2.3511
12522TIP3    H259058   6.120   0.815  11.180 -1.8850  0.6816 -0.4841
12523TIP3   OH259059   0.827   1.481  17.126 -0.0935  0.4611 -0.5967
12523TIP3    H159060   0.793   1.455  17.211  0.3726  1.6404 -0.0257
12523TIP3    H259061   0.922   1.472  17.134 -0.1175 -0.7824 -1.4751
12524TIP3   OH259062   2.876   4.512  14.457 -0.2170 -0.6494  0.4176
12524TIP3    H159063   2.936   4.472  14.520  1.6940  0.8089 -0.3586
12524TIP3    H259064   2.882   4.456  14.380  0.6477 -0.1908  0.1384
12525TIP3   OH259065   5.378   0.575   1.050  0.0495 -0.7369 -0.3585
12525TIP3    H159066   5.438   0.523   1.103 -0.5966 -1.9876 -0.8093
12525TIP3    H259067   5.432   0.644   1.012  0.6036 -0.0599  1.5721
12526TIP3   OH259068   5.867   1.067  15.360 -0.2848 -0.1722 -0.2231
12526TIP3    H159069   5.795   1.096  15.304 -0.4166  0.5036  0.2823
12526TIP3    H259070   5.895   0.984  15.322 -0.2874  0.3279 -1.3591
12527TIP3   OH259071   3.018   1.950  10.935  0.1070  0.2640  0.1761
12527TIP3    H159072   3.039   2.039  10.963 -0.3273  0.5472 -0.3666
12527TIP3    H259073   3.097   1.899  10.954  0.4383  0.8147  0.2873
12528TIP3   OH259074   0.853   2.587   0.734  0.5066 -0.2060  0.1514
12528TIP3    H159075   0.947   2.594   0.755  0.2812  1.3566  0.7713
12528TIP3    H259076   0.833   2.494   0.745  2.1336 -0.6914 -0.6805
12529TIP3   OH259077   4.857   3.870   5.775 -0.4571  0.2147 -0.6186
12529TIP3    H159078   4.930   3.930   5.791  0.1696 -1.0292  1.6103
12529TIP3    H259079   4.868   3.843   5.684  2.0962 -0.1697 -0.2734
12530TIP3   OH259080   6.332   2.880  14.878 -0.1547 -0.3861 -0.4043
12530TIP3    H159081   6.366   2.862  14.790  1.9138 -3.3730  0.8624
12530TIP3    H259082   6.247   2.837  14.881  0.3191 -1.3654 -0.6057
12531TIP3   OH259083   0.752   4.571   1.045  0.1255  0.2232 -0.2685
12531TIP3    H159084   0.697   4.574   1.124  0.6308 -0.4867  0.1275
12531TIP3    H259085   0.717   4.639   0.988 -1.5080 -0.5544 -0.2422
12532TIP3   OH259086   0.638   4.791   4.721  0.1360 -0.3006  0.4047
12532TIP3    H159087   0.589   4.808   4.640  2.0581 -1.2584 -1.0410
12532TIP3    H259088   0.603   4.855   4.783 -3.2323 -1.2239 -0.3390
12533TIP3   OH259089   5.803   4.753   6.047  0.2844 -0.3919 -0.1474
12533TIP3    H159090   5.795   4.697   6.123 -0.1127 -1.4146 -0.9202
12533TIP3    H259091   5.891   4.791   6.054 -0.2342  0.5863  1.4989
12534TIP3   OH259092   2.823   4.707   4.183  0.1950 -0.5635 -0.4682
12534TIP3    H159093   2.737   4.730   4.148 -0.3312 -1.0145  0.5025
12534TIP3    H259094   2.804   4.654   4.261  1.3144  0.4773  0.5594
12535TIP3   OH259095   3.218   1.120  11.006 -0.2597 -0.1041 -0.3971
12535TIP3    H159096   3.222   1.149  10.915  1.1604 -1.0494 -0.6791
12535TIP3    H259097   3.306   1.084  11.024 -0.7413 -0.6368  1.1033
12536TIP3   OH259098   3.572   1.757  15.812  0.3529  0.4517 -0.1932
12536TIP3    H159099   3.592   1.712  15.894  1.3286 -1.5484 -1.4471
12536TIP3    H259100   3.658   1.771  15.771 -0.0797  1.8662 -0.6779
12537TIP3   OH259101   4.671   0.339   0.846  0.4569 -0.0172  0.2143
12537TIP3    H159102   4.581   0.306   0.848  1.0541 -1.7083  0.2882
12537TIP3    H259103   4.683   0.372   0.757 -0.1887  0.1041  0.1703
12538TIP3   OH259104   2.336   6.423   4.694 -0.0252 -0.1168 -0.2356
12538TIP3    H159105   2.310   6.331   4.685 -1.1080  0.2608 -1.1892
12538TIP3    H259106   2.355   6.452   4.605 -0.6593  0.8496 -0.0700
12539TIP3   OH259107   3.839   3.388   4.321  0.6304 -0.3320 -0.1117
12539TIP3    H159108   3.768   3.442   4.354  0.0945 -0.8093 -0.4793
12539TIP3    H259109   3.886   3.445   4.260  1.0221  0.2256  0.6974
12540TIP3   OH259110   4.660   6.340  13.499  0.1741 -0.6081  0.1260
12540TIP3    H159111   4.741   6.328  13.449 -0.5697 -0.6865 -1.0858
12540TIP3    H259112   4.616   6.255  13.494 -1.2233  0.1420 -1.5028
12541TIP3   OH259113   4.000   5.308   2.118  0.2002  0.3475  0.3753
12541TIP3    H159114   4.086   5.350   2.121  1.7715 -2.3498 -2.1424
12541TIP3    H259115   3.995   5.259   2.200  1.2264  0.2832  0.4161
12542TIP3   OH259116   2.992   1.259  11.459  0.4127  0.4353 -0.3510
12542TIP3    H159117   2.918   1.235  11.404  1.4963 -0.7192 -1.3912
12542TIP3    H259118   3.024   1.341  11.423  0.9434 -0.1741 -1.3078
12543TIP3   OH259119   4.517   3.917  12.530 -0.0976 -0.4927 -0.2927
12543TIP3    H159120   4.471   3.998  12.549  0.9054 -0.5075  2.8106
12543TIP3    H259121   4.507   3.865  12.610  1.7217 -2.2285 -1.1117
12544TIP3   OH259122   5.930   0.408  15.075 -0.1918 -0.0526 -0.2986
12544TIP3    H159123   6.009   0.461  15.066  0.5163 -0.8323  0.9526
12544TIP3    H259124   5.941   0.338  15.011 -0.8511  0.9430 -1.5398
12545TIP3   OH259125   4.181   1.236  12.387 -0.0336  0.1214 -0.9403
12545TIP3    H159126   4.150   1.146  12.383 -0.7434  0.4103 -2.4992
12545TIP3    H259127   4.127   1.276  12.456  0.4668 -0.6809 -0.0502
12546TIP3   OH259128   2.970   4.488   1.931  0.2151 -0.1729  0.1851
12546TIP3    H159129   3.012   4.457   1.850  1.9486  3.8683 -0.6920
12546TIP3    H259130   3.028   4.459   2.001 -0.8550 -2.9740  0.0560
12547TIP3   OH259131   4.718   6.545  15.740 -0.0328 -0.0411 -0.2341
12547TIP3    H159132   4.777   6.527  15.813  1.7840 -0.1873 -1.6771
12547TIP3    H259133   4.737   6.635  15.715  0.6201 -0.5334 -1.5999
12548TIP3   OH259134   4.493   1.979   3.686 -0.1569  0.5881 -0.1267
12548TIP3    H159135   4.458   2.047   3.628  0.6586  0.8553 -0.3222
12548TIP3    H259136   4.561   2.024   3.736  1.3714 -0.3915 -1.2290
12549TIP3   OH259137   6.484   2.236  11.637 -0.3114 -0.9743  0.3296
12549TIP3    H159138   6.539   2.217  11.561 -1.1670 -1.3088 -0.2181
12549TIP3    H259139   6.414   2.171  11.633 -2.0101  0.7960 -0.2815
12550TIP3   OH259140   6.540   2.666   0.423 -0.3638  0.2824  0.8029
12550TIP3    H159141   6.468   2.715   0.462 -0.3626  0.1363  0.9886
12550TIP3    H259142   6.530   2.679   0.329  0.2174  1.4554  0.8967
12551TIP3   OH259143   3.229   5.211   5.582 -0.0732 -0.0275  0.0922
12551TIP3    H159144   3.299   5.275   5.567 -1.3689  1.4412  0.0044
12551TIP3    H259145   3.271   5.126   5.570  1.2379  0.8400 -1.9934
12552TIP3   OH259146   2.424   6.407   3.395  0.2529  0.1966  0.1766
12552TIP3    H159147   2.497   6.376   3.449  0.0048  0.0800  0.4478
12552TIP3    H259148   2.427   6.351   3.317  0.6371  0.3931  0.0488
12553TIP3   OH259149   1.457   4.605  11.813 -0.3559  0.4112  0.0001
12553TIP3    H159150   1.397   4.532  11.802 -1.5757  1.4648 -0.6092
12553TIP3    H259151   1.527   4.571  11.869 -0.0752 -1.6523 -1.5107
12554TIP3   OH259152   5.116   3.367  11.893  0.0635 -0.4011  0.0262
12554TIP3    H159153   5.186   3.432  11.886 -0.2106  0.0356  1.0490
12554TIP3    H259154   5.073   3.369  11.808 -0.3812  1.3096  0.2457
12555TIP3   OH259155   6.102   4.047   2.486 -0.0954  0.1370 -0.1446
12555TIP3    H159156   6.122   4.062   2.394  0.5263 -0.0741 -0.0515
12555TIP3    H259157   6.184   4.012   2.523  0.5041  2.5820  1.0379
12556TIP3   OH259158   0.536   5.214  13.758 -0.1538 -0.4669 -0.0713
12556TIP3    H159159   0.570   5.130  13.729  0.7157 -0.3359  0.5250
12556TIP3    H259160   0.512   5.259  13.677  3.3170  0.3571 -0.8413
12557TIP3   OH259161   0.666   4.572  13.296 -0.2296  0.3532 -0.4218
12557TIP3    H159162   0.595   4.629  13.328  0.7967 -0.3695  3.8275
12557TIP3    H259163   0.746   4.621  13.316  0.6505 -2.0213  2.7639
12558TIP3   OH259164   4.378   5.140   1.836  0.4584  0.2190  0.4194
12558TIP3    H159165   4.469   5.149   1.864 -0.2414  1.4711  2.5107
12558TIP3    H259166   4.332   5.111   1.915 -1.0130 -0.1307 -0.5291
12559TIP3   OH259167   4.992   0.406   4.976 -0.9107 -0.3079  0.5071
12559TIP3    H159168   5.063   0.348   5.004  0.2380  1.1299  0.6783
12559TIP3    H259169   5.013   0.427   4.885 -1.3636 -0.2069  0.4214
12560TIP3   OH259170   2.004   3.958   1.930 -0.0791  0.6734 -0.8866
12560TIP3    H159171   2.055   4.012   1.870 -1.0870  2.3917 -0.2923
12560TIP3    H259172   2.026   3.992   2.017  2.4117 -2.6386 -0.0107
12561TIP3   OH259173   2.022   3.435   4.782  0.6530  0.9948 -0.3943
12561TIP3    H159174   2.074   3.412   4.705  1.7177 -2.4003  1.1463
12561TIP3    H259175   1.947   3.376   4.779  1.3878 -0.1394  1.7453
12562TIP3   OH259176   0.841   2.199   5.456  0.3369 -0.7821  0.2943
12562TIP3    H159177   0.901   2.150   5.399  0.1827  0.0477 -0.6196
12562TIP3    H259178   0.892   2.217   5.535  0.8295 -1.2538  0.0924
12563TIP3   OH259179   5.921   1.614  12.020  0.0917  0.3043  0.0108
12563TIP3    H159180   5.957   1.572  11.942 -0.2645  0.6537 -0.3446
12563TIP3    H259181   5.951   1.705  12.015 -0.5075  0.5020 -0.0818
12564TIP3   OH259182   1.677   6.316  14.504 -0.0729 -0.3727 -0.2627
12564TIP3    H159183   1.742   6.384  14.523 -1.5971  1.4168 -1.0491
12564TIP3    H259184   1.719   6.260  14.438  1.0181  0.1411 -0.0233
12565TIP3   OH259185   3.292   0.196  17.049  0.4867 -0.3894 -0.5428
12565TIP3    H159186   3.320   0.288  17.048  0.0544 -0.2431 -2.4405
12565TIP3    H259187   3.351   0.152  16.989 -0.1183 -1.0955 -0.6344
12566TIP3   OH259188   5.743   6.637  16.945 -0.2638 -0.6876  0.4594
12566TIP3    H159189   5.805   6.564  16.948 -1.3738 -1.6125  1.9702
12566TIP3    H259190   5.658   6.597  16.962 -1.3384  0.5375 -1.6555
12567TIP3   OH259191   0.888   5.716   5.045 -0.6810 -0.6713  0.0089
12567TIP3    H159192   0.930   5.800   5.064  1.1176 -0.9838 -2.2130
12567TIP3    H259193   0.903   5.663   5.123  2.4061 -0.4640 -0.3381
12568TIP3   OH259194   5.124   6.002  14.110  0.4050  0.2989  0.5038
12568TIP3    H159195   5.179   6.024  14.185  2.5797 -1.2768 -0.5264
12568TIP3    H259196   5.066   5.933  14.142  0.3976  0.5766  1.0957
12569TIP3   OH259197   5.229   4.916   5.312  0.6207 -0.2116  0.3166
12569TIP3    H159198   5.249   4.866   5.391  0.4208 -1.5272 -0.4261
12569TIP3    H259199   5.185   4.852   5.254  0.2600  0.8614 -0.6294
12570TIP3   OH259200   1.381   6.611  11.333  0.2473  0.0762 -0.2695
12570TIP3    H159201   1.415   6.561  11.407 -1.1153 -0.2882  0.1454
12570TIP3    H259202   1.451   6.607  11.267  0.2990 -2.1954 -0.1642
12571TIP3   OH259203   3.098   6.304  16.943  0.2005 -0.4026 -0.0684
12571TIP3    H159204   3.006   6.315  16.966  0.3691  1.5589 -0.1085
12571TIP3    H259205   3.123   6.389  16.906  2.1160 -0.7698  0.2939
12572TIP3   OH259206   5.141   3.990  12.987 -0.0465  0.4861 -0.5648
12572TIP3    H159207   5.078   4.002  13.059 -1.6745 -0.6089 -1.7333
12572TIP3    H259208   5.216   3.948  13.028 -0.5102  0.8236  0.6864
12573TIP3   OH259209   2.841   3.069  10.591 -0.2601 -0.4156  0.6489
12573TIP3    H159210   2.784   3.136  10.553 -1.9743 -1.0367  2.0073
12573TIP3    H259211   2.928   3.110  10.593 -1.0045  1.2709  0.2749
12574TIP3   OH259212   3.868   4.341  14.260  0.0786 -0.0043 -0.1750
12574TIP3    H159213   3.843   4.415  14.315 -3.5121 -0.6987 -0.6204
12574TIP3    H259214   3.887   4.381  14.175 -0.9348  0.5188 -0.1721
12575TIP3   OH259215   5.626   3.225   4.364 -0.1548  0.0395 -0.3243
12575TIP3    H159216   5.556   3.239   4.427  0.8050 -0.7929  0.9620
12575TIP3    H259217   5.647   3.132   4.370  0.9492  0.2316 -0.7836
12576TIP3   OH259218   4.603   0.572   6.318  0.3932  0.2611 -0.3909
12576TIP3    H159219   4.652   0.490   6.321 -1.2810 -0.7600  0.1962
12576TIP3    H259220   4.668   0.640   6.340  2.0243 -0.7560 -1.7941
12577TIP3   OH259221   0.873   2.745   4.576  0.1497  0.2464 -0.1295
12577TIP3    H159222   0.954   2.738   4.626  0.3644  0.3365 -0.4690
12577TIP3    H259223   0.856   2.657   4.544 -0.4052  0.0188  0.7544
12578TIP3   OH259224   2.394   5.024  14.947 -0.2580 -0.1843  0.3306
12578TIP3    H159225   2.331   4.952  14.940 -0.7538  0.3663 -1.0650
12578TIP3    H259226   2.472   4.984  14.985  0.8103 -2.3603 -3.6438
12579TIP3   OH259227   6.174   0.204  15.172  0.3124  0.2510 -0.7305
12579TIP3    H159228   6.095   0.162  15.207 -0.4996  2.3254  0.0955
12579TIP3    H259229   6.241   0.136  15.177 -0.9844 -1.0273  0.2720
12580TIP3   OH259230   4.886   4.918   1.893 -0.0742  0.0456 -0.7370
12580TIP3    H159231   4.933   4.863   1.956 -0.2733 -0.8254 -1.3173
12580TIP3    H259232   4.918   5.006   1.909  1.0208 -0.3841 -0.4531
12581TIP3   OH259233   1.115   2.832  13.608 -0.6170  0.1881 -0.3624
12581TIP3    H159234   1.156   2.890  13.544 -0.2052  1.4227  0.9733
12581TIP3    H259235   1.137   2.870  13.693 -1.4188 -1.2233  0.5180
12582TIP3   OH259236   2.118   5.391  11.001  0.4673  0.1896  0.1754
12582TIP3    H159237   2.068   5.315  11.028  0.4453 -0.1059 -0.6568
12582TIP3    H259238   2.163   5.421  11.080  0.3591 -0.5980  0.5362
12583TIP3   OH259239   5.583   4.824   5.757 -0.3312  0.1278 -0.1496
12583TIP3    H159240   5.663   4.776   5.779 -0.4471  0.2055  0.4376
12583TIP3    H259241   5.599   4.913   5.786 -1.0222 -0.0825  0.9089
12584TIP3   OH259242   3.257   1.815  10.958 -0.0921 -0.5425  0.2722
12584TIP3    H159243   3.346   1.841  10.981  0.4977 -0.6208 -1.7446
12584TIP3    H259244   3.265   1.775  10.871 -2.0602 -0.7988  0.1582
12585TIP3   OH259245   1.189   3.229  13.420  0.2820 -0.0190 -0.0735
12585TIP3    H159246   1.201   3.313  13.465 -0.5464  1.0890 -1.8176
12585TIP3    H259247   1.276   3.189  13.421  0.9200  1.2958  0.0014
12586TIP3   OH259248   0.447   5.718   2.165  0.3580 -0.1167  0.2596
12586TIP3    H159249   0.464   5.733   2.072  0.9366  2.3309  0.7002
12586TIP3    H259250   0.352   5.707   2.171  0.3679 -0.7638 -0.6675
12587TIP3   OH259251   5.617   6.199  13.650  0.4367 -0.3113  0.1622
12587TIP3    H159252   5.590   6.270  13.709  0.1971  0.5965 -1.0151
12587TIP3    H259253   5.680   6.148  13.701  2.1549  1.9098  0.3584
12588TIP3   OH259254   6.411   0.905  15.232  0.3974 -0.6095  0.4731
12588TIP3    H159255   6.395   0.904  15.326 -1.7073 -1.3342  0.1611
12588TIP3    H259256   6.435   0.996  15.213 -0.8940 -0.0284  1.4734
12589TIP3   OH259257   3.926   2.193  15.074  0.4199 -0.6492  0.2966
12589TIP3    H159258   4.014   2.155  15.075  2.1486  2.9268  1.4954
12589TIP3    H259259   3.883   2.155  15.150  2.6340  0.7738  2.4319
12590TIP3   OH259260   0.959   6.817  12.938  0.0629  0.3529  0.0413
12590TIP3    H159261   0.973   6.911  12.950 -1.9652  0.5397  1.5527
12590TIP3    H259262   0.906   6.811  12.859 -0.7896  0.6254  0.5705
12591TIP3   OH259263   1.479   0.833  15.791 -0.0559 -0.3952 -0.4710
12591TIP3    H159264   1.540   0.829  15.718  0.2951 -1.8080 -0.1270
12591TIP3    H259265   1.511   0.905  15.845  1.2052 -0.9708 -0.4080
12592TIP3   OH259266   2.769   0.557  13.962  0.1852 -0.2584  0.1445
12592TIP3    H159267   2.847   0.534  13.911  0.7012 -0.7693  1.1233
12592TIP3    H259268   2.700   0.502  13.927  0.3084  0.0310 -0.5783
12593TIP3   OH259269   5.281   2.434  15.832  0.4853 -0.1720 -0.3501
12593TIP3    H159270   5.235   2.360  15.871 -0.4903  1.5298  1.9956
12593TIP3    H259271   5.221   2.469  15.767  1.1963 -1.7067 -1.9168
12594TIP3   OH259272   2.740   4.820   5.987 -0.4984 -0.3874 -0.4051
12594TIP3    H159273   2.651   4.790   6.006 -1.3364  0.8713 -2.1502
12594TIP3    H259274   2.751   4.805   5.893 -0.0219  2.2781 -0.8524
12595TIP3   OH259275   4.627   0.966   4.616  0.3378 -0.3759  0.2019
12595TIP3    H159276   4.580   0.926   4.542 -1.0184 -0.0078  0.8430
12595TIP3    H259277   4.559   0.985   4.680  1.2823  0.8201  0.8819
12596TIP3   OH259278   0.944   1.407  14.071  0.1175 -0.3828  0.5084
12596TIP3    H159279   0.884   1.408  13.997  1.8873 -2.8080 -1.1403
12596TIP3    H259280   1.014   1.467  14.046 -0.9862  1.6289  1.9581
12597TIP3   OH259281   2.165   6.635   0.768  0.0257  0.3730  0.0389
12597TIP3    H159282   2.161   6.543   0.797 -1.4010  0.7579  1.1851
12597TIP3    H259283   2.154   6.686   0.848 -0.4160  1.5321 -0.7270
12598TIP3   OH259284   1.011   1.149   3.993  0.1600  0.1285 -0.1443
12598TIP3    H159285   0.991   1.189   3.909 -0.2381 -1.6124 -0.9214
12598TIP3    H259286   1.070   1.077   3.973 -1.3677 -1.4839  0.7714
12599TIP3   OH259287   2.313   1.241   5.568  0.4635  0.6312  0.1614
12599TIP3    H159288   2.347   1.176   5.630  1.5784  0.7091 -0.3538
12599TIP3    H259289   2.221   1.216   5.555  0.0323  0.9158  2.2392
12600TIP3   OH259290   0.608   0.801   6.090 -0.8694 -0.3133 -0.1582
12600TIP3    H159291   0.548   0.831   6.158 -1.2833  0.7187 -0.9494
12600TIP3    H259292   0.586   0.709   6.077 -1.6064 -0.2009  0.2457
12601TIP3   OH259293   6.320   3.934  13.911  0.4564  1.0294  0.2799
12601TIP3    H159294   6.281   3.854  13.876 -0.0051  0.5607  1.7806
12601TIP3    H259295   6.315   3.997  13.839  0.3855 -0.1365 -0.7695
12602TIP3   OH259296   2.885   4.747  17.073 -0.1484  0.6814 -0.0427
12602TIP3    H159297   2.971   4.713  17.050 -0.2454  0.8695 -0.6909
12602TIP3    H259298   2.823   4.679  17.044 -0.2116  0.4924  0.5295
12603TIP3   OH259299   5.565   3.106   5.642  0.0631  0.3175 -0.4780
12603TIP3    H159300   5.626   3.055   5.694 -1.6802 -0.6178  0.7801
12603TIP3    H259301   5.555   3.188   5.691 -1.6896 -0.6207  0.8619
12604TIP3   OH259302   2.461   6.766  16.710  0.1643 -0.2538  0.0144
12604TIP3    H159303   2.368   6.742  16.711  0.3806 -1.2237 -1.0704
12604TIP3    H259304   2.474   6.815  16.792 -0.8908 -1.6693  1.0859
12605TIP3   OH259305   1.666   2.910  13.887 -0.4863 -0.5278 -0.4987
12605TIP3    H159306   1.656   2.818  13.865  0.7640 -0.9769  0.6607
12605TIP3    H259307   1.617   2.957  13.819 -2.5119 -2.0815 -0.1867
12606TIP3   OH259308   3.545   2.411  14.058  0.3220  0.1316  0.5637
12606TIP3    H159309   3.521   2.493  14.101  0.5098  0.9236 -0.7995
12606TIP3    H259310   3.638   2.420  14.039  0.2225 -0.1569 -0.0913
12607TIP3   OH259311   2.861   6.813   0.071 -0.4270 -0.2030 -0.3741
12607TIP3    H159312   2.945   6.844   0.104 -0.8864  0.4273  0.2302
12607TIP3    H259313   2.810   6.793   0.150 -0.3015 -2.1142 -0.7315
12608TIP3   OH259314   1.774   6.734   5.599 -0.0708 -0.5524 -0.3599
12608TIP3    H159315   1.710   6.793   5.637  0.8244  0.5570 -0.5384
12608TIP3    H259316   1.785   6.664   5.664  0.6706  0.7616  0.9764
12609TIP3   OH259317   4.868   5.954  11.637 -0.2096  0.3020  0.5215
12609TIP3    H159318   4.804   5.888  11.664  0.4082  0.5222  2.7049
12609TIP3    H259319   4.901   5.922  11.552 -1.2915 -1.1715  0.6089
12610TIP3   OH259320   6.079   3.808  13.411  0.4529 -0.0995  0.0786
12610TIP3    H159321   6.038   3.858  13.340 -0.4333  1.3815  1.5595
12610TIP3    H259322   6.094   3.721  13.373 -1.2726  0.2048 -1.4809
12611TIP3   OH259323   0.906   2.712   0.492  0.1070 -0.8015 -0.3797
12611TIP3    H159324   1.001   2.709   0.483  0.2251 -2.3741  0.8934
12611TIP3    H259325   0.889   2.685   0.582 -1.5162  0.5476 -0.2190
12612TIP3   OH259326   3.359   0.689   0.449 -0.2345 -0.4134 -0.0703
12612TIP3    H159327   3.338   0.769   0.401  1.7524  0.6023  0.6610
12612TIP3    H259328   3.414   0.638   0.390  1.7952  0.6100  0.8608
12613TIP3   OH259329   0.648   1.247   5.352  0.2362 -0.0467  0.1323
12613TIP3    H159330   0.665   1.316   5.288  1.5517  0.3430  0.8586
12613TIP3    H259331   0.591   1.287   5.416  0.5566  0.2052  0.2635
12614TIP3   OH259332   5.746   5.679   6.259  0.7900 -0.0852  0.1942
12614TIP3    H159333   5.751   5.771   6.285  0.3903 -0.2556  0.8878
12614TIP3    H259334   5.800   5.634   6.324  1.4043 -0.2850 -0.4448
12615TIP3   OH259335   6.075   0.438  14.515 -0.6972 -0.1734  0.1412
12615TIP3    H159336   6.164   0.406  14.529 -0.1395  1.8809  1.8180
12615TIP3    H259337   6.054   0.414  14.425  1.6631 -0.4550 -0.3902
12616TIP3   OH259338   2.980   1.072   3.704  0.0788  0.0958 -0.4423
12616TIP3    H159339   3.025   1.154   3.686  0.4788  0.0871  0.4797
12616TIP3    H259340   3.027   1.034   3.777  0.7297 -1.6084 -1.6890
12617TIP3   OH259341   0.771   2.968   5.278 -0.1364 -0.3956  0.2953
12617TIP3    H159342   0.803   3.015   5.201 -1.8523  0.7465  0.2039
12617TIP3    H259343   0.793   3.025   5.351 -1.8914  0.4677  0.2203
12618TIP3   OH259344   0.592   5.775   3.095  0.0413  0.2049  0.1116
12618TIP3    H159345   0.650   5.736   3.161 -1.1949  1.1197  1.8291
12618TIP3    H259346   0.647   5.836   3.046  0.5988  0.9389  1.6016
12619TIP3   OH259347   4.312   2.458  16.477  0.6411  0.5062 -0.2393
12619TIP3    H159348   4.319   2.389  16.411 -1.7871 -0.2055  0.1319
12619TIP3    H259349   4.307   2.411  16.560  1.4612  1.2831  0.2634
12620TIP3   OH259350   0.273   3.915  14.086  0.1047  0.1151 -0.6750
12620TIP3    H159351   0.273   4.007  14.060 -1.8756 -0.2223 -2.0323
12620TIP3    H259352   0.187   3.901  14.124  0.5724 -1.0793 -0.0066
12621TIP3   OH259353   3.151   5.111  15.852  0.3493  0.0232 -0.4476
12621TIP3    H159354   3.158   5.197  15.811 -1.1064  0.9444  1.0858
12621TIP3    H259355   3.079   5.068  15.805 -1.6390  1.2579  1.2734
12622TIP3   OH259356   4.469   5.205  15.304 -0.6276  0.1500  0.0117
12622TIP3    H159357   4.547   5.214  15.358 -0.3261  1.4911 -0.6173
12622TIP3    H259358   4.405   5.163  15.361  0.3834 -0.5261  0.6846
12623TIP3   OH259359   2.320   4.530  15.783  0.4523 -0.1116  0.3073
12623TIP3    H159360   2.323   4.614  15.736 -1.3462  0.4896  1.1854
12623TIP3    H259361   2.266   4.473  15.728  0.8295 -0.3844  0.2118
12624TIP3   OH259362   2.401   1.377   6.609 -0.2321  0.0870  0.1553
12624TIP3    H159363   2.393   1.320   6.532  0.2179 -0.4563  0.5057
12624TIP3    H259364   2.475   1.434   6.588 -0.8378  0.7276 -0.3017
12625TIP3   OH259365   5.370   4.016  16.950  0.0350 -0.4316  0.0258
12625TIP3    H159366   5.377   4.056  17.036  1.6299 -0.5039 -0.0410
12625TIP3    H259367   5.306   3.946  16.961  0.2223 -0.4378  1.1366
12626TIP3   OH259368   2.579   3.282  13.384 -0.1307 -0.1684 -0.0092
12626TIP3    H159369   2.659   3.260  13.432  1.2710  0.5682 -1.8436
12626TIP3    H259370   2.573   3.215  13.316 -0.2075  0.6259 -0.8036
12627TIP3   OH259371   2.954   3.457  15.265  0.4909  0.0401 -0.7206
12627TIP3    H159372   3.016   3.507  15.318  1.1294  0.5029 -1.8696
12627TIP3    H259373   2.991   3.458  15.177 -0.6239 -0.5698 -1.2234
12628TIP3   OH259374   3.453   2.767   3.426 -1.0633 -0.1562 -0.6280
12628TIP3    H159375   3.501   2.696   3.383 -0.5383 -0.2679  0.1301
12628TIP3    H259376   3.452   2.743   3.519 -0.7862  0.8730 -0.3488
12629TIP3   OH259377   4.544   3.575  16.406  0.0777 -0.6049  0.0935
12629TIP3    H159378   4.506   3.655  16.442 -1.3125 -0.5534 -1.3473
12629TIP3    H259379   4.637   3.582  16.424  0.0640  1.6073 -0.4336
12630TIP3   OH259380   1.818   2.757  16.967  0.0447 -0.0404  0.1444
12630TIP3    H159381   1.910   2.756  16.938  0.2869 -0.4780  0.8938
12630TIP3    H259382   1.787   2.668  16.950  0.4095 -0.5263  1.8484
12631TIP3   OH259383   2.214   5.309  16.236  0.0561  0.3623  0.0866
12631TIP3    H159384   2.288   5.248  16.232  0.1172  0.3389  1.2137
12631TIP3    H259385   2.139   5.259  16.204  0.3547  0.0983 -0.1954
12632TIP3   OH259386   3.098   1.608   0.563 -0.7706 -0.4059  0.6607
12632TIP3    H159387   3.142   1.551   0.625 -0.8636 -1.7445 -0.4466
12632TIP3    H259388   3.134   1.695   0.579  1.7255 -1.3101  0.2871
12633TIP3   OH259389   5.700   6.324  13.902 -0.5360 -0.2306  0.3052
12633TIP3    H159390   5.773   6.263  13.900 -0.7232 -0.5111  1.3616
12633TIP3    H259391   5.740   6.410  13.892 -0.1522 -0.4452 -0.0116
12634TIP3   OH259392   5.442   1.239   2.994 -0.2887  0.8461  0.2229
12634TIP3    H159393   5.427   1.180   3.068  1.7747 -0.1685 -0.0825
12634TIP3    H259394   5.463   1.180   2.921  3.5315  1.8479  0.2995
12635TIP3   OH259395   2.312   5.602   3.723 -0.4088 -0.4390  0.3472
12635TIP3    H159396   2.247   5.632   3.659 -0.0709 -1.4924 -0.5156
12635TIP3    H259397   2.394   5.596   3.673  0.3572  0.7683  1.3906
12636TIP3   OH259398   4.608   3.606  13.912 -0.2479  0.1048 -0.0016
12636TIP3    H159399   4.689   3.585  13.866  0.2008 -1.7003  1.4749
12636TIP3    H259400   4.538   3.584  13.850  0.3537 -1.1620 -0.2607
12637TIP3   OH259401   4.216   0.446  13.276  0.9407  0.4102 -0.3525
12637TIP3    H159402   4.276   0.384  13.236  2.1045  1.0326  0.3621
12637TIP3    H259403   4.130   0.426  13.238  1.5871 -0.5391 -1.3429
12638TIP3   OH259404   1.857   0.887  13.680  0.6039 -0.2004 -0.2462
12638TIP3    H159405   1.789   0.927  13.735  1.2943 -0.1849  0.6100
12638TIP3    H259406   1.810   0.825  13.625 -0.5431  1.8422 -1.7087
12639TIP3   OH259407   2.516   2.039  10.735 -0.6279 -0.0647  0.5247
12639TIP3    H159408   2.601   2.022  10.775 -1.4035 -2.0289  1.4890
12639TIP3    H259409   2.536   2.084  10.653  1.4319 -1.7642  0.0183
12640TIP3   OH259410   3.386   3.725  14.426 -0.0576  0.3426 -0.1008
12640TIP3    H159411   3.405   3.819  14.422 -1.2549  0.5953 -0.0368
12640TIP3    H259412   3.427   3.689  14.347  0.8272  0.8246  0.1223
12641TIP3   OH259413   1.921   4.994   4.237 -0.0436  0.3090  0.5047
12641TIP3    H159414   1.950   4.906   4.263  0.8264  0.5383  0.3573
12641TIP3    H259415   1.866   5.024   4.309 -1.3324 -0.8175  0.0169
12642TIP3   OH259416   1.378   4.562   0.164 -0.3671  0.1789 -0.2401
12642TIP3    H159417   1.460   4.514   0.176 -0.5596 -0.5024 -1.4936
12642TIP3    H259418   1.382   4.594   0.074 -1.8584 -0.6324 -0.6350
12643TIP3   OH259419   6.267   1.572   3.965  0.0814 -0.1559 -0.0482
12643TIP3    H159420   6.286   1.622   3.885  0.8543 -1.9595 -1.0580
12643TIP3    H259421   6.341   1.589   4.022 -1.0788  2.1818  0.9119
12644TIP3   OH259422   5.141   1.546  14.283  0.3757 -0.2918 -0.6080
12644TIP3    H159423   5.143   1.472  14.344 -2.4741 -1.5446 -1.8218
12644TIP3    H259424   5.231   1.576  14.279  1.6553 -3.5414  0.1851
12645TIP3   OH259425   1.392   1.283   5.997 -0.6247 -0.5821 -0.0977
12645TIP3    H159426   1.471   1.277   5.943  0.8552  1.8701  1.5477
12645TIP3    H259427   1.408   1.224   6.070  0.3238  0.7932  0.8575
12646TIP3   OH259428   1.078   0.462  12.678  0.0776 -0.4325  0.3304
12646TIP3    H159429   1.017   0.484  12.749 -0.8229  1.6739 -0.9937
12646TIP3    H259430   1.160   0.442  12.723 -0.2923  1.3957  1.9837
12647TIP3   OH259431   0.710   4.339   4.654 -0.5492 -0.2958 -0.3508
12647TIP3    H159432   0.806   4.341   4.651 -0.4450  0.6607  1.6550
12647TIP3    H259433   0.687   4.257   4.612  1.0773 -0.0356 -1.8658
12648TIP3   OH259434   6.651   4.578  13.093  0.2860  0.0770  0.2142
12648TIP3    H159435   6.568   4.557  13.051  0.5196 -0.8682  0.2074
12648TIP3    H259436   6.632   4.655  13.146 -0.0925  1.1333 -1.3791
12649TIP3   OH259437   5.799   1.973  17.107  0.0153 -0.6258 -0.6644
12649TIP3    H159438   5.835   2.035  17.170  0.0871 -0.4249 -0.9014
12649TIP3    H259439   5.721   2.016  17.073 -0.6664 -1.2145  0.1162
12650TIP3   OH259440   5.098   1.488   0.057 -0.0908  0.5784  0.2381
12650TIP3    H159441   5.122   1.534   0.137 -1.1257 -0.8591  1.4454
12650TIP3    H259442   5.037   1.420   0.086  2.4876 -2.5816 -1.1872
12651TIP3   OH259443   5.007   2.396   3.430  0.5244 -0.0007 -0.5479
12651TIP3    H159444   5.081   2.390   3.491  0.6666 -0.7911 -0.7891
12651TIP3    H259445   4.931   2.371   3.481  0.4224  0.7643 -0.3124
12652TIP3   OH259446   3.071   6.664  12.071 -0.5581  0.0089  0.0837
12652TIP3    H159447   3.155   6.707  12.055  0.3610 -1.5138  0.6213
12652TIP3    H259448   3.056   6.674  12.165  0.1453 -1.6056  0.4011
12653TIP3   OH259449   5.012   5.165   1.817 -0.1270 -0.6436  0.0334
12653TIP3    H159450   5.078   5.156   1.748  0.4544  1.7832  0.1589
12653TIP3    H259451   4.984   5.257   1.811 -1.8344 -1.0140  1.4746
12654TIP3   OH259452   6.648   1.943  10.511 -0.1182  0.3723  0.6634
12654TIP3    H159453   6.636   1.851  10.532  0.6654 -0.0282 -0.5185
12654TIP3    H259454   6.560   1.980  10.514 -0.5384 -0.5803  0.4396
12655TIP3   OH259455   6.465   6.259   5.334 -0.3239 -0.0686  0.3221
12655TIP3    H159456   6.543   6.246   5.388 -1.7363  0.6992  2.6910
12655TIP3    H259457   6.496   6.249   5.244  2.5239  0.4417  1.1612
12656TIP3   OH259458   0.709   6.046  12.693  0.1894 -0.0134 -0.4066
12656TIP3    H159459   0.618   6.018  12.702  1.0514 -2.8702  0.2808
12656TIP3    H259460   0.704   6.129  12.646 -2.8266  0.6097  0.8221
12657TIP3   OH259461   4.947   0.392   1.634 -0.3431  0.4686  0.3052
12657TIP3    H159462   4.923   0.347   1.553  1.8051  1.3269 -0.8817
12657TIP3    H259463   5.001   0.466   1.605  0.2847  0.9493  2.5160
12658TIP3   OH259464   1.993   3.644  15.531 -0.4916 -0.0522  0.0669
12658TIP3    H159465   1.993   3.702  15.607 -0.5222 -1.8684  1.5312
12658TIP3    H259466   2.015   3.558  15.567 -1.6874 -1.2026 -1.8100
12659TIP3   OH259467   4.575   4.467   4.918 -0.1861  0.8250  0.2045
12659TIP3    H159468   4.497   4.486   4.866  0.0710  2.1530  0.2753
12659TIP3    H259469   4.647   4.503   4.866  0.5024 -1.0404 -0.2261
12660TIP3   OH259470   1.030   3.834   0.974 -0.0962 -0.2138  0.3145
12660TIP3    H159471   1.030   3.929   0.980  0.5947 -0.2495  0.9802
12660TIP3    H259472   1.051   3.804   1.062 -2.2210 -1.0356  0.5822
12661TIP3   OH259473   2.546   5.241   1.174 -0.0506  0.4871 -0.3438
12661TIP3    H159474   2.479   5.303   1.202 -0.1637  0.8509 -1.3797
12661TIP3    H259475   2.541   5.170   1.237 -0.9387  0.8425 -0.0050
12662TIP3   OH259476   3.832   4.208   1.589 -0.2061 -0.2225  0.3553
12662TIP3    H159477   3.841   4.274   1.658 -0.6064  0.6642 -0.4219
12662TIP3    H259478   3.786   4.253   1.519 -0.6695 -1.4034 -0.1169
12663TIP3   OH259479   3.616   3.691   5.038  0.1969 -0.3438 -0.3939
12663TIP3    H159480   3.611   3.675   4.944 -0.1272 -0.9612 -0.2749
12663TIP3    H259481   3.562   3.623   5.077  1.6677 -1.1415  0.3517
12664TIP3   OH259482   0.199   2.455   4.703 -0.3492  0.5309 -0.3760
12664TIP3    H159483   0.222   2.547   4.715 -1.0748  1.2115 -3.4805
12664TIP3    H259484   0.115   2.446   4.749 -0.5071  1.5576 -0.4302
12665TIP3   OH259485   3.080   5.206   1.328  0.8067  0.1163  0.1200
12665TIP3    H159486   3.095   5.212   1.234  0.7519 -0.2222  0.0858
12665TIP3    H259487   3.102   5.115   1.350 -0.0963 -0.0756  0.2660
12666TIP3   OH259488   2.380   3.446  12.246 -0.1132 -0.2932 -0.0906
12666TIP3    H159489   2.324   3.492  12.183 -0.2611  0.5820  0.6619
12666TIP3    H259490   2.448   3.509  12.270  0.9180 -1.1778 -0.6102
12667TIP3   OH259491   3.822   5.058  13.681 -0.1447 -0.7520 -0.0035
12667TIP3    H159492   3.830   5.140  13.634  0.2991  0.3323  1.8572
12667TIP3    H259493   3.762   5.077  13.753 -0.9090 -2.3748 -0.1689
12668TIP3   OH259494   2.974   4.735   1.042 -0.4438 -0.2639 -0.4521
12668TIP3    H159495   2.976   4.786   1.122 -0.5814  2.2231 -1.9274
12668TIP3    H259496   3.066   4.722   1.019 -0.3718  1.2448 -1.1500
12669TIP3   OH259497   0.550   0.832   0.184  0.2729  0.0944 -0.5800
12669TIP3    H159498   0.460   0.851   0.208  0.1848 -0.9341 -0.0716
12669TIP3    H259499   0.578   0.909   0.133 -0.4881  0.9679  0.2881
12670TIP3   OH259500   6.792   1.800   1.276 -0.8421 -0.0722 -0.4069
12670TIP3    H159501   6.829   1.716   1.250  0.1936 -0.0015  0.7622
12670TIP3    H259502   6.752   1.834   1.196 -1.3402 -1.6879 -0.8839
12671TIP3   OH259503   1.395   3.427   3.253 -0.0608  0.3381  0.5942
12671TIP3    H159504   1.311   3.453   3.215 -1.0422 -2.9622  0.2483
12671TIP3    H259505   1.390   3.458   3.344  0.2264  3.8632 -0.4535
12672TIP3   OH259506   1.595   3.979  12.348 -0.1654  0.0247 -0.3040
12672TIP3    H159507   1.626   4.059  12.305  1.7187 -0.4645  0.0417
12672TIP3    H259508   1.501   3.976  12.328  0.2941  0.6917 -2.9325
12673TIP3   OH259509   2.165   0.286   1.968 -0.3836 -0.1936  0.1070
12673TIP3    H159510   2.172   0.382   1.969 -1.4493 -0.0776 -1.4159
12673TIP3    H259511   2.202   0.259   2.052  0.2969  1.5238  0.3978
12674TIP3   OH259512   4.068   4.241  11.696 -0.0521  0.2818  0.4165
12674TIP3    H159513   4.005   4.298  11.652  0.2431 -0.4827 -1.0847
12674TIP3    H259514   4.016   4.190  11.758 -0.7040  0.5292  0.0848
12675TIP3   OH259515   3.964   0.484   6.572 -0.0033 -0.0717  0.3499
12675TIP3    H159516   3.872   0.511   6.566  0.2230  0.4062 -1.1888
12675TIP3    H259517   3.995   0.525   6.653 -0.8596  0.6121  0.3471
12676TIP3   OH259518   5.969   6.184   6.477 -0.5546 -0.2083 -0.0991
12676TIP3    H159519   6.047   6.217   6.521 -0.8113  1.0830 -0.5816
12676TIP3    H259520   5.972   6.089   6.491  1.2197 -0.2173 -0.3044
12677TIP3   OH259521   3.046   5.164   4.049 -0.1263  0.3548  0.3366
12677TIP3    H159522   2.977   5.200   4.105 -0.5093 -2.4643  1.8881
12677TIP3    H259523   3.115   5.138   4.111 -0.3290 -2.3715 -0.4553
12678TIP3   OH259524   2.676   2.402   3.254  0.6831  0.2906 -0.6722
12678TIP3    H159525   2.706   2.326   3.304 -1.1392 -1.4236 -2.0245
12678TIP3    H259526   2.747   2.422   3.194  1.4494  0.0963  0.1528
12679TIP3   OH259527   2.093   1.597  17.038  0.3477  0.1600  0.1434
12679TIP3    H159528   2.023   1.579  16.976 -0.0230  0.4860  0.4605
12679TIP3    H259529   2.068   1.679  17.080  0.3795 -0.2620  1.0143
12680TIP3   OH259530   5.522   4.579  16.236 -0.3252 -0.0522 -0.2204
12680TIP3    H159531   5.525   4.490  16.200  0.6206  0.5336 -1.6719
12680TIP3    H259532   5.429   4.594  16.255 -0.3002 -1.9811  1.8115
12681TIP3   OH259533   2.057   2.208   5.257 -0.6228 -0.2033  0.0208
12681TIP3    H159534   1.995   2.238   5.190 -0.4290 -0.6257 -0.3540
12681TIP3    H259535   2.101   2.288   5.287 -0.1542 -0.0913 -0.9210
12682TIP3   OH259536   1.938   3.723   6.468  0.0906  0.3389 -0.4541
12682TIP3    H159537   1.987   3.756   6.393 -0.6621  0.7717 -0.7774
12682TIP3    H259538   1.847   3.718   6.437 -0.2224  0.4583  0.3980
12683TIP3   OH259539   6.395   3.799   1.591 -0.0355 -0.4330 -0.6665
12683TIP3    H159540   6.383   3.740   1.517 -2.3112  1.3757 -1.8650
12683TIP3    H259541   6.308   3.807   1.631  0.3245  1.5353 -0.1305
12684TIP3   OH259542   4.363   6.134   4.839 -0.2320 -0.2516  0.5951
12684TIP3    H159543   4.457   6.142   4.858 -0.3518  1.4035  0.6392
12684TIP3    H259544   4.332   6.069   4.902  1.4135 -3.3131 -1.5284
12685TIP3   OH259545   2.384   2.550  16.130 -0.3499  0.1477 -0.0592
12685TIP3    H159546   2.291   2.564  16.117 -0.2049 -0.5263 -2.1525
12685TIP3    H259547   2.419   2.637  16.150 -1.0543  0.9249 -1.9363
12686TIP3   OH259548   1.649   1.642  13.070  0.6722 -0.8724  0.7540
12686TIP3    H159549   1.657   1.648  12.975  0.5351 -1.9108  0.6755
12686TIP3    H259550   1.641   1.733  13.099 -1.5491 -0.6510 -0.4147
12687TIP3   OH259551   0.016   4.966  15.090  0.0894 -0.1212 -1.1970
12687TIP3    H159552  -0.047   5.019  15.041 -0.9109 -0.6006 -0.4571
12687TIP3    H259553  -0.023   4.879  15.094  0.3510 -0.1959  0.0783
12688TIP3   OH259554   2.775   3.684  15.229  0.1756 -0.1370 -0.1316
12688TIP3    H159555   2.815   3.758  15.182 -1.4355  1.2539  0.6088
12688TIP3    H259556   2.823   3.607  15.196  1.1104  1.0831 -1.8090
12689TIP3   OH259557   6.658   2.136  11.899 -0.3505 -0.1703 -0.0184
12689TIP3    H159558   6.613   2.210  11.940  1.8053  0.7006  0.8947
12689TIP3    H259559   6.643   2.149  11.805 -0.8707  0.8420  0.1889
12690TIP3   OH259560   6.367   1.591  12.106  0.2263  0.3954  1.3208
12690TIP3    H159561   6.350   1.595  12.200 -2.5971 -0.8219  0.9606
12690TIP3    H259562   6.310   1.520  12.074  0.3247  1.4307 -1.4408
12691TIP3   OH259563   5.576   0.435  12.159 -0.1204  0.0218  0.1547
12691TIP3    H159564   5.486   0.407  12.140 -0.1165  0.6289 -0.8503
12691TIP3    H259565   5.574   0.530  12.146  0.8071 -0.0371 -0.5107
12692TIP3   OH259566   1.250   2.655   5.614  0.3235  0.6683 -0.4451
12692TIP3    H159567   1.204   2.738   5.626 -0.0057  0.5686 -0.9756
12692TIP3    H259568   1.192   2.603   5.558  0.6396  0.1739 -0.3189
12693TIP3   OH259569   6.048   1.144  15.929 -0.8177 -0.4911 -0.1476
12693TIP3    H159570   6.115   1.081  15.905  0.3199  0.3707  0.6826
12693TIP3    H259571   5.981   1.136  15.860 -0.2824 -1.9544 -0.5192
12694TIP3   OH259572   0.266   1.636   3.652 -0.1644  0.3012 -0.2130
12694TIP3    H159573   0.312   1.559   3.618 -1.0704 -0.1814 -0.3761
12694TIP3    H259574   0.251   1.691   3.575 -0.7763 -0.0326 -0.3388
12695TIP3   OH259575   1.843   5.674  16.775 -0.0204  0.0089  0.2923
12695TIP3    H159576   1.790   5.727  16.716  2.9835  1.4816 -1.3126
12695TIP3    H259577   1.846   5.724  16.856 -0.8760 -0.0061  0.3469
12696TIP3   OH259578   6.110   3.976   6.001  0.0718 -0.3589  0.3326
12696TIP3    H159579   6.028   4.025   5.996 -0.3613 -0.9119  1.6325
12696TIP3    H259580   6.142   3.991   6.090  0.9526 -0.8318  0.1096
12697TIP3   OH259581   4.671   3.241   4.280  0.2290  0.3740  0.3687
12697TIP3    H159582   4.655   3.336   4.279  0.2743  0.3832 -1.3326
12697TIP3    H259583   4.585   3.202   4.273  0.2401  0.2773  0.7263
12698TIP3   OH259584   6.815   2.909   5.162 -0.6125 -0.5173 -0.0311
12698TIP3    H159585   6.758   2.964   5.108  0.4594 -0.4487 -1.1309
12698TIP3    H259586   6.802   2.820   5.128  0.1106 -0.4667 -0.4595
12699TIP3   OH259587   6.478   3.033  13.555 -0.3650  0.4684 -0.2187
12699TIP3    H159588   6.469   3.112  13.502 -0.6201  1.3036  1.0166
12699TIP3    H259589   6.456   2.962  13.496 -1.3350  1.4110 -1.0363
12700TIP3   OH259590   1.017   2.875  15.719  0.3397 -0.0454  0.2678
12700TIP3    H159591   1.068   2.849  15.796 -0.0002 -1.1893  0.1292
12700TIP3    H259592   0.945   2.812  15.716  1.5270 -1.4306 -2.1995
12701TIP3   OH259593   3.239   3.556   6.432 -0.3132 -0.8283 -0.5203
12701TIP3    H159594   3.163   3.609   6.456 -0.3493  0.1211 -2.5170
12701TIP3    H259595   3.206   3.466   6.434 -1.9090 -0.3865 -2.4336
12702TIP3   OH259596   3.078   5.814   4.089 -0.0995 -0.1151 -0.1807
12702TIP3    H159597   3.020   5.775   4.155  0.6978  0.1740  0.7196
12702TIP3    H259598   3.166   5.803   4.126  0.3976 -0.3080 -1.3975
12703TIP3   OH259599   6.485   0.297  15.472  0.3435  0.2354  0.0457
12703TIP3    H159600   6.392   0.320  15.471 -0.1046 -1.4294 -1.4511
12703TIP3    H259601   6.508   0.299  15.565 -1.4174 -0.1311  0.5454
12704TIP3   OH259602   1.717   4.213  12.261  0.2367  0.3750  0.2988
12704TIP3    H159603   1.715   4.229  12.167 -0.7853  2.3951  0.6177
12704TIP3    H259604   1.810   4.209  12.282  0.5326 -1.8568 -0.9884
12705TIP3   OH259605   0.964   4.929  11.250  0.5261 -0.2845 -0.6545
12705TIP3    H159606   0.983   4.854  11.194  0.5587 -1.9197  1.4066
12705TIP3    H259607   1.027   4.995  11.223  2.1835 -1.8802 -0.9519
12706TIP3   OH259608   4.108   4.762  16.953 -0.2194 -0.0927 -0.2910
12706TIP3    H159609   4.013   4.756  16.939  0.0042 -0.8897 -1.7015
12706TIP3    H259610   4.143   4.782  16.866  0.9719 -0.7450  0.0268
12707TIP3   OH259611   5.163   3.883  11.359 -0.3613 -0.0457  0.2473
12707TIP3    H159612   5.240   3.917  11.313 -0.5870  0.2185  0.0634
12707TIP3    H259613   5.112   3.838  11.292  0.0455 -0.9583  0.5323
12708TIP3   OH259614   6.526   3.968   3.101  0.8893 -0.0884 -0.3202
12708TIP3    H159615   6.506   4.003   3.188  1.4621 -0.9282  0.1633
12708TIP3    H259616   6.445   3.928   3.071  0.7900 -0.1102 -0.0196
12709TIP3   OH259617   3.179   2.158  17.106  0.1738 -0.1249 -0.0735
12709TIP3    H159618   3.133   2.126  17.184 -0.1430 -1.2760 -0.7000
12709TIP3    H259619   3.142   2.106  17.034  0.7058  0.6733 -0.9397
12710TIP3   OH259620   1.875   6.140  11.191 -0.3719 -0.3099  0.3855
12710TIP3    H159621   1.936   6.201  11.232  0.4529 -0.6952 -0.2535
12710TIP3    H259622   1.866   6.069  11.255 -1.3715  0.4817  1.1523
12711TIP3   OH259623   4.310   5.112   2.844  0.3649  0.4844  0.0012
12711TIP3    H159624   4.360   5.174   2.791 -1.3588  0.8510 -1.2494
12711TIP3    H259625   4.374   5.043   2.865  1.6299  1.3783 -0.7522
12712TIP3   OH259626   6.219   1.927   3.563 -0.2765 -0.1418  0.2976
12712TIP3    H159627   6.281   1.997   3.543  1.9641 -1.6490  1.5619
12712TIP3    H259628   6.164   1.919   3.485 -0.2304  2.5803 -0.0929
12713TIP3   OH259629   0.865   5.618  15.572 -0.4413 -0.9506 -0.0791
12713TIP3    H159630   0.953   5.622  15.610 -0.9590 -0.9448  1.1619
12713TIP3    H259631   0.853   5.703  15.529  0.3821 -1.1887 -0.8121
12714TIP3   OH259632   0.114   2.241   3.092 -0.1167 -0.0065  0.4550
12714TIP3    H159633   0.104   2.326   3.049 -1.3836 -0.8850 -1.0786
12714TIP3    H259634   0.179   2.194   3.040  2.5794  0.8571  2.7758
12715TIP3   OH259635   4.821   1.562  15.151 -0.0392 -0.2189 -0.5994
12715TIP3    H159636   4.900   1.549  15.098  0.7869  1.1643  0.2149
12715TIP3    H259637   4.751   1.522  15.100  1.3051 -2.3250 -0.9360
12716TIP3   OH259638   5.436   5.382  16.415  0.3180  0.3834  0.0607
12716TIP3    H159639   5.451   5.288  16.413  1.2791  0.5213 -0.1549
12716TIP3    H259640   5.515   5.417  16.457  0.3988  1.1535 -0.7025
12717TIP3   OH259641   0.132   4.069   2.371 -0.3292 -0.3449 -0.0140
12717TIP3    H159642   0.140   4.051   2.464 -0.8286 -0.8787 -0.0693
12717TIP3    H259643   0.176   4.154   2.359 -0.6844 -0.0386  0.7846
12718TIP3   OH259644   3.578   3.518  15.446 -0.2488  0.7935 -0.0316
12718TIP3    H159645   3.535   3.589  15.494  1.5982  1.9702 -0.0208
12718TIP3    H259646   3.650   3.491  15.503 -0.1361 -0.2217 -0.6219
12719TIP3   OH259647   5.635   4.301  12.919  0.1424 -0.4793  0.1253
12719TIP3    H159648   5.562   4.241  12.904 -0.6735  0.9305 -2.0340
12719TIP3    H259649   5.594   4.384  12.941  1.1338  0.0526  0.0366
12720TIP3   OH259650   2.056   3.543   3.907  0.0698  0.2267 -0.0049
12720TIP3    H159651   2.016   3.579   3.987 -1.3722 -2.3266  0.5382
12720TIP3    H259652   1.996   3.569   3.837  0.0005  0.3791  0.1106
12721TIP3   OH259653   1.577   1.133  16.256  0.4081  0.0005 -0.3102
12721TIP3    H159654   1.635   1.192  16.207  0.1804 -0.5534 -1.2802
12721TIP3    H259655   1.570   1.173  16.343  1.0614  0.8562 -0.6324
12722TIP3   OH259656   5.715   6.273   0.292  0.0033 -0.0303 -0.7256
12722TIP3    H159657   5.720   6.346   0.353 -0.9007 -0.3375 -0.2580
12722TIP3    H259658   5.753   6.199   0.340  0.1376 -0.0631 -0.8806
12723TIP3   OH259659   1.023   1.054  16.036  0.3444 -0.1491  0.2650
12723TIP3    H159660   1.046   1.144  16.016 -1.3914  0.1830 -0.4013
12723TIP3    H259661   1.100   1.003  16.011  1.7236  1.2121  1.5446
12724TIP3   OH259662   2.860   0.133   1.813 -0.2288 -0.0335  0.2714
12724TIP3    H159663   2.891   0.050   1.850  1.5590  0.1152 -0.7534
12724TIP3    H259664   2.765   0.126   1.815 -0.1498 -1.2963  1.9815
12725TIP3   OH259665   1.617   5.503  11.509  0.6616 -0.2802  0.3298
12725TIP3    H159666   1.643   5.413  11.490 -1.0261 -0.4048 -1.7763
12725TIP3    H259667   1.636   5.514  11.603 -0.7022 -3.4467  1.1267
12726TIP3   OH259668   3.314   0.285  10.842 -0.3832 -0.6654 -0.1768
12726TIP3    H159669   3.406   0.270  10.864 -0.3067 -1.1793 -0.8199
12726TIP3    H259670   3.305   0.254  10.751 -1.3653 -1.3469  0.1325
12727TIP3   OH259671   1.182   4.075   1.024  0.0098 -0.4529 -0.2994
12727TIP3    H159672   1.204   4.159   1.065 -0.3191 -0.5089 -0.0012
12727TIP3    H259673   1.257   4.055   0.968 -1.2137  1.5556 -2.8414
12728TIP3   OH259674   3.958   5.234  13.426 -0.2819  0.4030  0.6732
12728TIP3    H159675   3.907   5.313  13.404 -1.5327 -0.2171  1.2726
12728TIP3    H259676   3.919   5.165  13.373  2.3313  0.5640 -1.6912
12729TIP3   OH259677   0.328   5.353  13.031 -0.6614  0.7006  0.4980
12729TIP3    H159678   0.406   5.348  12.974 -0.1899  1.2043  1.0821
12729TIP3    H259679   0.338   5.436  13.077  0.4128 -0.9015  3.3789
12730TIP3   OH259680   1.887   5.114   6.075  0.3398 -0.1108 -0.1882
12730TIP3    H159681   1.844   5.042   6.121 -1.4980  1.6873  1.1309
12730TIP3    H259682   1.814   5.169   6.044  1.6393  1.7974 -0.0448
12731TIP3   OH259683   5.669   4.301   0.838  0.2177  0.0787 -0.2450
12731TIP3    H159684   5.750   4.250   0.848 -0.3328 -0.6165  0.9011
12731TIP3    H259685   5.699   4.391   0.828  1.1996 -0.3953 -1.9537
12732TIP3   OH259686   4.636   0.093  16.924  0.2069 -0.8288  0.7283
12732TIP3    H159687   4.678   0.157  16.866  2.6969 -2.2166  0.8565
12732TIP3    H259688   4.698   0.020  16.927 -1.4449 -2.2440  2.4598
12733TIP3   OH259689   3.335   0.518   5.893  0.0064  0.2003 -0.0874
12733TIP3    H159690   3.347   0.447   5.830  1.1887  1.4584 -1.3626
12733TIP3    H259691   3.374   0.486   5.974  0.3487 -0.6646 -0.5820
12734TIP3   OH259692   6.197   4.270  12.573 -0.3645 -0.6592 -0.3089
12734TIP3    H159693   6.210   4.176  12.556 -2.3539 -1.2131  0.8982
12734TIP3    H259694   6.213   4.280  12.667 -0.1738  0.2141 -0.4247
12735TIP3   OH259695   1.947   4.237  12.780 -0.0764 -0.0543 -0.2469
12735TIP3    H159696   1.971   4.210  12.691  0.2717 -0.3578 -0.0612
12735TIP3    H259697   1.873   4.296  12.767  0.1183  0.0887 -0.7555
12736TIP3   OH259698   2.521   0.889   3.418 -0.0923  0.2871 -0.0053
12736TIP3    H159699   2.471   0.842   3.352 -0.5311 -1.3117  1.3961
12736TIP3    H259700   2.581   0.945   3.368  0.5404 -1.8370 -1.7518
12737TIP3   OH259701   2.814   1.924  15.749 -0.0988  0.3745  0.0170
12737TIP3    H159702   2.774   2.010  15.767  1.2061  1.1144 -0.4732
12737TIP3    H259703   2.879   1.942  15.681  0.2248 -1.0142 -0.0678
12738TIP3   OH259704   1.605   5.799   0.253 -0.5537 -0.3762  0.3882
12738TIP3    H159705   1.672   5.844   0.304 -0.9472 -1.2603  1.7205
12738TIP3    H259706   1.648   5.781   0.169  0.8069 -0.7075  1.1171
12739TIP3   OH259707   3.032   1.657  11.134 -0.6127  0.3988  0.1537
12739TIP3    H159708   3.101   1.707  11.090 -0.4858 -0.0272 -0.1412
12739TIP3    H259709   2.992   1.606  11.065 -0.9539  0.3345  0.3975
12740TIP3   OH259710   4.115   4.348  12.576 -0.9417  0.5110 -0.1275
12740TIP3    H159711   4.124   4.334  12.670 -0.8989  1.5938  0.0389
12740TIP3    H259712   4.067   4.271  12.545  1.8871 -1.5585  0.2042
12741TIP3   OH259713   0.830   5.705   5.331  0.2500  0.0758  0.6163
12741TIP3    H159714   0.878   5.646   5.389 -0.5171  1.2157  2.5283
12741TIP3    H259715   0.813   5.782   5.385 -0.2472  1.3484 -1.2666
12742TIP3   OH259716   5.322   6.031  15.329  0.4414 -0.2484  0.0057
12742TIP3    H159717   5.307   6.119  15.293 -0.7858 -0.1521  0.7144
12742TIP3    H259718   5.361   5.982  15.256 -1.9005 -0.0433 -1.4890
12743TIP3   OH259719   6.135   6.152   5.579 -0.1056  0.3457 -0.4428
12743TIP3    H159720   6.181   6.231   5.605  1.7326 -0.4553 -1.1057
12743TIP3    H259721   6.129   6.100   5.659 -1.0309  0.9871 -0.0780
12744TIP3   OH259722   1.502   5.786  11.508  0.5209 -0.1465 -0.0783
12744TIP3    H159723   1.564   5.727  11.466 -0.0155  0.2025 -1.4291
12744TIP3    H259724   1.423   5.734  11.519  0.1818  0.1819 -0.8881
12745TIP3   OH259725   2.582   2.659  15.542  0.1930  0.2740 -0.1142
12745TIP3    H159726   2.513   2.600  15.573 -1.4182  2.0744 -0.1297
12745TIP3    H259727   2.555   2.683  15.453 -0.3647  2.6696  0.6373
12746TIP3   OH259728   6.232   6.709   5.649  0.5208  0.1248  0.1223
12746TIP3    H159729   6.321   6.713   5.615  1.0122 -1.7253  1.0899
12746TIP3    H259730   6.232   6.770   5.724  0.9196  0.2612  0.0097
12747TIP3   OH259731   0.344   1.465   2.989 -0.2792  0.1335 -0.5701
12747TIP3    H159732   0.342   1.503   3.078 -2.6791 -1.9533  0.3725
12747TIP3    H259733   0.287   1.522   2.938 -0.1214  0.4654 -0.3817
12748TIP3   OH259734   6.275   0.801   0.496 -0.3226  0.3537  0.1588
12748TIP3    H159735   6.315   0.760   0.419 -0.8795 -0.2971  0.2135
12748TIP3    H259736   6.183   0.813   0.472 -0.5372 -0.0079  0.7836
12749TIP3   OH259737   4.163   2.804  13.048 -0.0021  0.3339 -0.0721
12749TIP3    H159738   4.173   2.796  12.953 -0.0877  0.0202 -0.0572
12749TIP3    H259739   4.181   2.896  13.066 -0.3060  0.4663 -0.4308
12750TIP3   OH259740   0.216   3.561  14.308 -0.5231  0.3893 -0.0597
12750TIP3    H159741   0.278   3.617  14.261 -1.1088  0.9290 -0.1983
12750TIP3    H259742   0.205   3.604  14.393 -1.0955  0.5697 -0.2239
12751TIP3   OH259743   3.203   4.336   1.264 -0.4643  0.5855 -0.2891
12751TIP3    H159744   3.278   4.279   1.284 -0.0168  1.0728 -0.5641
12751TIP3    H259745   3.240   4.424   1.261 -0.6450  0.6476 -2.4257
12752TIP3   OH259746   6.535   5.208   5.459 -0.4216  0.0849 -0.4321
12752TIP3    H159747   6.611   5.266   5.464 -0.1044 -0.4217  0.9625
12752TIP3    H259748   6.546   5.146   5.531 -1.4074 -0.9259 -1.1034
12753TIP3   OH259749   2.802   5.896  16.751 -0.3825 -0.0405 -0.3975
12753TIP3    H159750   2.727   5.931  16.703 -2.1250 -2.4346  0.4280
12753TIP3    H259751   2.871   5.887  16.685 -0.3304  3.2624 -0.9526
12754TIP3   OH259752   1.832   4.618   2.465  0.0850 -0.6480 -0.0765
12754TIP3    H159753   1.917   4.583   2.491  0.6758  0.1008 -0.9400
12754TIP3    H259754   1.834   4.617   2.369 -0.1089  1.1853 -0.1255
12755TIP3   OH259755   0.646   5.369  14.681 -0.6491  0.2730 -0.2092
12755TIP3    H159756   0.611   5.414  14.605 -1.2094  1.4197  0.6958
12755TIP3    H259757   0.578   5.377  14.748  0.7023  1.2905  1.1266
12756TIP3   OH259758   4.028   5.878  12.907  0.5845  0.3886  0.5188
12756TIP3    H159759   3.985   5.964  12.908  0.9704  0.6271 -1.0182
12756TIP3    H259760   4.121   5.898  12.910  0.8983  0.3100 -3.4558
12757TIP3   OH259761   6.471   3.328  12.680  0.4478  0.2136  0.0310
12757TIP3    H159762   6.556   3.337  12.638  0.0629  1.3485 -0.5646
12757TIP3    H259763   6.489   3.339  12.774  0.9835  0.2145 -0.0694
12758TIP3   OH259764   3.946   5.342  11.293  0.0178 -0.2369  0.1222
12758TIP3    H159765   3.978   5.348  11.203  1.0255 -0.8910  0.4192
12758TIP3    H259766   3.988   5.264  11.329  1.0485  0.9567  1.6924
12759TIP3   OH259767   6.575   5.092   6.147  0.0976 -0.2892 -0.1117
12759TIP3    H159768   6.607   5.050   6.226 -0.7983 -0.7416  0.0259
12759TIP3    H259769   6.651   5.096   6.089  0.6656 -0.2937  0.6290
12760TIP3   OH259770   2.851   0.965   2.898 -0.1811 -0.0963  0.2877
12760TIP3    H159771   2.852   0.944   2.991 -1.1854 -0.1934  0.2856
12760TIP3    H259772   2.840   0.880   2.855  0.7947 -0.1104  0.0522
12761TIP3   OH259773   3.445   2.026  13.088 -0.3329 -0.3393 -0.5510
12761TIP3    H159774   3.422   1.950  13.141  1.6616 -0.7906 -0.2638
12761TIP3    H259775   3.448   1.993  12.998 -0.9565 -0.2280 -0.6182
12762TIP3   OH259776   2.718   3.268  13.039  0.2026 -0.4624  0.0920
12762TIP3    H159777   2.701   3.188  13.088 -0.6624  0.4319  1.3307
12762TIP3    H259778   2.634   3.291  13.000  0.2686  0.1889  0.3120
12763TIP3   OH259779   2.264   2.821  14.263 -0.7007 -0.2274 -0.4532
12763TIP3    H159780   2.175   2.854  14.249 -0.9151 -0.7450 -0.3279
12763TIP3    H259781   2.320   2.886  14.221 -1.0468  0.8700  0.7075
12764TIP3   OH259782   5.307   4.915  11.851  0.3288 -0.4238 -0.1155
12764TIP3    H159783   5.308   5.010  11.841  0.1183 -0.4971 -0.8836
12764TIP3    H259784   5.394   4.894  11.884  0.5189  0.0009 -0.3318
12765TIP3   OH259785   1.060   4.458  13.414  0.1343  0.2732 -0.3474
12765TIP3    H159786   0.992   4.521  13.390 -2.6459 -2.6906 -0.8813
12765TIP3    H259787   1.048   4.385  13.355  2.4929 -1.3089  0.9306
12766TIP3   OH259788   2.205   5.816  15.901 -0.7610  0.2022  0.4637
12766TIP3    H159789   2.288   5.773  15.884  0.2295  1.1411  2.4651
12766TIP3    H259790   2.138   5.753  15.875  0.5825 -0.9444 -0.3083
12767TIP3   OH259791   3.099   4.204   3.791  0.4533 -0.0489  0.7161
12767TIP3    H159792   3.091   4.296   3.766  0.7753 -1.2176 -4.9499
12767TIP3    H259793   3.009   4.178   3.814 -0.1422  1.1458 -0.1529
12768TIP3   OH259794   1.365   6.091   5.927  0.2330 -0.1188  0.4142
12768TIP3    H159795   1.338   6.076   6.018 -0.5503  0.0070  0.2149
12768TIP3    H259796   1.285   6.123   5.884  1.1418  2.0657  0.2169
12769TIP3   OH259797   6.527   5.854   1.068  0.0604  0.0693  0.5077
12769TIP3    H159798   6.515   5.933   1.121  1.5462 -0.1628  1.2465
12769TIP3    H259799   6.473   5.869   0.991 -1.1822  0.9699  1.5103
12770TIP3   OH259800   3.066   5.679   4.573 -0.1632 -0.1712 -0.0665
12770TIP3    H159801   2.991   5.639   4.617 -0.6905 -0.2241 -0.9831
12770TIP3    H259802   3.067   5.639   4.486 -0.7226  1.8225 -1.0380
12771TIP3   OH259803   4.614   2.877  17.094 -0.3384 -0.0806 -0.0565
12771TIP3    H159804   4.690   2.898  17.148  0.9729 -0.3968 -1.6935
12771TIP3    H259805   4.545   2.855  17.156  0.9458  0.0638  1.4719
12772TIP3   OH259806   3.565   1.919  12.447 -0.1547  0.3555  0.3157
12772TIP3    H159807   3.609   2.002  12.430  0.9755  0.1044  1.8111
12772TIP3    H259808   3.605   1.857  12.385 -3.0289  1.3869 -2.9246
12773TIP3   OH259809   4.685   0.169  16.084 -0.4609  0.2883 -0.0720
12773TIP3    H159810   4.592   0.180  16.101 -0.5093 -0.9311  0.5191
12773TIP3    H259811   4.720   0.258  16.086 -1.4694  0.6894  0.5662
12774TIP3   OH259812   6.418   4.169   1.148  0.0727 -0.0396  0.1769
12774TIP3    H159813   6.500   4.146   1.105  0.2239  1.3841 -0.3539
12774TIP3    H259814   6.425   4.128   1.235  0.7483 -1.0447 -0.3286
12775TIP3   OH259815   4.555   5.608   1.318  0.1754 -0.0598  0.2629
12775TIP3    H159816   4.576   5.587   1.227  3.9157  0.3800  0.8520
12775TIP3    H259817   4.522   5.698   1.314  1.1557  0.2866 -0.6268
12776TIP3   OH259818   6.381   0.588   3.644 -0.1916 -0.4497 -0.2809
12776TIP3    H159819   6.453   0.546   3.595 -0.8380  0.3135 -1.9757
12776TIP3    H259820   6.311   0.523   3.644 -0.4627 -0.1669 -1.0795
12777TIP3   OH259821   0.399   5.741   3.400 -0.1822  0.0034 -0.0188
12777TIP3    H159822   0.342   5.685   3.349  0.5508 -0.5383 -0.2619
12777TIP3    H259823   0.384   5.829   3.365  1.6472 -0.5712 -2.5203
12778TIP3   OH259824   4.060   3.793  16.827 -0.0817  0.4534  0.2083
12778TIP3    H159825   4.095   3.751  16.748  0.2770 -0.9183  1.0751
12778TIP3    H259826   3.991   3.734  16.857  0.4935  0.4044  1.5095
12779TIP3   OH259827   3.396   4.581   5.269  0.7096 -0.2059 -0.0345
12779TIP3    H159828   3.315   4.563   5.317  1.2436 -0.1092  0.9135
12779TIP3    H259829   3.461   4.523   5.307  1.0985 -0.2973 -0.8049
12780TIP3   OH259830   5.765   0.152  15.345 -0.1318 -0.2407 -0.3230
12780TIP3    H159831   5.806   0.235  15.323 -3.6520  1.6476 -0.4667
12780TIP3    H259832   5.703   0.136  15.274 -0.9185 -1.9919  0.6868
12781TIP3   OH259833   0.589   0.694   4.863  0.6264  0.1035 -0.3836
12781TIP3    H159834   0.650   0.758   4.827  1.3988 -0.3556  0.0725
12781TIP3    H259835   0.506   0.741   4.870  0.9710  0.7925 -0.8576
12782TIP3   OH259836   5.147   2.593   0.115  0.8626 -0.3279 -0.8747
12782TIP3    H159837   5.214   2.605   0.047 -1.9255 -0.0360 -3.7772
12782TIP3    H259838   5.068   2.631   0.077 -0.8787 -0.1245  2.6343
12783TIP3   OH259839   5.200   3.209   4.162  0.2597  0.4305 -0.0001
12783TIP3    H159840   5.146   3.287   4.171 -0.1018  0.1249  0.5223
12783TIP3    H259841   5.210   3.199   4.067 -0.5005  0.5668 -0.1083
12784TIP3   OH259842   4.141   3.267   5.718 -0.0709 -0.2888  0.8771
12784TIP3    H159843   4.069   3.311   5.673 -1.4785 -0.3748  2.8852
12784TIP3    H259844   4.100   3.190   5.759  1.2480 -0.5766  1.7327
12785TIP3   OH259845   5.351   2.322  16.913  0.3166 -0.4626  0.1932
12785TIP3    H159846   5.338   2.278  16.997  2.1251  0.1704  0.8499
12785TIP3    H259847   5.298   2.401  16.919 -0.5582 -1.0255  0.2036
12786TIP3   OH259848   5.700   2.318   3.553  0.2371  0.3279  0.2581
12786TIP3    H159849   5.650   2.262   3.494  1.2537 -1.1594  0.7531
12786TIP3    H259850   5.777   2.344   3.503  1.1874 -1.0760  0.9180
12787TIP3   OH259851   3.904   5.267   3.123 -0.1677 -0.2914  0.6866
12787TIP3    H159852   3.881   5.335   3.060  1.3631 -0.7967 -0.4749
12787TIP3    H259853   3.838   5.199   3.110  0.2081 -0.4605 -0.5397
12788TIP3   OH259854   4.143   5.746  13.232  0.0404  0.1175 -0.0784
12788TIP3    H159855   4.214   5.755  13.168 -1.9747  1.0227 -2.3415
12788TIP3    H259856   4.110   5.835  13.245 -1.6607 -0.4387 -0.3263
12789TIP3   OH259857   6.146   6.406   1.735  0.3938 -0.4904 -0.1641
12789TIP3    H159858   6.078   6.406   1.668  0.3920 -0.7092 -0.1617
12789TIP3    H259859   6.156   6.498   1.759  0.1276 -0.4522 -0.1950
12790TIP3   OH259860   5.900   5.931  12.917 -0.0206  0.2462  0.1402
12790TIP3    H159861   5.821   5.884  12.891 -1.3854  3.1886 -1.5234
12790TIP3    H259862   5.966   5.905  12.852  0.3735 -1.9010  1.2966
12791TIP3   OH259863   6.784   3.683  15.036 -0.2435  0.2448 -0.3124
12791TIP3    H159864   6.852   3.669  14.971 -0.4148  0.2394 -0.4914
12791TIP3    H259865   6.723   3.610  15.023 -2.4218  2.2890 -2.8527
12792TIP3   OH259866   0.508   2.435  14.774 -0.0473 -0.2853 -0.4192
12792TIP3    H159867   0.442   2.398  14.716 -0.0698  1.3354 -1.5103
12792TIP3    H259868   0.461   2.503  14.823  0.2594 -0.8023  0.6045
12793TIP3   OH259869   3.797   5.139  14.826  1.5199 -0.0338  0.1113
12793TIP3    H159870   3.783   5.161  14.734 -0.7638 -3.8187 -0.6673
12793TIP3    H259871   3.872   5.079  14.826  0.1295 -1.8705  0.2654
12794TIP3   OH259872   2.218   3.001  16.882  0.4757  0.3164  0.5293
12794TIP3    H159873   2.204   2.944  16.807 -0.5286 -1.0994  1.7382
12794TIP3    H259874   2.303   2.974  16.918  0.6073  0.4874  0.3501
12795TIP3   OH259875   0.832   5.871   1.074 -0.3138  0.5182  0.1575
12795TIP3    H159876   0.879   5.937   1.023  1.4142 -0.1757  0.7981
12795TIP3    H259877   0.891   5.796   1.078 -2.4294 -1.3227 -0.9988
12796TIP3   OH259878   0.715   2.803   3.245 -0.0707 -0.0885  0.0538
12796TIP3    H159879   0.639   2.783   3.299 -1.2635  0.1372 -1.4922
12796TIP3    H259880   0.679   2.837   3.163  1.6757 -0.5302 -0.9537
12797TIP3   OH259881   2.221   3.887  16.206  0.0101  0.2594  0.1083
12797TIP3    H159882   2.244   3.808  16.255 -1.6731 -0.0664  0.4195
12797TIP3    H259883   2.157   3.932  16.261 -1.0211  0.5050 -1.2477
12798TIP3   OH259884   3.552   1.553  14.794  0.6742  0.2142  0.0905
12798TIP3    H159885   3.548   1.633  14.742 -0.0712 -0.1880 -0.4920
12798TIP3    H259886   3.620   1.500  14.753  0.0625 -0.1184 -0.5239
12799TIP3   OH259887   2.267   4.912   3.936 -0.0158 -0.3651 -0.3552
12799TIP3    H159888   2.351   4.883   3.900 -0.1020 -0.0082 -0.8453
12799TIP3    H259889   2.216   4.832   3.945  0.0139 -0.4569 -1.0098
12800TIP3   OH259890   6.341   2.835   0.514 -0.3679 -0.1492 -0.2409
12800TIP3    H159891   6.318   2.887   0.437  0.4702 -0.8305 -0.9843
12800TIP3    H259892   6.353   2.899   0.583  2.6013  0.9512 -1.5966
12801TIP3   OH259893   5.659   1.110  11.930 -0.1229 -0.4964  0.0915
12801TIP3    H159894   5.612   1.027  11.922 -0.6258 -0.0397 -2.9145
12801TIP3    H259895   5.646   1.154  11.845  1.8602  1.7388  0.8109
12802TIP3   OH259896   6.791   6.514  14.078 -0.3318  0.5259 -0.2530
12802TIP3    H159897   6.800   6.535  14.171  1.5698  0.7899 -0.4545
12802TIP3    H259898   6.845   6.437  14.065  0.3969  1.1968 -1.3576
12803TIP3   OH259899   6.432   2.085   3.181 -0.4857  0.0253  0.1293
12803TIP3    H159900   6.491   2.014   3.206 -0.9339 -1.3949 -2.4864
12803TIP3    H259901   6.490   2.159   3.162  0.2087 -0.4511  0.3721
12804TIP3   OH259902   0.789   5.462   3.293  0.2645  0.4036 -0.4004
12804TIP3    H159903   0.714   5.474   3.352  0.7197 -1.5706  0.6815
12804TIP3    H259904   0.751   5.453   3.206 -0.8905 -1.5338  0.2545
12805TIP3   OH259905   1.687   2.050   5.113 -0.1018  0.3477  0.2885
12805TIP3    H159906   1.659   2.127   5.064 -0.2618  0.2045  0.1557
12805TIP3    H259907   1.734   1.996   5.050  0.5520  0.6295  0.5347
12806TIP3   OH259908   3.639   3.608  11.465 -0.2746  0.0665  0.0193
12806TIP3    H159909   3.622   3.566  11.381  2.5876 -2.0821  0.3726
12806TIP3    H259910   3.702   3.551  11.509  2.0386  3.4993  1.6175
12807TIP3   OH259911   0.177   1.027  12.660 -0.4272  0.3863 -0.0451
12807TIP3    H159912   0.226   0.959  12.707 -0.1608 -0.8694 -2.0024
12807TIP3    H259913   0.242   1.094  12.640  0.7304 -1.4033 -2.8778
12808TIP3   OH259914   2.145   0.421   2.451  0.3067 -0.2419  0.4715
12808TIP3    H159915   2.137   0.466   2.536 -1.2970  1.4653 -0.4935
12808TIP3    H259916   2.228   0.453   2.416  1.9299 -2.3795  2.0868
12809TIP3   OH259917   6.799   1.531  15.822  0.1221  0.4485 -0.3753
12809TIP3    H159918   6.713   1.546  15.781  0.1051  0.5491 -0.3046
12809TIP3    H259919   6.860   1.581  15.768  0.1658  0.2210 -0.5403
12810TIP3   OH259920   3.371   4.270   5.005 -0.0117 -0.0922  0.4737
12810TIP3    H159921   3.418   4.241   4.927 -0.4880 -1.8648  0.8034
12810TIP3    H259922   3.440   4.295   5.066  0.5122 -1.7350  0.6032
12811TIP3   OH259923   5.386   1.273  11.653  0.5040  0.3449 -0.0385
12811TIP3    H159924   5.356   1.258  11.564  1.0490  3.5582 -0.8595
12811TIP3    H259925   5.470   1.227  11.657  1.1828  1.3421 -1.7206
12812TIP3   OH259926   3.053   6.197   0.040  0.4607 -0.7961 -0.1963
12812TIP3    H159927   3.053   6.264  -0.028  0.2827 -1.6077 -1.0128
12812TIP3    H259928   3.033   6.115  -0.006  0.4278 -1.3779  0.8135
12813TIP3   OH259929   3.915   4.289  14.842  0.1240 -0.1771 -0.5028
12813TIP3    H159930   3.948   4.323  14.926 -0.6265 -1.3176  0.2813
12813TIP3    H259931   3.827   4.327  14.835 -0.2322 -0.9370 -0.2310
12814TIP3   OH259932   4.418   3.475  14.323  0.1962  0.0202  0.7294
12814TIP3    H159933   4.460   3.481  14.238 -1.7765 -4.0793 -0.7925
12814TIP3    H259934   4.355   3.547  14.324 -1.1342 -0.9236 -2.2970
12815TIP3   OH259935   1.246   4.082   3.289  0.3565 -0.6132  0.0357
12815TIP3    H159936   1.208   4.149   3.345  1.3350  0.6265 -0.7329
12815TIP3    H259937   1.324   4.123   3.252  0.3504 -1.7657 -1.3594
12816TIP3   OH259938   1.657   4.400   2.395 -0.1522  0.0590 -0.5113
12816TIP3    H159939   1.742   4.409   2.352 -0.3277 -0.9525 -1.1167
12816TIP3    H259940   1.626   4.314   2.368 -0.2310 -0.6845  1.7496
12817TIP3   OH259941   4.046   3.863  14.595  0.4989 -0.1971  0.4339
12817TIP3    H159942   3.989   3.837  14.667 -0.1633 -2.9149 -0.9227
12817TIP3    H259943   3.988   3.907  14.533  0.9100  1.3904  1.1109
12818TIP3   OH259944   1.531   4.122   4.790 -0.3964 -0.5503  0.0624
12818TIP3    H159945   1.580   4.102   4.870  1.5967 -2.2494 -1.4656
12818TIP3    H259946   1.599   4.143   4.726 -1.8823 -0.2488 -1.4710
12819TIP3   OH259947   2.280   4.744  16.505  0.2605 -0.3440  0.2019
12819TIP3    H159948   2.269   4.727  16.598  0.0237 -0.0962  0.2204
12819TIP3    H259949   2.362   4.700  16.482  0.2075 -0.5899  0.4777
12820TIP3   OH259950   3.579   3.824   2.508  0.1345 -0.0197  0.3578
12820TIP3    H159951   3.494   3.858   2.535  0.5078  0.4457  0.9538
12820TIP3    H259952   3.641   3.895   2.527  0.9127 -0.9842  1.5586
12821TIP3   OH259953   5.402   1.804  11.718  0.0435 -0.2996 -0.4957
12821TIP3    H159954   5.406   1.834  11.808 -0.4814 -0.3723 -0.4442
12821TIP3    H259955   5.339   1.733  11.719  0.2543 -0.4944 -0.8672
12822TIP3   OH259956   5.264   6.563  16.130  0.3548 -0.0251 -0.2619
12822TIP3    H159957   5.347   6.587  16.172  1.6835 -2.5746 -1.2111
12822TIP3    H259958   5.272   6.597  16.041  1.6911 -2.5557 -1.2145
12823TIP3   OH259959   2.137   4.876   0.727 -0.1502 -0.1397  0.0505
12823TIP3    H159960   2.214   4.851   0.777  1.0600  1.8283 -0.7128
12823TIP3    H259961   2.106   4.957   0.769  0.8553  1.5268 -2.2126
12824TIP3   OH259962   3.083   0.872   3.896  0.5238  0.4090  0.5434
12824TIP3    H159963   3.137   0.793   3.897  1.3531  0.8506 -1.9375
12824TIP3    H259964   2.995   0.841   3.916  1.0208 -0.9644  0.6870
12825TIP3   OH259965   6.826   1.618  13.030 -0.5539  0.2056 -0.5955
12825TIP3    H159966   6.798   1.529  13.051 -1.1177  0.6336  0.5674
12825TIP3    H259967   6.751   1.673  13.054 -0.9635  0.8607 -3.0589
12826TIP3   OH259968   1.239   6.295   0.027  0.0279 -0.5529 -0.5694
12826TIP3    H159969   1.280   6.381   0.030 -1.1913  0.0228  0.4615
12826TIP3    H259970   1.166   6.305  -0.034  0.6978 -1.2602 -1.5254
12827TIP3   OH259971   0.293   1.388  17.005  0.2637 -0.3513 -0.1100
12827TIP3    H159972   0.212   1.378  16.954 -1.8768 -0.6541  3.0015
12827TIP3    H259973   0.296   1.481  17.026  0.1360 -0.5014  0.6000
12828TIP3   OH259974   5.362   4.190  12.332 -0.7336 -0.2905  0.1296
12828TIP3    H159975   5.455   4.197  12.309 -0.8744  0.1289 -0.3473
12828TIP3    H259976   5.361   4.196  12.428 -0.3497  0.8219  0.0816
12829TIP3   OH259977   4.744   2.344  13.031  0.2804  0.0633  0.0121
12829TIP3    H159978   4.792   2.427  13.032 -1.4468  1.1844 -1.8371
12829TIP3    H259979   4.654   2.368  13.056  0.2652 -1.7272  1.9584
12830TIP3   OH259980   3.672   3.464  12.638  0.0185  0.3957 -0.2077
12830TIP3    H159981   3.694   3.381  12.682  0.4793  0.5464 -0.1417
12830TIP3    H259982   3.688   3.447  12.545  4.8969  1.7363  0.0947
12831TIP3   OH259983   4.371   6.343   2.659 -0.2187  0.7365  0.1983
12831TIP3    H159984   4.353   6.425   2.612  0.1150  0.0900 -1.1049
12831TIP3    H259985   4.363   6.276   2.592 -0.0099 -0.2587  1.1553
12832TIP3   OH259986   2.680   1.106  14.204 -0.2154 -0.0929  0.3090
12832TIP3    H159987   2.767   1.068  14.215 -0.3065 -1.1616 -2.0172
12832TIP3    H259988   2.620   1.033  14.212 -0.6444  0.0880 -0.9605
12833TIP3   OH259989   6.574   1.621   3.841  0.1056  0.2826 -0.8525
12833TIP3    H159990   6.581   1.528   3.819 -0.4954  0.2504 -0.9199
12833TIP3    H259991   6.554   1.621   3.935 -1.1605  0.2915 -1.1002
12834TIP3   OH259992   5.485   0.004   4.097  0.3669 -0.4310  0.0772
12834TIP3    H159993   5.403   0.008   4.145  0.7345  1.0602  0.6328
12834TIP3    H259994   5.461  -0.033   4.012 -1.0520  0.7725 -0.0923
12835TIP3   OH259995   2.040   3.902  16.787 -0.6296  0.0026 -0.1916
12835TIP3    H159996   2.066   3.861  16.869  0.5722 -0.4845 -0.7851
12835TIP3    H259997   2.049   3.996  16.804 -0.2914 -0.0975  0.2164
12836TIP3   OH259998   4.594   6.246   2.097 -0.0113 -0.7350  0.1927
12836TIP3    H159999   4.554   6.312   2.154 -2.0043 -1.4333 -0.3037
12836TIP3    H260000   4.570   6.162   2.137  0.3627 -1.1859 -0.5077
12837TIP3   OH260001   2.202   4.779   2.042 -0.1819  0.0861 -0.2228
12837TIP3    H160002   2.295   4.757   2.035 -0.4763 -0.7463 -2.5476
12837TIP3    H260003   2.187   4.841   1.970 -1.7047 -0.9804 -0.8815
12838TIP3   OH260004   0.704   4.027   4.685 -0.2672 -0.2714 -0.2371
12838TIP3    H160005   0.679   3.938   4.659 -3.1284  0.3164  0.2054
12838TIP3    H260006   0.764   4.014   4.759 -1.5321 -1.8399  0.5640
12839TIP3   OH260007   4.496   2.513   4.936 -0.2677  0.0740 -0.1979
12839TIP3    H160008   4.469   2.561   5.014  0.5195 -1.6483  1.2164
12839TIP3    H260009   4.452   2.428   4.944  1.1178 -0.7333 -0.7363
12840TIP3   OH260010   4.594   4.436   0.108  0.0681 -0.5424  0.2211
12840TIP3    H160011   4.588   4.416   0.201 -2.4333  2.5773  0.9022
12840TIP3    H260012   4.635   4.523   0.105 -3.5133  1.2880 -1.1096
12841TIP3   OH260013   0.951   6.177   5.306 -0.1064  0.1532 -0.2464
12841TIP3    H160014   0.897   6.209   5.233 -3.2837 -2.8395  0.4838
12841TIP3    H260015   0.912   6.218   5.384  1.4156  1.1308  0.0251
12842TIP3   OH260016   5.357   1.643  13.846 -0.3044 -0.1290  0.0198
12842TIP3    H160017   5.337   1.603  13.931 -1.3925  1.7430  0.6988
12842TIP3    H260018   5.420   1.712  13.867  2.1760 -1.8352 -1.2424
12843TIP3   OH260019   0.878   3.130   4.137  0.4325 -0.0874 -0.2666
12843TIP3    H160020   0.952   3.070   4.150 -0.9320 -2.0112 -0.9146
12843TIP3    H260021   0.801   3.073   4.137 -1.1268  1.9005  0.8810
12844TIP3   OH260022   5.637   6.824   4.907 -0.0488  0.0365  0.0756
12844TIP3    H160023   5.645   6.778   4.824 -0.1884  1.0253 -0.4965
12844TIP3    H260024   5.679   6.909   4.892 -0.2217  0.2865  0.9607
12845TIP3   OH260025   5.895   6.595  12.210 -0.1235  0.3318 -0.5477
12845TIP3    H160026   5.859   6.522  12.161 -0.0379  0.3331 -0.6134
12845TIP3    H260027   5.933   6.555  12.288  0.8891  0.1717 -1.1062
12846TIP3   OH260028   0.984   3.918   2.323 -0.3147 -0.5247  0.2971
12846TIP3    H160029   1.064   3.873   2.294  0.2800  0.1195  0.8953
12846TIP3    H260030   0.916   3.850   2.319  0.3159 -1.1589  0.0431
12847TIP3   OH260031   1.440   3.953   4.532  0.0442 -0.1788  0.2107
12847TIP3    H160032   1.356   3.967   4.576 -1.2569 -4.5366 -0.4034
12847TIP3    H260033   1.425   3.983   4.442 -0.4760  0.0797  0.3790
12848TIP3   OH260034   6.706   3.120  10.909 -0.1028 -0.2399 -0.0648
12848TIP3    H160035   6.714   3.156  10.821 -1.3564  0.2396 -0.0041
12848TIP3    H260036   6.660   3.187  10.958  0.1682 -0.6986  0.8458
12849TIP3   OH260037   5.728   6.128   0.705  0.4736 -0.5588  0.5961
12849TIP3    H160038   5.787   6.083   0.765  1.3426 -1.9350 -1.1877
12849TIP3    H260039   5.641   6.094   0.728  0.8206 -1.2748  0.8993
12850TIP3   OH260040   6.045   5.339   4.093  0.3046 -0.6476  0.7298
12850TIP3    H160041   6.133   5.337   4.131  0.6599 -1.6988 -0.1048
12850TIP3    H260042   5.989   5.369   4.165  1.5825  1.9852  0.7354
12851TIP3   OH260043   5.582   6.550  15.640 -0.6152 -0.2973 -0.1003
12851TIP3    H160044   5.534   6.623  15.601 -0.3827 -0.2120 -0.2264
12851TIP3    H260045   5.524   6.517  15.708 -0.7648 -0.0622 -0.1143
12852TIP3   OH260046   4.203   0.310   5.261 -0.4094 -0.5261  0.2572
12852TIP3    H160047   4.113   0.279   5.249 -0.2483 -0.8183 -0.2288
12852TIP3    H260048   4.243   0.301   5.175  0.0852 -0.3898  0.4704
12853TIP3   OH260049   4.278   0.045   2.471  0.6242  0.1204  0.5534
12853TIP3    H160050   4.203   0.035   2.529  0.4257 -0.7280  0.1739
12853TIP3    H260051   4.260  -0.016   2.399  0.8291  1.1950 -0.4259
12854TIP3   OH260052   3.140   4.710  11.249  0.0872 -0.7878 -0.1388
12854TIP3    H160053   3.154   4.705  11.343  1.4077 -0.6777 -0.3142
12854TIP3    H260054   3.169   4.798  11.225 -4.2361  0.9148 -0.0620
12855TIP3   OH260055   4.008   0.568   5.378  0.0932  0.1711  0.2401
12855TIP3    H160056   4.098   0.594   5.360 -0.5091  1.9904 -0.3934
12855TIP3    H260057   3.972   0.542   5.293  0.5175 -2.4448  0.7743
12856TIP3   OH260058   1.751   3.905   4.864 -0.3305 -0.1780  0.6682
12856TIP3    H160059   1.718   3.816   4.878  0.4554 -0.4468  0.8313
12856TIP3    H260060   1.802   3.924   4.943  2.1657 -0.7928 -0.6982
12857TIP3   OH260061   4.861   1.216  15.515 -0.1195  0.2869 -0.3075
12857TIP3    H160062   4.947   1.174  15.513 -1.1191 -2.2377  2.1657
12857TIP3    H260063   4.812   1.172  15.446 -0.1444 -0.1915  0.0050
12858TIP3   OH260064   2.121   3.113  13.096  0.3469 -0.3890 -0.0551
12858TIP3    H160065   2.213   3.136  13.084  0.3837 -0.1768  0.5668
12858TIP3    H260066   2.073   3.175  13.041  0.4838  0.7291  1.0435
12859TIP3   OH260067   4.381   2.228  14.211 -0.4391  0.5673 -0.1645
12859TIP3    H160068   4.397   2.198  14.301  2.7816  0.6965 -0.6004
12859TIP3    H260069   4.289   2.256  14.212 -1.2434 -1.7099  2.3978
12860TIP3   OH260070   6.106   1.508  13.051 -0.0955  0.1605 -0.1572
12860TIP3    H160071   6.107   1.558  13.132 -0.8124  1.1400 -0.7309
12860TIP3    H260072   6.039   1.441  13.065 -0.2693  0.3727  0.0317
12861TIP3   OH260073   6.253   0.981  16.853  0.0397  0.1734 -0.3885
12861TIP3    H160074   6.325   0.985  16.917  0.3452  0.2018 -0.7316
12861TIP3    H260075   6.210   1.066  16.859  0.7242  0.5669 -0.9780
12862TIP3   OH260076   2.945   5.496   5.970  0.1278  0.4758  0.3559
12862TIP3    H160077   2.987   5.410   5.970 -1.5976 -0.4608  2.4543
12862TIP3    H260078   3.015   5.557   5.992  1.2623 -0.4353 -0.5757
12863TIP3   OH260079   5.012   4.805   5.788 -0.6538 -0.3298  0.1692
12863TIP3    H160080   4.944   4.872   5.789 -1.5792 -1.2495  1.0340
12863TIP3    H260081   4.985   4.742   5.856 -0.1257 -1.8753 -0.9945
12864TIP3   OH260082   5.738   6.316   3.686  0.2332 -0.2855  0.2484
12864TIP3    H160083   5.655   6.273   3.663 -0.4551  1.6027 -1.1008
12864TIP3    H260084   5.785   6.323   3.603  1.8940 -1.5356  1.0408
12865TIP3   OH260085   4.449   2.160   0.061 -0.1872 -0.3191 -0.0222
12865TIP3    H160086   4.503   2.100   0.112 -1.6033 -1.9180 -0.3256
12865TIP3    H260087   4.450   2.125  -0.027 -0.5242  0.4777 -0.3561
12866TIP3   OH260088   0.692   3.106  15.554 -0.0503  0.0790 -0.1260
12866TIP3    H160089   0.677   3.195  15.523 -1.9804 -0.2089 -0.1663
12866TIP3    H260090   0.747   3.066  15.486 -0.2905  0.8531 -0.7976
12867TIP3   OH260091   3.539   4.460   1.118 -0.0226  0.4490 -0.4548
12867TIP3    H160092   3.601   4.522   1.155 -0.9449  0.5469  0.9892
12867TIP3    H260093   3.456   4.477   1.164 -0.8297 -0.4567 -1.4929
12868TIP3   OH260094   6.140   3.966   3.496  0.0811 -0.7500 -0.1527
12868TIP3    H160095   6.205   3.897   3.506  0.2659 -0.2877  2.7801
12868TIP3    H260096   6.088   3.940   3.420  2.3309 -2.2191 -1.3008
12869TIP3   OH260097   1.508   3.956  17.102 -0.3153 -0.6059 -0.5415
12869TIP3    H160098   1.583   3.922  17.052 -0.9085 -0.8686 -1.2712
12869TIP3    H260099   1.435   3.900  17.077 -1.4033  1.3520 -2.0351
12870TIP3   OH260100   6.812   0.806  16.288  0.0452 -0.0407 -0.0094
12870TIP3    H160101   6.803   0.713  16.311  0.6759  0.3636  2.0553
12870TIP3    H260102   6.801   0.852  16.371 -2.5277  1.9438 -1.3400
12871TIP3   OH260103   5.749   0.286  16.353  0.7380  0.0789  0.1570
12871TIP3    H160104   5.794   0.210  16.391 -0.4840 -1.3968 -1.2064
12871TIP3    H260105   5.687   0.313  16.421  0.2267 -1.0358  0.1572
12872TIP3   OH260106   0.137   1.035  14.707 -0.8835 -0.1594 -0.4842
12872TIP3    H160107   0.107   1.014  14.795 -2.0038  0.7840 -0.6242
12872TIP3    H260108   0.122   0.955  14.657  1.7838 -1.4648  0.6197
12873TIP3   OH260109   6.464   4.419   4.629  0.5323  0.2868  0.1127
12873TIP3    H160110   6.454   4.369   4.548 -0.3272  1.1542 -0.3319
12873TIP3    H260111   6.556   4.448   4.628  0.4922  0.3982 -0.6115
12874TIP3   OH260112   3.418   0.031  11.639  0.8818 -0.1304 -0.4194
12874TIP3    H160113   3.355  -0.021  11.589  1.4257 -1.9241  0.6583
12874TIP3    H260114   3.381   0.119  11.641 -0.1181 -0.4529 -2.2733
12875TIP3   OH260115   2.642   5.940   0.207 -0.0950  0.2659  0.6234
12875TIP3    H160116   2.718   5.893   0.173 -0.8792  0.0264 -0.8706
12875TIP3    H260117   2.642   6.023   0.159 -1.1691 -0.0309  0.0819
12876TIP3   OH260118   4.489   6.518   3.850 -0.0481  0.2851 -0.0090
12876TIP3    H160119   4.493   6.549   3.941 -0.0183  1.1026 -0.2797
12876TIP3    H260120   4.411   6.462   3.847 -0.1274  0.3651  0.4892
12877TIP3   OH260121   1.743   0.551   4.780 -0.3970  0.7274  0.2800
12877TIP3    H160122   1.838   0.554   4.769 -0.4732 -1.3967 -1.6498
12877TIP3    H260123   1.711   0.631   4.737  0.3647 -0.0271 -1.7637
12878TIP3   OH260124   4.284   1.579   3.147  0.1830 -0.3633  0.0611
12878TIP3    H160125   4.285   1.607   3.239 -0.9676  1.0256 -0.3138
12878TIP3    H260126   4.373   1.549   3.130  0.7634  0.5928  1.2781
12879TIP3   OH260127   2.913   2.421   3.044  0.5922 -0.8540  0.2400
12879TIP3    H160128   2.950   2.447   2.960 -1.1210 -0.8010 -0.5408
12879TIP3    H260129   2.985   2.430   3.106  1.2245  1.6811 -0.7480
12880TIP3   OH260130   5.998   3.316   5.901 -0.1173 -0.5260  0.0271
12880TIP3    H160131   6.085   3.304   5.864 -0.1375 -0.0791 -0.1766
12880TIP3    H260132   5.943   3.253   5.855  0.5143 -2.4667  1.7540
12881TIP3   OH260133   3.578   6.692  15.083 -0.2266 -0.3492 -0.0354
12881TIP3    H160134   3.584   6.614  15.028  0.3210  0.2646 -0.8680
12881TIP3    H260135   3.517   6.749  15.036 -0.2977 -0.1071  0.3525
12882TIP3   OH260136   1.824   6.048  12.694  0.3135  0.9434  0.5639
12882TIP3    H160137   1.907   6.000  12.696 -0.0141  0.3825  1.0884
12882TIP3    H260138   1.768   6.001  12.754 -1.2107 -0.1688 -1.5957
12883TIP3   OH260139   5.883   5.102  14.934 -0.0915 -0.1607 -0.2564
12883TIP3    H160140   5.889   5.018  14.978  1.6238 -0.0271 -0.1721
12883TIP3    H260141   5.936   5.092  14.855  2.0207  1.4341  0.8350
12884TIP3   OH260142   0.249   3.100   0.112 -0.5397  0.3426  0.2323
12884TIP3    H160143   0.278   3.114   0.203 -0.7575  0.2922  0.3092
12884TIP3    H260144   0.169   3.049   0.120  2.5330 -5.3894 -0.1245
12885TIP3   OH260145   4.958   3.850  10.958 -0.2721 -0.3714  0.1865
12885TIP3    H160146   4.906   3.770  10.949 -1.2488  0.2261  0.4420
12885TIP3    H260147   4.895   3.921  10.948  0.7968  0.4077 -1.4131
12886TIP3   OH260148   3.299   3.706   3.121  0.4034  0.3678 -0.4617
12886TIP3    H160149   3.271   3.795   3.105  0.2168  0.0527 -1.9679
12886TIP3    H260150   3.394   3.709   3.116  0.3776  0.4066 -0.9668
12887TIP3   OH260151   0.399   6.417  15.051 -0.1795  0.4805 -0.1570
12887TIP3    H160152   0.369   6.475  14.981 -0.4018  0.0078 -0.4597
12887TIP3    H260153   0.493   6.434  15.058 -0.0262  0.0701 -1.0274
12888TIP3   OH260154   6.709   1.712  15.520  0.1056 -0.5892  0.5065
12888TIP3    H160155   6.741   1.757  15.598  2.2716 -1.0400 -0.0527
12888TIP3    H260156   6.674   1.782  15.465 -0.7394 -0.1813  1.5354
12889TIP3   OH260157   2.122   4.074  10.723 -0.3466  0.3974 -0.2008
12889TIP3    H160158   2.029   4.095  10.728 -0.0325  1.6052  1.8725
12889TIP3    H260159   2.155   4.128  10.652 -1.3796 -0.8618 -1.6954
12890TIP3   OH260160   1.601   5.292   5.155  0.0425 -0.0752 -0.4178
12890TIP3    H160161   1.595   5.331   5.242 -1.9098 -1.2785  0.0441
12890TIP3    H260162   1.656   5.214   5.168  0.9498  0.5261 -0.5860
12891TIP3   OH260163   0.192   1.663   4.537  0.3832  0.2321 -0.1856
12891TIP3    H160164   0.183   1.742   4.484  0.2356  0.1166 -0.3339
12891TIP3    H260165   0.285   1.642   4.535  0.3706  0.1996 -0.4390
12892TIP3   OH260166   4.173   4.466  14.108 -0.1921 -0.4870  0.6014
12892TIP3    H160167   4.103   4.449  14.046 -0.3508 -1.6289  1.0605
12892TIP3    H260168   4.201   4.555  14.090 -1.2992 -0.2580 -0.0436
12893TIP3   OH260169   0.034   4.881  15.347 -0.2064  0.3736  0.2923
12893TIP3    H160170   0.026   4.937  15.269 -1.1744 -0.4589 -0.2299
12893TIP3    H260171  -0.055   4.874  15.381 -0.3978 -2.0169 -0.5184
12894TIP3   OH260172   1.641   6.105   3.568 -0.0710 -0.1810  0.0054
12894TIP3    H160173   1.688   6.110   3.486 -0.0652 -1.6000 -0.0990
12894TIP3    H260174   1.643   6.013   3.592 -1.1739  0.0086  0.9481
12895TIP3   OH260175   4.849   3.598  16.385  0.3717  0.4793 -0.1103
12895TIP3    H160176   4.928   3.545  16.398 -1.2599 -2.0530  0.3407
12895TIP3    H260177   4.865   3.678  16.435  3.2812  0.8677 -1.4239
12896TIP3   OH260178   2.709   4.496   0.066  0.1368  0.2527  0.3602
12896TIP3    H160179   2.615   4.512   0.070  0.2165  1.0676 -0.6340
12896TIP3    H260180   2.727   4.481  -0.026  1.0081  0.2213  0.5285
12897TIP3   OH260181   3.451   2.754  14.685  0.7178 -0.8589  0.1369
12897TIP3    H160182   3.373   2.803  14.711  1.8293  0.4630  1.1166
12897TIP3    H260183   3.496   2.736  14.768  2.3803  0.0466 -0.5286
12898TIP3   OH260184   5.558   4.489  12.253  0.2961  0.2675  0.2325
12898TIP3    H160185   5.474   4.461  12.290  0.2158 -0.4247 -0.4522
12898TIP3    H260186   5.554   4.463  12.161  1.0781  0.6536  0.0761
12899TIP3   OH260187   5.189   2.711   3.507 -0.0309 -0.0181  0.3340
12899TIP3    H160188   5.200   2.629   3.459  1.7674  0.6032 -0.3858
12899TIP3    H260189   5.253   2.707   3.578  0.3892  0.9294  0.0318
12900TIP3   OH260190   2.782   2.926   2.106 -0.6200 -0.8938  0.2938
12900TIP3    H160191   2.716   2.906   2.040 -0.3698  0.8488 -0.5319
12900TIP3    H260192   2.865   2.898   2.066 -0.4212  0.5063 -0.3481
12901TIP3   OH260193   4.404   2.333   6.439  0.0393 -0.1832  0.2723
12901TIP3    H160194   4.399   2.275   6.516  2.1835  0.7146  1.1718
12901TIP3    H260195   4.494   2.324   6.408 -0.1982  1.0867 -0.8576
12902TIP3   OH260196   2.464   6.595  16.498  0.2204  0.0051  0.5470
12902TIP3    H160197   2.483   6.635  16.413  1.7090 -0.9390  0.4093
12902TIP3    H260198   2.428   6.667  16.550 -1.5551  0.4197 -1.1041
12903TIP3   OH260199   4.594   3.504   1.010  0.2709 -0.0233 -0.3316
12903TIP3    H160200   4.504   3.478   0.992  0.4580 -0.1829 -1.0408
12903TIP3    H260201   4.646   3.461   0.942  0.5980  2.1913 -1.5499
12904TIP3   OH260202   6.394   2.524  11.553  0.2252 -0.5637 -0.0842
12904TIP3    H160203   6.483   2.498  11.577 -0.5038 -2.1575  1.1085
12904TIP3    H260204   6.343   2.443  11.560 -1.4025  0.4008 -0.2856
12905TIP3   OH260205   3.592   5.914  11.442  0.2961 -0.1333  0.3088
12905TIP3    H160206   3.503   5.883  11.431 -0.5107  0.4866  3.7919
12905TIP3    H260207   3.586   5.979  11.512  3.5005 -0.1706  0.7795
12906TIP3   OH260208   1.950   5.279   1.425 -0.2146  0.2626 -0.1715
12906TIP3    H160209   1.950   5.344   1.354  0.9221  1.6753  1.0582
12906TIP3    H260210   1.894   5.318   1.493 -2.8398 -1.9040 -0.9026
12907TIP3   OH260211   2.673   0.770  13.543 -0.5850 -0.0369  0.3220
12907TIP3    H160212   2.664   0.685  13.500 -1.0296 -0.6750  1.6146
12907TIP3    H260213   2.760   0.766  13.584 -1.1767 -0.4755  1.5915
12908TIP3   OH260214   1.033   2.062   2.479  0.2406  0.3559  0.5048
12908TIP3    H160215   1.042   1.975   2.439  0.0623  0.7287 -0.3827
12908TIP3    H260216   1.053   2.048   2.571  0.0231 -0.6621  0.4127
12909TIP3   OH260217   4.623   5.787   2.524 -0.2563 -0.0273 -0.3670
12909TIP3    H160218   4.567   5.748   2.457  1.0741 -1.5793 -0.6381
12909TIP3    H260219   4.639   5.716   2.587  1.0354  0.5005 -0.0665
12910TIP3   OH260220   5.915   4.338  16.375  0.3741 -0.5167  0.1322
12910TIP3    H160221   5.996   4.380  16.403  0.4537 -0.3872 -0.2874
12910TIP3    H260222   5.942   4.251  16.346  0.5821  0.0223 -1.3502
12911TIP3   OH260223   4.120   0.417   6.111 -0.0128 -0.1697  0.1601
12911TIP3    H160224   4.209   0.451   6.106  0.5724 -1.7493 -0.9587
12911TIP3    H260225   4.069   0.488   6.150  1.7841  0.6288  1.1542
12912TIP3   OH260226   6.611   3.995  13.986 -0.5480 -0.0923 -0.6491
12912TIP3    H160227   6.517   3.978  13.982 -0.4204 -1.0988  0.0448
12912TIP3    H260228   6.625   4.072  13.931 -1.6903 -0.2875 -1.2334
12913TIP3   OH260229   6.702   2.637  13.375 -0.0094  0.1162 -0.0155
12913TIP3    H160230   6.750   2.609  13.453  1.4307 -2.3454 -1.6389
12913TIP3    H260231   6.770   2.654  13.310 -1.1386  2.7661 -0.6164
12914TIP3   OH260232   6.022   2.659   3.414 -0.1279  0.0650 -0.1440
12914TIP3    H160233   5.937   2.651   3.372  0.1145 -0.0347 -0.6223
12914TIP3    H260234   6.044   2.570   3.441  0.2468 -0.0738 -0.8709
12915TIP3   OH260235   0.654   3.102   2.291 -0.3642 -0.5809 -0.1783
12915TIP3    H160236   0.687   3.022   2.251 -0.4829 -0.2933 -0.8667
12915TIP3    H260237   0.708   3.172   2.254  0.2510 -0.4054  0.9984
12916TIP3   OH260238   4.082   3.103   5.341  0.0204 -0.0288 -0.9710
12916TIP3    H160239   4.041   3.168   5.284  0.1308  1.6620  0.7347
12916TIP3    H260240   4.080   3.022   5.291 -0.0079  1.2999 -3.2732
12917TIP3   OH260241   4.316   0.975  11.170  0.4408 -0.2643 -0.6069
12917TIP3    H160242   4.323   1.071  11.169  0.4273 -0.2587 -2.0869
12917TIP3    H260243   4.268   0.954  11.090 -0.0067 -1.4883 -0.0293
12918TIP3   OH260244   1.773   1.273  14.453 -0.1422  0.0865  0.5519
12918TIP3    H160245   1.839   1.236  14.394  1.1018  1.2514  1.1501
12918TIP3    H260246   1.806   1.253  14.541  0.3104  2.1054  0.8836
12919TIP3   OH260247   4.955   1.273  16.291  0.3575  0.0463 -0.7428
12919TIP3    H160248   5.037   1.306  16.328  0.5250  0.5046 -1.4917
12919TIP3    H260249   4.944   1.323  16.210 -1.7552  1.5485  0.3805
12920TIP3   OH260250   3.558   3.915   0.871  0.3099 -0.6529  0.1243
12920TIP3    H160251   3.645   3.949   0.848  0.0802 -0.7629 -0.9673
12920TIP3    H260252   3.501   3.992   0.870  0.1904 -0.7432 -0.2619
12921TIP3   OH260253   1.354   6.586   2.979  0.0868  0.1370 -0.6388
12921TIP3    H160254   1.350   6.679   2.957 -0.3509  0.2441 -0.1408
12921TIP3    H260255   1.327   6.541   2.900  1.0243  0.4006 -1.1196
12922TIP3   OH260256   2.409   6.371  16.683  0.3981  0.3423 -0.2757
12922TIP3    H160257   2.429   6.416  16.602 -0.2785 -0.2474 -0.7868
12922TIP3    H260258   2.313   6.370  16.687  0.4240  1.4239  1.1389
12923TIP3   OH260259   5.543   6.649  12.173  0.1310 -0.5780  0.1249
12923TIP3    H160260   5.600   6.598  12.115 -0.9481 -0.1796 -1.3190
12923TIP3    H260261   5.527   6.591  12.247  0.1187 -1.7855 -0.7922
12924TIP3   OH260262   0.376   5.318   2.731 -0.7670  0.1883 -0.3915
12924TIP3    H160263   0.344   5.352   2.815 -0.2168 -0.4450  0.0875
12924TIP3    H260264   0.435   5.385   2.698 -0.5670  0.2012 -0.0071
12925TIP3   OH260265   3.573   6.378   6.738 -0.6115 -0.0816  0.2952
12925TIP3    H160266   3.635   6.380   6.811  1.3344  2.7798 -1.2159
12925TIP3    H260267   3.505   6.441   6.763  0.5763  1.6543 -0.6607
12926TIP3   OH260268   1.108   5.925  16.177  0.1047 -0.1929 -0.2290
12926TIP3    H160269   1.123   5.845  16.227 -1.2765 -0.4616 -0.2234
12926TIP3    H260270   1.099   5.993  16.243 -2.0682 -0.6043 -0.0327
12927TIP3   OH260271   0.973   6.560   5.891  0.0327  0.0398  0.1473
12927TIP3    H160272   0.933   6.620   5.828 -0.7947 -1.1696 -0.5058
12927TIP3    H260273   0.995   6.616   5.966  0.0017  1.2913 -0.7457
12928TIP3   OH260274   5.301   5.780  12.553  0.4685  0.9675  0.0478
12928TIP3    H160275   5.361   5.713  12.520 -0.8526  0.3878 -1.2528
12928TIP3    H260276   5.222   5.731  12.577 -0.2284  1.9616 -0.1856
12929TIP3   OH260277   5.191   4.405   1.629 -0.1083 -0.2322  1.0936
12929TIP3    H160278   5.240   4.327   1.656 -0.1946 -0.2791  1.1157
12929TIP3    H260279   5.100   4.376   1.627  0.1133 -1.1004 -2.1357
12930TIP3   OH260280   6.688   4.906   0.548 -0.0805 -0.4719 -0.5627
12930TIP3    H160281   6.756   4.962   0.509 -1.6310  0.4933 -1.9998
12930TIP3    H260282   6.710   4.818   0.519  0.8512 -0.2621 -0.5447
12931TIP3   OH260283   2.422   4.671  13.567 -0.2515 -0.2330  0.9331
12931TIP3    H160284   2.396   4.591  13.612  1.1740 -1.9251 -1.0535
12931TIP3    H260285   2.406   4.653  13.475  2.5418  0.7106  0.1643
12932TIP3   OH260286   5.297   0.663   6.511  0.2556 -0.3222  0.0290
12932TIP3    H160287   5.221   0.710   6.478  0.5882 -0.2581 -0.6594
12932TIP3    H260288   5.358   0.731   6.540  0.1573 -0.3664  0.3425
12933TIP3   OH260289   2.152   6.486   4.200  0.2086 -0.0718  0.0904
12933TIP3    H160290   2.201   6.408   4.224 -1.9189 -1.2471  0.8769
12933TIP3    H260291   2.069   6.452   4.166 -0.7519  1.8555  0.4088
12934TIP3   OH260292   0.212   5.353  15.744 -0.1899 -0.2126  0.3510
12934TIP3    H160293   0.205   5.273  15.795 -1.5151  1.4393  2.9746
12934TIP3    H260294   0.187   5.327  15.655  1.0053 -2.9617  0.7275
12935TIP3   OH260295   5.670   0.919   2.643  0.2833  0.3865 -0.2279
12935TIP3    H160296   5.744   0.860   2.656 -0.3742 -0.2005  0.9606
12935TIP3    H260297   5.658   0.921   2.548  2.1149  0.8908 -0.5020
12936TIP3   OH260298   6.159   3.140   2.438  0.3819 -0.4015 -0.1076
12936TIP3    H160299   6.246   3.169   2.413 -0.5953  1.5088 -1.5565
12936TIP3    H260300   6.136   3.074   2.373 -0.6134  1.7492 -2.0875
12937TIP3   OH260301   4.901   0.151  16.415  0.4299  0.6431  0.0291
12937TIP3    H160302   4.984   0.113  16.387  0.0291 -0.8300  0.7482
12937TIP3    H260303   4.914   0.174  16.507  0.4354  1.6113 -0.2036
12938TIP3   OH260304   3.319   2.423  12.351 -0.0408  0.3689 -0.1723
12938TIP3    H160305   3.390   2.485  12.334  0.1263  0.5864  1.2525
12938TIP3    H260306   3.316   2.414  12.446 -1.5075 -0.1227 -0.2311
12939TIP3   OH260307   3.260   5.194   2.081 -0.2985 -0.3903 -0.1892
12939TIP3    H160308   3.228   5.158   1.999 -2.4410 -1.0025  0.8381
12939TIP3    H260309   3.292   5.119   2.131 -0.8355 -0.2972  0.3037
12940TIP3   OH260310   5.651   5.228  14.127  0.9543 -0.5454  0.0251
12940TIP3    H160311   5.583   5.264  14.070  0.3677 -0.8293  0.5261
12940TIP3    H260312   5.665   5.139  14.095  1.3925 -0.3517 -0.3334
12941TIP3   OH260313   5.628   5.369  14.371 -0.0740  0.2712 -0.4290
12941TIP3    H160314   5.627   5.296  14.433  1.8402  0.6598  0.1172
12941TIP3    H260315   5.620   5.329  14.285  0.5476 -0.5603 -0.1082
12942TIP3   OH260316   4.932   6.158  16.866  0.1737  0.1366  0.0889
12942TIP3    H160317   4.972   6.154  16.953  1.2156 -0.1618 -0.3922
12942TIP3    H260318   4.972   6.235  16.825 -0.2202  0.2045 -0.1707
12943TIP3   OH260319   2.324   1.968  13.583  0.6566 -0.4577 -0.4820
12943TIP3    H160320   2.342   1.992  13.674  2.4364 -0.0890 -0.8940
12943TIP3    H260321   2.238   2.005  13.565  0.5278 -0.0420  0.8751
12944TIP3   OH260322   0.116   4.044  17.150  0.3493  1.4696 -0.0788
12944TIP3    H160323   0.049   4.046  17.219  0.3542 -0.2133  0.0036
12944TIP3    H260324   0.199   4.034  17.197  0.1790 -2.0198 -0.3223
12945TIP3   OH260325   2.134   0.438  17.103 -0.4039  0.9040 -0.4491
12945TIP3    H160326   2.174   0.506  17.157  2.4049  0.6716 -2.0095
12945TIP3    H260327   2.117   0.481  17.019 -0.5325  0.1953 -0.7926
12946TIP3   OH260328   2.444   3.698  14.656 -0.1843  0.0265  0.5295
12946TIP3    H160329   2.419   3.608  14.633  0.0073  0.2017 -0.4231
12946TIP3    H260330   2.367   3.750  14.631  1.1311  0.6321 -2.8513
12947TIP3   OH260331   0.871   2.974   1.607 -0.1187 -0.5544  0.6267
12947TIP3    H160332   0.934   3.045   1.612 -1.1655  0.8437 -2.9157
12947TIP3    H260333   0.800   3.001   1.666 -1.4679  2.6216 -2.1254
12948TIP3   OH260334   4.080   2.820   1.116 -0.3422  0.1645  0.5722
12948TIP3    H160335   3.995   2.785   1.143 -1.2488  0.4507 -1.7141
12948TIP3    H260336   4.131   2.742   1.093 -0.9302  0.1054 -0.5829
12949TIP3   OH260337   0.942   0.460   1.276 -0.5466  0.4558  0.1479
12949TIP3    H160338   0.968   0.518   1.204  2.1361 -0.6583  0.0767
12949TIP3    H260339   1.019   0.457   1.333 -1.4210 -1.2612  1.3383
12950TIP3   OH260340   5.588   1.325  16.501  0.0787  0.3362 -0.4492
12950TIP3    H160341   5.536   1.390  16.454 -0.3743  0.5229  0.2842
12950TIP3    H260342   5.669   1.371  16.524 -0.7306  1.0664  1.1231
12951TIP3   OH260343   4.503   5.967   0.116  0.3578  0.0136  0.1271
12951TIP3    H160344   4.521   5.970   0.021 -0.8736  3.6931 -0.1491
12951TIP3    H260345   4.540   6.048   0.149 -1.2237 -0.1161  2.4021
12952TIP3   OH260346   0.192   3.758   4.705 -0.3233 -0.2426 -0.2496
12952TIP3    H160347   0.200   3.770   4.800 -1.2820 -0.1845 -0.1699
12952TIP3    H260348   0.146   3.674   4.696  0.8093 -0.8386 -0.6977
12953TIP3   OH260349   3.835   2.084  14.033 -0.8251 -0.2633 -0.1907
12953TIP3    H160350   3.860   1.995  14.006 -0.0537  0.1535 -0.8759
12953TIP3    H260351   3.828   2.079  14.128  2.3870 -0.2918  0.1197
12954TIP3   OH260352   3.565   2.633  17.081 -0.7561 -0.4005 -0.1464
12954TIP3    H160353   3.535   2.600  16.997 -0.7885 -0.4744 -0.1060
12954TIP3    H260354   3.659   2.614  17.083 -1.1277 -2.4665  0.7649
12955TIP3   OH260355   2.683   5.005   3.593 -0.0438 -0.1493 -0.1251
12955TIP3    H160356   2.729   5.005   3.509 -0.5134  1.4285 -0.4162
12955TIP3    H260357   2.648   4.916   3.601  1.9934 -1.0371 -0.4619
12956TIP3   OH260358   6.285   2.144  15.623  0.2468  0.1009 -0.2602
12956TIP3    H160359   6.189   2.142  15.627  0.1965 -0.7439 -1.2898
12956TIP3    H260360   6.304   2.210  15.556  0.2645 -1.5270 -1.9400
12957TIP3   OH260361   1.063   0.164   2.384  0.1483 -0.2584  0.2013
12957TIP3    H160362   0.978   0.183   2.344 -1.1228 -2.7486  1.4570
12957TIP3    H260363   1.115   0.127   2.313  0.0611  0.8962 -0.4843
12958TIP3   OH260364   1.535   5.397   3.534  0.3600 -0.5627 -0.6607
12958TIP3    H160365   1.574   5.330   3.479  0.8480 -2.4776  1.8427
12958TIP3    H260366   1.519   5.354   3.618 -1.0655  1.9628  0.5018
12959TIP3   OH260367   0.514   5.376  16.002 -0.2407  0.5058 -0.4807
12959TIP3    H160368   0.564   5.309  16.049 -2.7281 -0.4448  0.9863
12959TIP3    H260369   0.543   5.459  16.040  0.4855  0.0209  0.0349
12960TIP3   OH260370   3.876   5.883   0.043 -0.1126  0.5474  0.4198
12960TIP3    H160371   3.900   5.892   0.135 -1.1877 -0.0470  0.7749
12960TIP3    H260372   3.791   5.840   0.045 -0.0330  0.3011 -0.8639
12961TIP3   OH260373   2.129   1.239  10.881  0.8390 -0.1858 -0.0569
12961TIP3    H160374   2.198   1.220  10.817  0.8654  1.1996 -0.4775
12961TIP3    H260375   2.102   1.328  10.861 -1.0931 -0.6879  0.1169
12962TIP3   OH260376   1.915   4.859   3.993  0.3753  0.1870 -0.4421
12962TIP3    H160377   2.004   4.855   3.959  0.3135 -0.4534 -0.5485
12962TIP3    H260378   1.917   4.930   4.057  0.8630  0.4329 -0.7239
12963TIP3   OH260379   5.918   2.670   6.143  0.3055 -0.3398  0.5656
12963TIP3    H160380   5.987   2.737   6.141  1.8627 -1.7569  2.5992
12963TIP3    H260381   5.837   2.719   6.158  1.2941  1.1489  1.2194
12964TIP3   OH260382   1.565   0.364  15.765 -0.1847  0.3566 -0.3879
12964TIP3    H160383   1.636   0.364  15.701 -0.1925  2.7140 -0.4811
12964TIP3    H260384   1.601   0.321  15.843  1.0863  0.8507 -0.6956
12965TIP3   OH260385   6.470   3.007  11.375  0.5301 -0.2036 -0.2774
12965TIP3    H160386   6.376   3.020  11.383  0.8806  1.4210  2.8802
12965TIP3    H260387   6.481   2.912  11.367 -1.3376 -0.5014  0.2711
12966TIP3   OH260388   1.439   1.191  13.180  0.6214 -0.0282  0.0258
12966TIP3    H160389   1.527   1.169  13.210  1.0996  1.4275 -0.2061
12966TIP3    H260390   1.424   1.280  13.213 -0.5457 -0.0408 -0.4087
12967TIP3   OH260391   6.823   4.848   5.300 -0.0520  0.0769 -0.5150
12967TIP3    H160392   6.880   4.771   5.306  0.2393  0.2974 -0.4230
12967TIP3    H260393   6.792   4.863   5.389  1.7460  1.4485 -0.0587
12968TIP3   OH260394   1.541   2.029   5.749  0.2499  0.1474  0.1198
12968TIP3    H160395   1.595   2.107   5.747  0.8130 -0.2453 -0.9383
12968TIP3    H260396   1.581   1.970   5.685 -1.3616 -0.1851 -0.6535
12969TIP3   OH260397   5.296   0.848  13.209 -0.2528 -0.2741 -0.5713
12969TIP3    H160398   5.365   0.912  13.193 -1.2392  1.2718  1.0071
12969TIP3    H260399   5.231   0.866  13.140 -0.2393  0.0153 -0.5111
12970TIP3   OH260400   1.294   3.675  11.320 -0.5197  0.0637  0.6272
12970TIP3    H160401   1.265   3.599  11.369  1.5752 -2.0972 -1.2367
12970TIP3    H260402   1.364   3.713  11.374 -1.8098  0.9555  1.7285
12971TIP3   OH260403   2.850   1.906   5.860  0.2462 -0.3473  0.4702
12971TIP3    H160404   2.912   1.834   5.866  1.7688  0.9917  1.6560
12971TIP3    H260405   2.889   1.976   5.913 -1.6364  1.0167  0.1583
12972TIP3   OH260406   5.027   4.803  11.006 -0.0357  0.5165 -0.2104
12972TIP3    H160407   5.011   4.803  11.100 -1.5186 -0.6637 -0.4240
12972TIP3    H260408   5.040   4.710  10.984 -0.2710  0.7207 -1.2501
12973TIP3   OH260409   3.704   4.295   4.606  0.0662  0.1651  0.4495
12973TIP3    H160410   3.617   4.265   4.630  0.8958 -1.0529  2.1211
12973TIP3    H260411   3.763   4.226   4.637  1.5991  0.5955 -1.2838
12974TIP3   OH260412   6.615   3.021   2.818 -0.1402 -0.0652  0.5272
12974TIP3    H160413   6.614   3.033   2.913  2.2099  0.4998  0.5329
12974TIP3    H260414   6.685   2.959   2.802 -0.2145  0.1766 -0.8801
12975TIP3   OH260415   2.336   1.192   5.077  0.0256  0.2045  0.0584
12975TIP3    H160416   2.258   1.245   5.092 -0.8962 -1.2820  0.7673
12975TIP3    H260417   2.369   1.171   5.164 -0.3934 -1.4368 -0.1393
12976TIP3   OH260418   3.851   4.535   2.728  0.1141  0.4597  0.0840
12976TIP3    H160419   3.905   4.474   2.677  0.7944  0.9529  0.2028
12976TIP3    H260420   3.807   4.480   2.793  0.5197  0.0559  0.0228
12977TIP3   OH260421   2.294   1.438   4.355  0.1624 -0.0433  0.2983
12977TIP3    H160422   2.372   1.392   4.385  0.7260  0.8181  0.1802
12977TIP3    H260423   2.251   1.467   4.436  0.8236  0.8789  0.3240
12978TIP3   OH260424   0.774   0.160  11.435  0.2270 -1.0158 -0.2532
12978TIP3    H160425   0.784   0.125  11.523 -0.5957 -0.7265 -0.0281
12978TIP3    H260426   0.682   0.143  11.413  0.1200 -0.0639 -0.5976
12979TIP3   OH260427   5.063   2.506   6.151 -0.3105 -0.2330 -0.1159
12979TIP3    H160428   5.142   2.461   6.182  1.5555  1.5524 -1.9242
12979TIP3    H260429   4.993   2.442   6.160  1.6083 -2.3995  0.2730
12980TIP3   OH260430   2.348   3.625  16.216  0.3852 -0.4121 -0.0095
12980TIP3    H160431   2.398   3.548  16.190 -0.4899 -0.8777 -0.3424
12980TIP3    H260432   2.335   3.674  16.134  0.8729  0.0620  0.1867
12981TIP3   OH260433   1.433   4.241  14.575 -0.1840 -0.4077 -0.0258
12981TIP3    H160434   1.526   4.218  14.565 -0.2642 -0.8789  0.2935
12981TIP3    H260435   1.434   4.334  14.597  0.1665 -0.2029 -0.8557
12982TIP3   OH260436   2.659   2.680   1.516  0.2311  0.2116  0.2222
12982TIP3    H160437   2.582   2.686   1.572  1.2543  0.3665  1.6608
12982TIP3    H260438   2.709   2.759   1.536  0.0110  0.9480 -1.8906
12983TIP3   OH260439   4.569   2.072  11.561 -0.1432 -0.8676  0.3886
12983TIP3    H160440   4.611   2.157  11.558  1.8396 -1.7629  1.2775
12983TIP3    H260441   4.565   2.044  11.469 -0.6872  0.0852  0.1046
12984TIP3   OH260442   0.476   5.031  13.045  0.1863 -0.1790 -0.1314
12984TIP3    H160443   0.493   4.957  12.987 -1.4093 -1.3560  0.8271
12984TIP3    H260444   0.389   5.063  13.019 -0.0308  0.0379  0.8300
12985TIP3   OH260445   1.064   1.238  11.117 -0.4752  0.0262  0.1716
12985TIP3    H160446   1.043   1.160  11.168  0.3490 -0.5407 -0.3386
12985TIP3    H260447   0.979   1.282  11.105 -0.8891 -0.5855  0.7863
12986TIP3   OH260448   1.232   4.209   1.261  0.2248 -0.3141 -0.2678
12986TIP3    H160449   1.139   4.194   1.249  0.0966  0.4569 -0.2850
12986TIP3    H260450   1.262   4.137   1.316 -1.0916  1.2753  2.7956
12987TIP3   OH260451   4.581   5.548   5.943  0.3908  0.3082 -0.1598
12987TIP3    H160452   4.526   5.620   5.975 -0.0024 -0.3580  0.7232
12987TIP3    H260453   4.631   5.521   6.020  0.8908 -0.0465 -0.6027
12988TIP3   OH260454   6.439   0.008  16.010  0.0152 -0.0134  0.1981
12988TIP3    H160455   6.522   0.050  16.032 -0.8905  2.5108 -0.7824
12988TIP3    H260456   6.451  -0.084  16.033  2.2166  0.7113  2.3792
12989TIP3   OH260457   5.932   2.379   0.467 -0.7108 -0.4944  0.3580
12989TIP3    H160458   5.973   2.338   0.543 -2.7411  0.1526  1.9106
12989TIP3    H260459   5.961   2.470   0.471 -2.3417  0.0294  1.6142
12990TIP3   OH260460   2.357   3.556  11.567 -0.2216  0.2919  0.0833
12990TIP3    H160461   2.329   3.572  11.477  0.3371 -0.7767 -0.3006
12990TIP3    H260462   2.431   3.496  11.558  0.2826  0.7182  1.2221
12991TIP3   OH260463   2.034   0.679   5.933 -0.3074  0.3456  0.0998
12991TIP3    H160464   2.031   0.744   6.003  0.6713  1.0040 -0.4417
12991TIP3    H260465   2.084   0.606   5.970  0.0983  0.6379  0.1354
12992TIP3   OH260466   2.976   5.934  16.548 -0.1529  0.6638  0.1570
12992TIP3    H160467   2.947   5.876  16.478  0.2599  1.2631 -0.5230
12992TIP3    H260468   2.965   6.022  16.512  4.1146  0.9764 -0.8849
12993TIP3   OH260469   4.592   0.023   0.027  0.1279  0.2041  0.2160
12993TIP3    H160470   4.654  -0.050   0.031 -0.9406 -0.7244  0.0890
12993TIP3    H260471   4.534   0.010   0.101  0.7016  1.6749  0.9744
12994TIP3   OH260472   3.265   4.553   2.064  0.0964  0.2178  0.1993
12994TIP3    H160473   3.239   4.466   2.093  1.0872 -0.3767 -0.5990
12994TIP3    H260474   3.255   4.609   2.141 -0.0188 -0.7183  0.8777
12995TIP3   OH260475   0.428   0.961  13.857  0.5793 -0.6166  0.2680
12995TIP3    H160476   0.449   1.051  13.835  1.4056 -0.6063  1.0559
12995TIP3    H260477   0.347   0.967  13.908  1.2794 -0.1920  1.3643
12996TIP3   OH260478   6.450   6.705  16.860 -0.1096  0.2926 -0.1966
12996TIP3    H160479   6.494   6.637  16.810  1.0520  0.6960  0.2595
12996TIP3    H260480   6.482   6.694  16.949 -0.6450  0.8284  0.0694
12997TIP3   OH260481   5.741   6.826  11.077  0.2656  0.0640 -0.1711
12997TIP3    H160482   5.775   6.865  11.157  0.0381  2.5977 -1.1929
12997TIP3    H260483   5.811   6.769  11.046  1.4721  1.1675  0.4263
12998TIP3   OH260484   3.322   4.293  10.877 -0.5095 -0.2828  0.4888
12998TIP3    H160485   3.395   4.239  10.848 -1.3606 -1.0251 -0.3847
12998TIP3    H260486   3.293   4.338  10.797  0.2781  1.6355  1.2256
12999TIP3   OH260487   1.893   2.990   4.517 -0.1578 -0.4793 -0.3185
12999TIP3    H160488   1.947   3.050   4.467  0.7303 -1.2745 -0.3399
12999TIP3    H260489   1.952   2.951   4.581 -1.2717  0.5404  1.4115
13000TIP3   OH260490   1.547   0.128  13.772  0.5260 -0.2554  0.5960
13000TIP3    H160491   1.477   0.193  13.776  0.4475 -0.3569  0.8784
13000TIP3    H260492   1.580   0.133  13.682 -1.0956 -1.5305 -0.1090
13001TIP3   OH260493   0.205   1.912   5.778 -0.7851 -0.1780  0.1069
13001TIP3    H160494   0.185   1.967   5.854 -0.5555 -0.6114  0.4863
13001TIP3    H260495   0.274   1.853   5.809  0.3817  0.6283 -0.8847
13002TIP3   OH260496   4.322   2.633   0.500 -0.1866  0.2424  0.3153
13002TIP3    H160497   4.406   2.596   0.475 -0.8848 -1.3516  0.2030
13002TIP3    H260498   4.273   2.559   0.536 -1.1451  1.3643  1.4333
13003TIP3   OH260499   6.023   6.570   0.790  0.6066 -0.4020 -0.3185
13003TIP3    H160500   6.063   6.656   0.799  0.5745 -0.3067 -1.0099
13003TIP3    H260501   5.983   6.552   0.875  2.6426 -0.7671  0.6381
13004TIP3   OH260502   0.170   3.822  13.603  0.3104  0.3817 -0.0207
13004TIP3    H160503   0.202   3.746  13.653 -1.2079 -0.8659 -0.8797
13004TIP3    H260504   0.245   3.848  13.550  0.7861 -0.6781  0.1028
13005TIP3   OH260505   5.968   0.799   4.770 -0.1096  0.0917  0.0500
13005TIP3    H160506   5.894   0.747   4.799 -0.4945  0.8689  0.4731
13005TIP3    H260507   5.932   0.859   4.704  0.2359  0.1549 -0.0890
13006TIP3   OH260508   3.449   0.651   6.253  0.5291 -0.2683  0.0186
13006TIP3    H160509   3.442   0.712   6.327  0.6754  0.4448 -0.5420
13006TIP3    H260510   3.364   0.609   6.248  0.9539 -1.3944  1.4857
13007TIP3   OH260511   1.062   6.570   4.808 -0.0223  0.2955  0.1304
13007TIP3    H160512   0.978   6.615   4.808 -0.5212 -0.6176  0.3227
13007TIP3    H260513   1.065   6.524   4.892 -0.2543 -1.3292 -0.6989
13008TIP3   OH260514   2.460   0.751   5.019  0.3347  0.2545  0.0986
13008TIP3    H160515   2.446   0.842   4.993  0.1203  0.4242  0.7855
13008TIP3    H260516   2.544   0.727   4.980 -0.3069  0.2579 -1.3416
13009TIP3   OH260517   1.006   0.124   1.169 -0.2296  0.5222 -0.1413
13009TIP3    H160518   0.921   0.122   1.212  0.4785 -0.7580  1.2709
13009TIP3    H260519   1.032   0.216   1.170 -0.8689  0.7005  0.8810
13010TIP3   OH260520   3.217   4.821   4.986  0.3933 -0.0047 -0.0123
13010TIP3    H160521   3.210   4.726   4.987  1.1757 -0.1398  2.8847
13010TIP3    H260522   3.150   4.851   5.048  1.9343  1.0795  1.2074
13011TIP3   OH260523   3.040   2.251  11.331 -0.0896 -0.8065  0.3224
13011TIP3    H160524   2.951   2.246  11.367  0.6421  0.7270  2.5600
13011TIP3    H260525   3.030   2.297  11.248 -1.5015 -1.6251  0.0058
13012TIP3   OH260526   5.217   0.080  13.122  0.5041 -0.3098 -0.1209
13012TIP3    H160527   5.182   0.160  13.163 -1.0264 -1.3099  0.6372
13012TIP3    H260528   5.155   0.060  13.052  1.0210 -0.6896 -0.4746
13013TIP3   OH260529   0.302   6.696   2.693  0.0586  0.2524 -0.4388
13013TIP3    H160530   0.294   6.668   2.784 -0.5799  0.8595 -0.2976
13013TIP3    H260531   0.260   6.626   2.643  0.6024 -0.1857 -0.2883
13014TIP3   OH260532   4.116   2.796   2.124  0.3622 -0.3294 -0.1884
13014TIP3    H160533   4.186   2.808   2.188 -0.5180 -1.2449  0.9910
13014TIP3    H260534   4.101   2.702   2.123 -0.4972 -0.1907 -0.8154
13015TIP3   OH260535   4.871   6.062  14.199 -0.2699  0.2529  0.2949
13015TIP3    H160536   4.888   5.975  14.236  0.5131  0.0551 -0.5022
13015TIP3    H260537   4.948   6.082  14.146 -1.5448  0.2669 -1.6996
13016TIP3   OH260538   4.711   5.021   4.350  0.1814  0.7626 -0.1032
13016TIP3    H160539   4.653   5.004   4.424 -0.5552  0.4366 -0.7403
13016TIP3    H260540   4.759   5.101   4.374 -1.0099  1.4120  0.1500
13017TIP3   OH260541   2.020   1.671  15.720  0.4534 -0.1444  0.6101
13017TIP3    H160542   2.082   1.742  15.737  0.5633  0.2748 -1.2435
13017TIP3    H260543   1.960   1.708  15.654  0.1650 -1.5739  0.0370
13018TIP3   OH260544   4.682   1.495   2.624 -0.2930 -0.1564 -0.7062
13018TIP3    H160545   4.627   1.508   2.547  0.0375 -0.4665 -0.9994
13018TIP3    H260546   4.770   1.520   2.596 -0.2795  0.3592 -0.2351
13019TIP3   OH260547   3.044   1.328  11.724 -0.0766 -0.8050 -0.3433
13019TIP3    H160548   3.120   1.278  11.754  0.8905  0.4177 -0.6287
13019TIP3    H260549   3.032   1.302  11.632  2.9254  2.1923 -1.8035
13020TIP3   OH260550   0.062   4.154   0.835 -0.1137  0.8408  0.4700
13020TIP3    H160551   0.145   4.122   0.799  0.4299 -0.1302  2.4691
13020TIP3    H260552  -0.005   4.107   0.786  0.5958 -0.4093  0.6497
13021TIP3   OH260553   1.977   4.716   3.648 -0.4861 -0.5002 -0.2395
13021TIP3    H160554   1.938   4.731   3.561  0.9577 -0.0177 -0.8445
13021TIP3    H260555   1.911   4.748   3.709 -1.7035 -1.2148 -1.1284
13022TIP3   OH260556   4.285   2.043   6.265 -0.6069 -0.0942 -0.0271
13022TIP3    H160557   4.347   2.110   6.239 -1.3328  0.7043  0.2416
13022TIP3    H260558   4.200   2.088   6.267 -1.4402 -1.4327 -1.6678
13023TIP3   OH260559   4.432   3.685   3.281 -0.1586  0.8118 -0.4140
13023TIP3    H160560   4.466   3.659   3.367  0.9628  0.3274 -0.9802
13023TIP3    H260561   4.338   3.697   3.295 -0.2310 -0.6379  0.5682
13024TIP3   OH260562   1.688   1.559  11.274 -0.0754  0.5206 -0.0609
13024TIP3    H160563   1.719   1.573  11.363  1.9165  1.0041 -0.7752
13024TIP3    H260564   1.767   1.550  11.222 -1.1963 -0.9998 -1.6192
13025TIP3   OH260565   0.628   2.942  12.743  0.1864 -0.4033 -0.3653
13025TIP3    H160566   0.686   2.921  12.817  0.6697 -1.3339 -0.9868
13025TIP3    H260567   0.675   3.010  12.694  0.3772 -0.5616 -0.4066
13026TIP3   OH260568   0.060   4.327   0.101 -0.1866  0.1313 -0.2941
13026TIP3    H160569  -0.009   4.262   0.083 -0.2718 -0.1274  0.8587
13026TIP3    H260570   0.090   4.306   0.190  0.7114  0.8519 -0.4095
13027TIP3   OH260571   1.974   5.079  17.164  0.3629 -0.0016 -0.2663
13027TIP3    H160572   1.986   5.021  17.239  0.6952 -0.1456 -0.4284
13027TIP3    H260573   2.040   5.147  17.175 -0.0819  0.4010 -0.0294
13028TIP3   OH260574   0.111   5.970   2.906  0.3650 -0.2073 -0.4887
13028TIP3    H160575   0.110   5.902   2.839 -1.4149 -0.7194  0.0058
13028TIP3    H260576   0.171   5.937   2.973 -0.6297 -1.4286 -0.1568
13029TIP3   OH260577   6.011   2.098  12.913 -0.0032  0.0758  0.3813
13029TIP3    H160578   5.957   2.056  12.845  0.6614  0.9459 -0.7245
13029TIP3    H260579   5.955   2.100  12.990 -0.4596 -1.8142  0.1649
13030TIP3   OH260580   4.842   6.487  16.294 -0.1616  0.7003  0.0126
13030TIP3    H160581   4.923   6.516  16.336  0.8029  0.7970 -1.7990
13030TIP3    H260582   4.807   6.566  16.253 -0.8652  0.5344  0.2826
13031TIP3   OH260583   5.405   2.860  15.644 -0.1042 -0.0909 -0.2841
13031TIP3    H160584   5.410   2.888  15.552  1.6914  2.8606  0.5636
13031TIP3    H260585   5.339   2.918  15.682 -1.1377 -1.5735  0.2641
13032TIP3   OH260586   4.042   5.817   0.992 -0.1679  0.4396 -0.1928
13032TIP3    H160587   4.078   5.864   1.067 -0.1460 -1.1950  0.8857
13032TIP3    H260588   3.953   5.793   1.020 -0.4125  0.4221 -0.9763
13033TIP3   OH260589   1.684   0.537   1.253 -0.1915 -0.1891  0.1915
13033TIP3    H160590   1.617   0.474   1.281  0.7705 -0.8824  0.9790
13033TIP3    H260591   1.643   0.623   1.267 -1.5925 -0.6190 -1.0860
13034TIP3   OH260592   0.780   3.246   2.056 -0.2201  0.3779  0.3588
13034TIP3    H160593   0.765   3.304   2.130 -2.6447  0.4588 -0.1032
13034TIP3    H260594   0.709   3.266   1.995 -0.3646 -2.1480 -0.4137
13035TIP3   OH260595   0.459   0.402   1.798  0.7574 -0.3766  0.3128
13035TIP3    H160596   0.366   0.423   1.789 -0.2824 -2.9319  3.2367
13035TIP3    H260597   0.487   0.450   1.877  2.4698  1.6353 -1.3950
13036TIP3   OH260598   1.174   6.774   2.190 -0.5917  0.4436 -0.2789
13036TIP3    H160599   1.166   6.762   2.095 -1.8350  1.7609 -0.3809
13036TIP3    H260600   1.087   6.753   2.224  0.4903 -2.6332  0.9569
13037TIP3   OH260601   2.568   0.543  16.556  0.1063  0.0682  0.5327
13037TIP3    H160602   2.621   0.502  16.624  1.1113  0.7357  0.1814
13037TIP3    H260603   2.513   0.606  16.602 -2.5124 -2.5560  1.2760
13038TIP3   OH260604   5.803   5.377  16.770  0.3860 -0.0255  0.2928
13038TIP3    H160605   5.869   5.445  16.763 -0.7651  1.0586 -0.4275
13038TIP3    H260606   5.730   5.419  16.816 -0.4963 -0.6533 -0.5048
13039TIP3   OH260607   0.996   6.337  14.246 -0.6164 -0.0159  0.3605
13039TIP3    H160608   0.996   6.394  14.169 -0.2065 -0.0955  0.2965
13039TIP3    H260609   0.987   6.249  14.210 -1.0113 -0.0111  0.4438
13040TIP3   OH260610   5.504   2.835   2.424 -0.7862  0.5822 -0.3007
13040TIP3    H160611   5.418   2.856   2.388 -0.9081  1.9557  0.6816
13040TIP3    H260612   5.564   2.896   2.380 -0.9097  2.1671  1.5610
13041TIP3   OH260613   0.494   3.538   2.418  0.6722  0.8837  0.8643
13041TIP3    H160614   0.439   3.574   2.348  2.5046  0.1606 -1.0438
13041TIP3    H260615   0.497   3.608   2.484  0.7531  2.5597 -0.8228
13042TIP3   OH260616   5.190   2.988  15.770 -0.5216  0.2017 -0.0650
13042TIP3    H160617   5.212   3.059  15.830 -1.1665 -1.0756  1.7780
13042TIP3    H260618   5.105   3.013  15.733 -0.9161  0.2642  0.8472
13043TIP3   OH260619   4.838   6.004   0.189 -0.2123  0.3306  0.4397
13043TIP3    H160620   4.801   6.043   0.268  0.4897  3.3743 -0.5800
13043TIP3    H260621   4.822   6.069   0.120  0.1741 -1.7061 -1.7067
13044TIP3   OH260622   3.253   4.508   0.074  0.3850 -0.0905 -0.2377
13044TIP3    H160623   3.181   4.549   0.120 -0.5955 -0.0037 -1.7654
13044TIP3    H260624   3.241   4.414   0.091  1.4157  0.0582  1.5500
13045TIP3   OH260625   4.922   3.870   2.187  0.3017  0.3011  0.7612
13045TIP3    H160626   5.006   3.825   2.194  1.2970  1.8393 -0.5267
13045TIP3    H260627   4.857   3.803   2.206  1.7775 -1.1763  0.8277
13046TIP3   OH260628   1.623   3.816   1.301 -0.6865 -0.1779  0.1803
13046TIP3    H160629   1.627   3.772   1.386  1.3346 -2.1864 -0.8565
13046TIP3    H260630   1.684   3.889   1.309 -0.2671 -0.5449  0.3640
13047TIP3   OH260631   4.564   5.049  13.695  0.1215 -0.1785 -0.5481
13047TIP3    H160632   4.510   5.096  13.758  1.3318  0.1863  0.2590
13047TIP3    H260633   4.506   5.033  13.621 -1.3500 -0.6652  0.6574
13048TIP3   OH260634   5.387   3.472   3.145  0.0066 -0.3782 -0.4906
13048TIP3    H160635   5.473   3.453   3.106  1.1881  0.4171  1.5534
13048TIP3    H260636   5.390   3.428   3.230 -0.5903  1.7546  0.6952
13049TIP3   OH260637   6.790   2.600   2.235 -0.0916  0.0253  0.3127
13049TIP3    H160638   6.886   2.596   2.233 -0.1379 -1.8352 -1.2360
13049TIP3    H260639   6.762   2.521   2.188 -2.3504  1.6499 -1.3063
13050TIP3   OH260640   3.800   1.724   4.706  0.4068  0.5608 -0.2316
13050TIP3    H160641   3.772   1.651   4.651  1.7509 -0.3196  0.1975
13050TIP3    H260642   3.766   1.702   4.793  1.2921  0.1404  0.0174
13051TIP3   OH260643   4.112   5.308  16.033  0.0909  0.0403  0.1958
13051TIP3    H160644   4.131   5.401  16.039 -1.6277  0.3549  2.3550
13051TIP3    H260645   4.150   5.270  16.113 -0.8515 -0.7393  0.3000
13052TIP3   OH260646   1.303   1.148  13.938 -0.3420 -0.2068  0.2708
13052TIP3    H160647   1.352   1.085  13.991 -0.6753  0.1142  0.9783
13052TIP3    H260648   1.298   1.226  13.993  1.1723  0.9111 -1.0846
13053TIP3   OH260649   3.114   0.869  15.686 -0.2055  0.0687 -0.3146
13053TIP3    H160650   3.030   0.911  15.708 -0.5013 -1.3544  1.4253
13053TIP3    H260651   3.179   0.938  15.698 -0.8088  0.3892  1.3686
13054TIP3   OH260652   6.069   4.886  11.843  0.3313  0.3205 -0.4149
13054TIP3    H160653   6.043   4.904  11.753  1.1066  1.0465 -0.5143
13054TIP3    H260654   6.152   4.838  11.834  0.0383 -0.2488 -0.0962
13055TIP3   OH260655   2.745   3.379   0.894  0.2269 -0.0772  0.0481
13055TIP3    H160656   2.656   3.358   0.867  0.7885  1.2146 -3.2949
13055TIP3    H260657   2.741   3.470   0.925 -0.0684 -0.9869  3.0188
13056TIP3   OH260658   5.881   1.442  10.762 -0.3384  0.2014  0.0126
13056TIP3    H160659   5.796   1.464  10.724 -1.1648 -2.3432  0.1743
13056TIP3    H260660   5.940   1.435  10.687 -0.4962  0.9801 -0.1936
13057TIP3   OH260661   5.084   6.140   4.157 -0.1317  0.5262  0.1035
13057TIP3    H160662   5.023   6.097   4.217 -1.0125  0.0404 -1.1046
13057TIP3    H260663   5.064   6.233   4.165 -0.4652  0.4376  0.3275
13058TIP3   OH260664   0.469   4.748  13.370  0.1501  0.1792 -0.0706
13058TIP3    H160665   0.475   4.843  13.367 -1.5223  0.4077  1.5046
13058TIP3    H260666   0.442   4.729  13.460  1.5574 -1.8812 -0.0176
13059TIP3   OH260667   1.297   2.676  12.223 -0.1461 -0.3697  0.1127
13059TIP3    H160668   1.210   2.691  12.260 -0.2976 -2.7774  0.9007
13059TIP3    H260669   1.280   2.646  12.133 -0.2132 -1.4381  0.4626
13060TIP3   OH260670   2.926   1.993  15.984 -0.6304 -0.8876  0.2490
13060TIP3    H160671   2.838   1.986  16.021 -0.6668 -3.3504 -0.1098
13060TIP3    H260672   2.929   1.925  15.916  1.0098  0.2867 -0.9257
13061TIP3   OH260673   3.114   1.374  12.242  0.3669  0.2116 -0.0050
13061TIP3    H160674   3.076   1.348  12.158  1.7825  0.1962 -0.6643
13061TIP3    H260675   3.207   1.386  12.224  0.3755  2.1634  1.1193
13062TIP3   OH260676   4.623   1.313   4.536 -0.2494 -0.4603  0.2662
13062TIP3    H160677   4.604   1.328   4.629 -3.0558 -0.6122 -0.1958
13062TIP3    H260678   4.586   1.227   4.517 -0.7763  0.0587 -1.2297
13063TIP3   OH260679   5.419   2.118  13.027 -0.2713 -0.2530 -0.3830
13063TIP3    H160680   5.452   2.048  12.972  1.4383  0.4950 -0.3859
13063TIP3    H260681   5.337   2.145  12.985  0.8331  0.1196 -2.4494
13064TIP3   OH260682   6.008   0.831  11.889 -0.3174  0.0779 -0.2998
13064TIP3    H160683   5.954   0.799  11.817 -0.1817  0.0453 -0.3875
13064TIP3    H260684   6.034   0.753  11.937 -0.6143  0.1209 -0.0687
13065TIP3   OH260685   3.679   4.633  10.310 -0.1147  0.3226  0.2915
13065TIP3    H160686   3.605   4.646  10.251 -1.4229 -0.6383  1.6180
13065TIP3    H260687   3.742   4.699  10.285 -1.2613  0.9290 -1.1589
13066TIP3   OH260688   6.190   0.456  12.313  0.1456  0.0615 -0.0906
13066TIP3    H160689   6.166   0.365  12.292 -2.7349  0.5744  0.5757
13066TIP3    H260690   6.266   0.474  12.258  0.5068 -2.5805 -0.6034
13067TIP3   OH260691   4.408   4.076   1.442 -0.1547 -0.2033 -0.0225
13067TIP3    H160692   4.323   4.050   1.479 -1.6907  0.5485 -2.6946
13067TIP3    H260693   4.395   4.167   1.414  1.3199 -0.2888 -1.0832
13068TIP3   OH260694   1.062   2.344  11.908 -0.1889 -0.2236  0.0968
13068TIP3    H160695   1.139   2.292  11.885 -1.3824 -1.9380 -0.1976
13068TIP3    H260696   0.996   2.279  11.931 -1.6887  1.1963 -0.0781
13069TIP3   OH260697   0.515   2.486  15.418  0.2951  0.4564  0.0244
13069TIP3    H160698   0.470   2.540  15.353 -1.4772  0.3782  1.1270
13069TIP3    H260699   0.484   2.519  15.502 -1.2364 -2.4981  0.7504
13070TIP3   OH260700   0.831   6.189   2.043  0.1762  0.0642 -0.5079
13070TIP3    H160701   0.802   6.140   1.966  2.9843 -1.0974 -0.9240
13070TIP3    H260702   0.750   6.213   2.088 -1.4217 -2.1179 -2.0329
13071TIP3   OH260703   4.863   2.782   3.727  0.3492 -0.3959  0.1846
13071TIP3    H160704   4.833   2.776   3.636 -0.3235 -1.7809  0.4813
13071TIP3    H260705   4.915   2.702   3.740  1.3837  0.3390  0.6901
13072TIP3   OH260706   0.806   4.892   0.503 -0.1216  0.4963  0.1985
13072TIP3    H160707   0.853   4.953   0.561  0.1899  0.4727 -0.0272
13072TIP3    H260708   0.865   4.879   0.429  0.9932 -2.1014  1.4118
13073TIP3   OH260709   2.578   0.634   1.782 -0.6499  0.4582  0.1771
13073TIP3    H160710   2.644   0.667   1.842  0.6458 -0.7294 -0.5248
13073TIP3    H260711   2.550   0.711   1.732  0.9179  0.8584 -0.1520
13074TIP3   OH260712   1.933   5.652  12.504 -0.5549 -0.9997 -0.5065
13074TIP3    H160713   1.879   5.582  12.468  0.5457 -1.8720 -0.5155
13074TIP3    H260714   1.994   5.608  12.563 -0.8011  0.1256  0.6454
13075TIP3   OH260715   6.128   0.214   0.604  0.0493 -0.3437 -0.0939
13075TIP3    H160716   6.163   0.183   0.520  0.2989 -1.7233  0.4959
13075TIP3    H260717   6.163   0.303   0.613  1.5883 -0.8772 -0.5627
13076TIP3   OH260718   5.002   5.426  14.275  0.3087  0.4607 -0.2576
13076TIP3    H160719   5.058   5.419  14.198  0.2821 -0.6155 -0.2005
13076TIP3    H260720   4.998   5.337  14.310  0.8988  1.0501  1.4058
13077TIP3   OH260721   3.231   1.371  12.676  0.2594 -0.4396 -0.0469
13077TIP3    H160722   3.152   1.393  12.626 -0.7480 -2.9319  0.3034
13077TIP3    H260723   3.301   1.369  12.611  0.4787  3.2956 -0.1479
13078TIP3   OH260724   1.089   3.668  15.868 -0.0615 -0.2985 -0.1053
13078TIP3    H160725   1.173   3.693  15.906 -0.8796  2.6795 -0.0094
13078TIP3    H260726   1.107   3.585  15.823  2.9130  0.2165 -0.0871
13079TIP3   OH260727   1.068   2.054  13.794 -0.3070 -0.0076 -0.2632
13079TIP3    H160728   1.006   2.025  13.726  0.5681 -0.2745 -0.9707
13079TIP3    H260729   1.024   2.127  13.837 -0.1143  1.5122 -2.4618
13080TIP3   OH260730   5.169   1.835   5.354  0.1117 -0.1531 -0.0681
13080TIP3    H160731   5.261   1.860   5.343  0.0870 -0.6680 -1.8997
13080TIP3    H260732   5.147   1.859   5.444  2.1558 -0.4282  0.5493
13081TIP3   OH260733   5.968   0.114   2.078 -0.1293 -0.7982 -0.0729
13081TIP3    H160734   5.943   0.140   1.989  3.4194  2.2187 -0.4184
13081TIP3    H260735   5.888   0.126   2.129 -1.2307  1.7684 -2.1298
13082TIP3   OH260736   3.802   2.450   2.955 -0.0927 -0.1369 -0.9825
13082TIP3    H160737   3.816   2.391   2.882  1.8079 -0.1117 -0.6742
13082TIP3    H260738   3.853   2.528   2.934  1.7119 -0.6875  0.9767
13083TIP3   OH260739   2.066   3.364  14.500 -0.0608  0.0381  0.2563
13083TIP3    H160740   2.032   3.293  14.445  0.4453  0.2285 -0.3129
13083TIP3    H260741   2.066   3.328  14.588 -1.1576 -0.1775  0.1787
13084TIP3   OH260742   5.758   3.746   4.985  0.2877  0.1952 -0.1747
13084TIP3    H160743   5.834   3.800   4.964  1.3698 -0.4988  1.7093
13084TIP3    H260744   5.784   3.657   4.959 -0.1285  0.0509 -0.0996
13085TIP3   OH260745   0.956   2.596  12.865 -0.1187  0.0390  0.0155
13085TIP3    H160746   1.009   2.520  12.841 -1.2003  0.2118 -3.5689
13085TIP3    H260747   0.866   2.565  12.860 -0.5177  1.0433  0.6717
13086TIP3   OH260748   0.855   6.036  13.486  0.5355  0.4180  0.3860
13086TIP3    H160749   0.944   6.045  13.519  1.3689 -2.0481 -0.9537
13086TIP3    H260750   0.849   6.101  13.416  1.2210  0.6768  0.5587
13087TIP3   OH260751   6.827   1.882  16.650  0.5199  0.5542 -0.0163
13087TIP3    H160752   6.737   1.887  16.682  0.1483  1.7912 -1.1624
13087TIP3    H260753   6.825   1.925  16.565  1.9860 -0.3718 -0.5655
13088TIP3   OH260754   1.148   1.873  12.693 -0.7991  0.1381 -0.5544
13088TIP3    H160755   1.227   1.820  12.699 -1.1572 -0.4283 -0.7433
13088TIP3    H260756   1.126   1.874  12.599 -0.9018  0.4608 -0.5293
13089TIP3   OH260757   5.461   0.271  10.060 -0.1388  0.2509 -0.3607
13089TIP3    H160758   5.500   0.351  10.023  0.7378  0.7049  1.4541
13089TIP3    H260759   5.522   0.243  10.128 -2.2501  0.1607  1.6148
13090TIP3   OH260760   0.528   4.569  16.366 -0.1473  0.0127 -0.4690
13090TIP3    H160761   0.461   4.613  16.417 -1.0130 -1.5325 -0.1986
13090TIP3    H260762   0.556   4.633  16.301  0.3604  1.7471  1.3495
13091TIP3   OH260763   0.776   1.738   2.383 -0.3540 -0.2999 -0.1017
13091TIP3    H160764   0.781   1.655   2.430 -1.7263 -1.8894 -2.5577
13091TIP3    H260765   0.699   1.782   2.420  0.1750 -0.2575  0.9738
13092TIP3   OH260766   3.613   2.676  14.896 -0.0617 -0.4241 -0.2962
13092TIP3    H160767   3.603   2.736  14.969  0.3093 -2.6515  1.7015
13092TIP3    H260768   3.687   2.620  14.920  1.3889 -0.0163 -3.3249
13093TIP3   OH260769   0.758   5.799  13.367  0.1103  0.1231  0.6178
13093TIP3    H160770   0.781   5.866  13.431 -2.2973  0.4086  1.2741
13093TIP3    H260771   0.713   5.732  13.417 -0.0867 -0.5941 -0.4824
13094TIP3   OH260772   3.819   4.695  12.056  0.0700 -0.0413  0.0022
13094TIP3    H160773   3.783   4.679  12.144  0.5738 -1.9763 -0.1020
13094TIP3    H260774   3.743   4.719  12.003 -0.4754 -0.3931  0.6173
13095TIP3   OH260775   4.258   4.022  12.296  0.0164  0.3290  0.0050
13095TIP3    H160776   4.260   4.118  12.298  2.0538  0.3346 -0.2537
13095TIP3    H260777   4.243   3.996  12.387  1.3863  0.9138  0.4244
13096TIP3   OH260778   3.510   0.235   0.260  0.3181 -0.0556  0.1516
13096TIP3    H160779   3.551   0.186   0.331 -1.3189  1.7252  2.4549
13096TIP3    H260780   3.553   0.320   0.261 -1.4410  0.8585  0.7358
13097TIP3   OH260781   6.472   0.964  13.544 -0.2343  0.1500  0.0913
13097TIP3    H160782   6.432   0.883  13.511  1.1232 -0.9851  1.1068
13097TIP3    H260783   6.448   1.030  13.480 -1.1970 -1.1073 -0.9010
13098TIP3   OH260784   2.811   0.314  14.165 -0.8758 -0.1308  0.3322
13098TIP3    H160785   2.891   0.261  14.172 -1.4025 -1.1618 -1.0068
13098TIP3    H260786   2.838   0.392  14.117 -0.4991 -0.0610  0.6479
13099TIP3   OH260787   6.029   0.109  11.619 -0.3082  0.1954  0.5985
13099TIP3    H160788   6.045   0.029  11.670  0.5899 -1.2885 -1.8435
13099TIP3    H260789   6.115   0.136  11.588 -0.7195  1.6258  0.6253
13100TIP3   OH260790   1.426   1.470  11.998 -0.4109 -0.1125 -0.0132
13100TIP3    H160791   1.495   1.416  12.038 -1.0751 -0.1586  1.1396
13100TIP3    H260792   1.398   1.529  12.068 -2.2692 -0.8155 -0.0893
13101TIP3   OH260793   5.435   3.186   2.416 -0.3425  0.4563 -0.2988
13101TIP3    H160794   5.410   3.152   2.502 -2.1072  0.2476 -0.8496
13101TIP3    H260795   5.498   3.256   2.435  1.9925 -1.8088  0.9643
13102TIP3   OH260796   2.693   0.924  12.953  0.5541 -0.1545  0.3245
13102TIP3    H160797   2.755   0.994  12.934  1.1873 -0.0251  2.6339
13102TIP3    H260798   2.625   0.933  12.886  2.2959  0.5509 -1.4261
13103TIP3   OH260799   1.665   6.803  12.327 -0.3307 -0.2634  0.3070
13103TIP3    H160800   1.645   6.884  12.280  1.5272  0.9549  1.4965
13103TIP3    H260801   1.751   6.817  12.365 -0.0724 -2.7076  0.8311
13104TIP3   OH260802   0.314   0.069  14.439 -0.1517  0.7310  0.1726
13104TIP3    H160803   0.328  -0.021  14.409  1.2219  1.2296 -0.7533
13104TIP3    H260804   0.268   0.059  14.522  1.0001 -0.8940  0.6722
13105TIP3   OH260805   0.554   2.837  13.283  0.4267 -0.8656  0.2310
13105TIP3    H160806   0.564   2.928  13.308 -0.3266 -0.4677 -0.8601
13105TIP3    H260807   0.643   2.804  13.277  0.9542  0.8038 -2.9121
13106TIP3   OH260808   6.546   2.181   1.678 -0.2457  0.0855  0.1112
13106TIP3    H160809   6.573   2.253   1.736  1.7780 -0.4450 -0.1059
13106TIP3    H260810   6.627   2.134   1.658 -1.6782 -3.6082  1.9571
13107TIP3   OH260811   2.392   0.583   1.008 -0.4122  0.3314  0.0090
13107TIP3    H160812   2.481   0.604   1.036 -0.0073 -0.0272 -0.9445
13107TIP3    H260813   2.403   0.518   0.938 -1.4363  0.0945  0.0399
13108TIP3   OH260814   1.059   5.997  15.636 -0.0655 -0.0634  0.0938
13108TIP3    H160815   0.996   5.950  15.691  1.0860 -3.1523 -0.9953
13108TIP3    H260816   1.138   5.944  15.641  0.8603  0.9268 -2.5352
13109TIP3   OH260817   4.572   6.393  11.293  0.3180 -0.6325 -0.3258
13109TIP3    H160818   4.602   6.353  11.375  0.7243  0.2720 -0.0245
13109TIP3    H260819   4.583   6.324  11.227  2.6353 -0.5171 -0.1362
13110TIP3   OH260820   3.176   2.597   5.006 -0.0198 -0.4956 -0.1432
13110TIP3    H160821   3.095   2.634   4.971 -1.3093 -3.1575 -0.2139
13110TIP3    H260822   3.148   2.547   5.083  1.8819  0.1082  1.0173
13111TIP3   OH260823   5.751   1.703  10.877 -0.2536  0.3955  0.1010
13111TIP3    H160824   5.725   1.614  10.901  1.4843  0.7411  4.0165
13111TIP3    H260825   5.703   1.759  10.938 -0.8186  2.1556 -1.8527
13112TIP3   OH260826   4.835   1.073  14.409  1.0943 -0.2993  0.0203
13112TIP3    H160827   4.813   0.995  14.358  1.5468 -0.8647  0.6942
13112TIP3    H260828   4.779   1.068  14.487  0.6476  0.3954 -0.2357
13113TIP3   OH260829   4.178   0.002  13.039 -0.1023 -0.0669 -0.4486
13113TIP3    H160830   4.188   0.033  13.129 -1.1398  0.1223 -0.3924
13113TIP3    H260831   4.175  -0.093  13.047  0.1105 -0.0637 -0.3181
13114TIP3   OH260832   5.054   1.796   1.023  0.0012 -0.3813  0.5608
13114TIP3    H160833   4.976   1.740   1.027  0.5759 -1.1559  2.5678
13114TIP3    H260834   5.085   1.788   0.933 -1.1337 -1.6267  0.2374
13115TIP3   OH260835   5.599   4.204   0.130  0.0549  0.1583 -0.1283
13115TIP3    H160836   5.680   4.255   0.133 -1.0088  2.0677 -1.6385
13115TIP3    H260837   5.628   4.113   0.139  2.5421  0.6339 -2.1156
13116TIP3   OH260838   3.383   5.306   5.117  0.7981  0.2131 -0.3621
13116TIP3    H160839   3.427   5.335   5.037  1.8287  0.9013  0.4118
13116TIP3    H260840   3.434   5.231   5.146 -0.9540 -1.5108 -1.5437
13117TIP3   OH260841   1.836   2.693   4.755 -0.0126  0.1106 -0.4978
13117TIP3    H160842   1.896   2.764   4.733 -1.1183  0.5310 -2.2805
13117TIP3    H260843   1.881   2.613   4.725 -0.8268  0.5346 -3.0733
13118TIP3   OH260844   5.226   2.101  13.913  0.1151 -0.9383 -0.0264
13118TIP3    H160845   5.169   2.033  13.876 -1.4571 -0.5440  1.5232
13118TIP3    H260846   5.308   2.056  13.930  0.1102 -1.6899 -1.7552
13119TIP3   OH260847   6.444   5.000   0.334  0.4776 -0.4268  0.0768
13119TIP3    H160848   6.510   5.019   0.401  1.6662 -1.1787 -0.8397
13119TIP3    H260849   6.360   5.009   0.379  1.2087  0.3383  1.3304
13120TIP3   OH260850   0.187   1.861   5.120 -0.1720  0.2313 -0.3586
13120TIP3    H160851   0.235   1.788   5.159 -0.6561  0.1003 -0.0018
13120TIP3    H260852   0.207   1.936   5.177 -0.3104  0.1999 -0.2692
13121TIP3   OH260853   1.059   5.231   1.766  0.1863 -0.4235  0.0739
13121TIP3    H160854   1.061   5.138   1.740 -1.3493 -0.1673 -1.1169
13121TIP3    H260855   1.151   5.257   1.768  0.5925 -1.6813 -0.7400
13122TIP3   OH260856   4.096   2.974  11.430 -0.0543  0.2722  0.1182
13122TIP3    H160857   4.019   2.974  11.373 -1.9928 -0.5918  2.5639
13122TIP3    H260858   4.106   3.065  11.457  0.6269  0.6154 -1.2278
13123TIP3   OH260859   1.193   0.765   0.930  0.0728  0.1686 -0.4700
13123TIP3    H160860   1.130   0.751   1.001  2.5442  2.0923  2.3678
13123TIP3    H260861   1.211   0.678   0.896  0.2194 -1.1593  2.6865
13124TIP3   OH260862   0.807   4.603  11.203 -0.1028 -0.5373  0.5860
13124TIP3    H160863   0.805   4.652  11.285  1.8172 -0.0854  0.4091
13124TIP3    H260864   0.837   4.516  11.227 -1.6396 -1.0900  0.6258
13125TIP3   OH260865   3.175   2.583   0.566 -0.7221 -0.8159  0.0306
13125TIP3    H160866   3.229   2.621   0.635 -1.6992  0.4810  0.1232
13125TIP3    H260867   3.094   2.634   0.569 -1.8156 -2.4523 -0.3427
13126TIP3   OH260868   5.388   3.920   1.768 -0.2639  0.1309  0.1122
13126TIP3    H160869   5.343   3.956   1.691 -0.0975 -0.5920 -0.3331
13126TIP3    H260870   5.373   3.985   1.837  1.9493  2.2032 -1.2313
13127TIP3   OH260871   4.733   1.069   3.300 -0.0812 -0.2101 -0.1384
13127TIP3    H160872   4.823   1.092   3.276 -0.0380 -0.3242 -0.0918
13127TIP3    H260873   4.688   1.152   3.312 -0.3726 -0.1399 -1.5774
13128TIP3   OH260874   0.409   0.457   5.012 -0.8150  0.6929 -0.2461
13128TIP3    H160875   0.364   0.540   5.027 -1.5274  0.4852 -1.2008
13128TIP3    H260876   0.407   0.444   4.918  1.4326  0.7589 -0.3609
13129TIP3   OH260877   3.771   1.513  16.975 -0.1378  0.6774 -0.4056
13129TIP3    H160878   3.834   1.447  16.946  0.4702  1.6325 -1.3891
13129TIP3    H260879   3.730   1.543  16.894  1.0860  2.9373 -0.2790
13130TIP3   OH260880   4.017   3.155  16.837 -0.3192 -0.3774  0.0457
13130TIP3    H160881   3.961   3.192  16.905 -0.6862  0.7647 -0.8331
13130TIP3    H260882   3.978   3.187  16.755  0.2051 -1.5820 -0.6893
13131TIP3   OH260883   0.664   2.045   3.157  0.1664 -0.0097  0.0551
13131TIP3    H160884   0.622   2.128   3.181 -0.6205 -0.2283 -0.5538
13131TIP3    H260885   0.745   2.072   3.113 -0.2475  0.4400 -0.4365
13132TIP3   OH260886   0.529   1.252  16.459 -0.1775  0.5344  0.5378
13132TIP3    H160887   0.474   1.186  16.502  0.1825 -0.6704 -0.7958
13132TIP3    H260888   0.474   1.331  16.458 -1.6234 -0.4276 -0.0645
13133TIP3   OH260889   5.159   1.045   1.869  0.0334 -0.2989 -0.0161
13133TIP3    H160890   5.067   1.026   1.852 -0.3244  0.8764  0.5148
13133TIP3    H260891   5.207   0.989   1.808 -1.0645  0.0276 -1.2143
13134TIP3   OH260892   3.978   0.964   6.607 -0.0247 -0.7250 -0.3524
13134TIP3    H160893   4.063   0.976   6.649  0.1332  0.0871 -0.8757
13134TIP3    H260894   3.998   0.967   6.513 -0.5605 -1.0781 -0.4786
13135TIP3   OH260895   6.691   5.341   5.933 -0.0495 -0.3453  0.1019
13135TIP3    H160896   6.720   5.431   5.916  2.5188 -0.6884  2.1039
13135TIP3    H260897   6.608   5.333   5.885  0.8742  2.2746 -2.1559
13136TIP3   OH260898   2.915   6.261  12.438  0.0245 -0.1027 -0.1148
13136TIP3    H160899   2.851   6.330  12.453  0.6796  0.2723  1.1722
13136TIP3    H260900   2.900   6.199  12.509  1.2070  0.1166  0.3588
13137TIP3   OH260901   4.415   5.058  12.357 -0.3895 -0.2466 -0.2465
13137TIP3    H160902   4.368   4.975  12.348  1.1032 -1.1219 -0.2901
13137TIP3    H260903   4.495   5.046  12.305  1.0983  0.2321  1.8032
13138TIP3   OH260904   5.387   5.140  14.318  0.5374  0.0561 -0.2060
13138TIP3    H160905   5.380   5.055  14.275 -1.2225  0.2264 -0.3036
13138TIP3    H260906   5.440   5.193  14.258 -0.5375 -0.1949 -1.4201
13139TIP3   OH260907   3.480   0.131  16.157 -0.6216  0.2214 -0.1118
13139TIP3    H160908   3.434   0.172  16.083 -0.7064  0.6245  0.1566
13139TIP3    H260909   3.562   0.100  16.120  0.2948  2.2932  0.0347
13140TIP3   OH260910   4.415   3.116  12.973 -0.1080 -0.5726  0.0042
13140TIP3    H160911   4.467   3.062  12.915 -0.1116 -0.4387 -0.1246
13140TIP3    H260912   4.324   3.095  12.952 -0.1498  0.8223 -1.3422
13141TIP3   OH260913   6.085   1.766   5.329  0.6647 -0.1492 -0.3503
13141TIP3    H160914   6.001   1.742   5.367  0.4336 -0.6654 -1.1431
13141TIP3    H260915   6.095   1.707   5.254  0.5353  1.5705 -1.8098
13142TIP3   OH260916   2.752   5.884  10.457  0.0841 -0.2330  0.0341
13142TIP3    H160917   2.843   5.907  10.442  0.2896 -0.3349  1.1090
13142TIP3    H260918   2.725   5.938  10.531 -0.3223 -1.2079  0.6048
13143TIP3   OH260919   0.865   3.978  15.563 -0.7836 -0.2170  0.2695
13143TIP3    H160920   0.888   4.001  15.653 -1.1748 -0.3037  0.3927
13143TIP3    H260921   0.865   3.882  15.562  0.1062 -0.2215 -0.0525
13144TIP3   OH260922   2.067   2.676   1.818  0.4199  0.5239  0.2642
13144TIP3    H160923   2.122   2.603   1.846 -1.1140 -0.4795  0.7960
13144TIP3    H260924   2.106   2.753   1.860  0.3466 -0.4321  2.2055
13145TIP3   OH260925   3.545   2.859  16.830 -0.1584  0.7893  0.5142
13145TIP3    H160926   3.570   2.868  16.922 -1.0380  0.1607  0.8334
13145TIP3    H260927   3.564   2.767  16.809  1.1772  1.2307 -0.3022
13146TIP3   OH260928   3.640   4.754  11.058 -0.3602  0.0465 -0.5025
13146TIP3    H160929   3.566   4.792  11.011 -0.8424 -0.2936 -0.0315
13146TIP3    H260930   3.710   4.748  10.993 -0.7949  0.2218 -0.9887
13147TIP3   OH260931   5.241   4.963   2.901  0.6396  0.1605 -0.2674
13147TIP3    H160932   5.249   4.983   2.807  2.7200 -1.0841 -0.4086
13147TIP3    H260933   5.244   4.867   2.905 -0.0056  0.1727  1.0568
13148TIP3   OH260934   1.183   2.564   2.706  0.7281  0.2132  0.2296
13148TIP3    H160935   1.192   2.630   2.775 -0.4541  0.4538  0.1844
13148TIP3    H260936   1.165   2.615   2.627 -0.9501 -0.1617  0.3360
13149TIP3   OH260937   1.690   2.936  12.403  0.4892 -0.7936 -0.7341
13149TIP3    H160938   1.710   2.913  12.493  2.1322 -0.0001 -0.8586
13149TIP3    H260939   1.672   3.030  12.405 -0.9475 -1.0453 -1.0191
13150TIP3   OH260940   6.466   0.635   0.965  0.7882  0.6776  0.8322
13150TIP3    H160941   6.459   0.698   0.893  1.4811  0.3192  0.4486
13150TIP3    H260942   6.409   0.563   0.939 -0.7315  1.5144  1.6915
13151TIP3   OH260943   5.211   4.021   1.241  0.3516  0.1688  0.2741
13151TIP3    H160944   5.279   4.022   1.308 -0.0040 -1.9495  0.7330
13151TIP3    H260945   5.129   4.017   1.290  0.0744 -1.1703 -0.2567
13152TIP3   OH260946   0.898   0.782  10.900  0.2433 -0.0192  0.2686
13152TIP3    H160947   0.913   0.820  10.813 -0.2338  1.4568  0.8062
13152TIP3    H260948   0.875   0.691  10.882  0.7963  0.0793 -1.1071
13153TIP3   OH260949   3.575   5.530   2.165 -0.0433  0.1250 -0.0626
13153TIP3    H160950   3.486   5.495   2.170  0.1992 -0.3734  1.8523
13153TIP3    H260951   3.620   5.473   2.103 -1.6001  1.8474 -3.0079
13154TIP3   OH260952   1.512   5.690   5.556 -0.4119  0.1978 -0.0919
13154TIP3    H160953   1.591   5.650   5.592  0.2871  1.9360  0.4063
13154TIP3    H260954   1.459   5.616   5.526  1.7561 -0.9936 -1.2188
13155TIP3   OH260955   1.537   2.310   1.889 -0.4615 -0.3471 -0.1825
13155TIP3    H160956   1.614   2.258   1.910 -0.8145 -0.6935  0.3032
13155TIP3    H260957   1.533   2.376   1.958 -0.2980  0.0089 -0.5116
13156TIP3   OH260958   0.484   2.988   4.803  0.2310  0.0523 -0.2816
13156TIP3    H160959   0.425   2.915   4.785 -0.4070 -0.0927  2.1048
13156TIP3    H260960   0.464   3.013   4.893  1.5421  2.1577 -0.5169
13157TIP3   OH260961   6.367   1.146   3.678  0.2235 -0.1775  1.2483
13157TIP3    H160962   6.343   1.161   3.587  2.0280  1.0041  0.9046
13157TIP3    H260963   6.402   1.057   3.680  2.2295  0.5270  0.2462
13158TIP3   OH260964   6.060   6.311   5.986 -0.0561 -0.5218  0.1091
13158TIP3    H160965   5.998   6.312   5.913  0.2070  2.7764 -0.2380
13158TIP3    H260966   6.011   6.274   6.059 -0.9675 -2.0295 -1.2215
13159TIP3   OH260967   2.254   6.127  13.207 -0.2657 -0.2528 -0.1507
13159TIP3    H160968   2.163   6.132  13.234 -0.3614  0.4151 -0.5749
13159TIP3    H260969   2.304   6.164  13.280 -0.5309  1.6766 -0.8782
13160TIP3   OH260970   2.674   0.400   3.020  0.1891  0.1457  0.0224
13160TIP3    H160971   2.616   0.476   3.017 -0.6813 -0.4642  0.6398
13160TIP3    H260972   2.615   0.326   3.034  0.9681 -0.7051 -0.9535
13161TIP3   OH260973   0.874   5.613   6.565  0.3577  0.8953 -1.0504
13161TIP3    H160974   0.843   5.561   6.491  1.5254  0.2588 -1.1172
13161TIP3    H260975   0.800   5.669   6.587 -0.4852  0.1257 -1.8153
13162TIP3   OH260976   6.555   5.418   3.537 -0.0833 -0.4531 -0.1785
13162TIP3    H160977   6.547   5.375   3.452 -0.9130 -1.4932  0.4076
13162TIP3    H260978   6.507   5.500   3.527  1.2051  0.2243 -1.1907
13163TIP3   OH260979   0.099   0.299  15.387 -0.1514  0.4310  0.1652
13163TIP3    H160980   0.039   0.260  15.324  0.0884 -0.4929  0.4928
13163TIP3    H260981   0.068   0.389  15.397 -0.8816  0.2518 -0.4014
13164TIP3   OH260982   5.216   4.238  13.502 -0.1118  0.1984 -0.0681
13164TIP3    H160983   5.160   4.218  13.577 -0.4783  0.5765 -0.2365
13164TIP3    H260984   5.272   4.309  13.531  0.7646 -0.6300  0.3255
13165TIP3   OH260985   6.563   2.685  14.963  0.5117 -0.2092  0.0637
13165TIP3    H160986   6.643   2.706  15.010  0.6356  0.6379 -0.5003
13165TIP3    H260987   6.532   2.769  14.930 -1.3921 -0.2794  1.4707
13166TIP3   OH260988   5.359   2.865   1.933  0.1879  0.2472 -0.4891
13166TIP3    H160989   5.359   2.896   2.024 -0.1364  0.4281 -0.5479
13166TIP3    H260990   5.273   2.823   1.922  0.6130 -0.6677 -0.4174
13167TIP3   OH260991   0.158   5.726   4.594  0.1612  0.2313 -0.4404
13167TIP3    H160992   0.152   5.727   4.498 -0.1253  1.5443 -0.4280
13167TIP3    H260993   0.119   5.643   4.620 -0.2502  0.0981 -1.4349
13168TIP3   OH260994   0.215   4.990  13.585  0.3300 -0.5477 -0.0083
13168TIP3    H160995   0.194   4.922  13.521  0.2272  0.2164 -0.8008
13168TIP3    H260996   0.259   5.058  13.534 -1.6579  1.0512  0.2807
13169TIP3   OH260997   4.632   0.823   3.995  0.3047 -0.0679  1.0878
13169TIP3    H160998   4.601   0.752   4.051 -0.8707 -0.6348 -0.2252
13169TIP3    H260999   4.600   0.800   3.908  1.3321  1.2385  0.3374
13170TIP3   OH261000   5.354   5.087  10.583  0.0260  0.3547 -0.4422
13170TIP3    H161001   5.274   5.138  10.576  0.9976  1.9052 -0.8900
13170TIP3    H261002   5.325   4.998  10.603 -1.9082  0.3955 -2.6357
13171TIP3   OH261003   3.243   5.923  16.678  0.4364 -0.1074  0.6912
13171TIP3    H161004   3.202   5.878  16.604  0.8156 -1.5042  1.2956
13171TIP3    H261005   3.173   5.931  16.743 -0.1382  1.9081 -0.0972
13172TIP3   OH261006   4.593   3.825  12.138  0.1164 -0.2763  0.0610
13172TIP3    H161007   4.574   3.909  12.096 -0.7327 -0.3042  0.3763
13172TIP3    H261008   4.512   3.775  12.130  0.1054 -0.4817  1.2422
13173TIP3   OH261009   5.292   4.652   4.706 -0.1549  0.3786 -0.4857
13173TIP3    H161010   5.281   4.557   4.710 -1.3698  0.3268 -2.9339
13173TIP3    H261011   5.214   4.688   4.749  0.4401  0.2883  0.6846
13174TIP3   OH261012   4.889   3.738  15.404 -0.1279  0.5225  0.4315
13174TIP3    H161013   4.806   3.779  15.380 -0.2433 -0.6212 -1.3400
13174TIP3    H261014   4.951   3.766  15.336  0.2620 -0.6224  0.2773
13175TIP3   OH261015   6.212   4.930  13.262 -0.4504  0.0038  0.7782
13175TIP3    H161016   6.152   4.880  13.207  0.5217 -0.8293  0.4427
13175TIP3    H261017   6.210   5.018  13.224  0.3095 -0.5881 -0.7362
13176TIP3   OH261018   6.528   0.639   2.544 -0.1684 -0.2801 -0.2550
13176TIP3    H161019   6.577   0.593   2.613 -1.4019 -0.9750  0.1773
13176TIP3    H261020   6.446   0.665   2.587  0.6034  2.6869 -0.3501
13177TIP3   OH261021   6.036   2.781   2.653 -0.3377  0.6618  0.3916
13177TIP3    H161022   6.122   2.806   2.619 -1.2303  2.3984 -0.7569
13177TIP3    H261023   5.991   2.744   2.577 -1.1975  1.4455  0.5066
13178TIP3   OH261024   3.214   0.898  13.737 -0.2451  0.2386 -0.4143
13178TIP3    H161025   3.267   0.842  13.680 -0.7545 -0.7890  0.1092
13178TIP3    H261026   3.245   0.879  13.825 -0.2040  1.0306 -0.2492
13179TIP3   OH261027   0.901   4.471  11.989 -0.3370 -0.4304 -0.2262
13179TIP3    H161028   0.980   4.466  11.935 -0.0877 -0.1807  0.1087
13179TIP3    H261029   0.859   4.553  11.963 -0.7391 -0.7960 -0.7420
13180TIP3   OH261030   6.378   6.620   0.481 -0.1329  0.1464  0.1845
13180TIP3    H161031   6.284   6.628   0.490 -0.3377 -0.8741 -0.7524
13180TIP3    H261032   6.395   6.638   0.388  0.6425  0.6670  0.4145
13181TIP3   OH261033   4.708   4.463  17.022  0.0027 -0.4375  0.4602
13181TIP3    H161034   4.643   4.477  17.091 -0.5077 -1.1526  0.1336
13181TIP3    H261035   4.657   4.434  16.947  0.8922 -3.4909  0.9147
13182TIP3   OH261036   2.513   3.950   0.603 -0.0934  0.1220 -0.1384
13182TIP3    H161037   2.557   3.875   0.644 -0.0257  1.1637  1.8045
13182TIP3    H261038   2.447   3.977   0.667 -2.2817 -0.1487 -2.1235
13183TIP3   OH261039   4.046   0.068  12.356 -0.1038 -0.2260 -0.6951
13183TIP3    H161040   4.087   0.024  12.431 -1.3866 -1.9498 -0.9215
13183TIP3    H261041   4.021   0.154  12.389  0.1459 -0.6293  0.6145
13184TIP3   OH261042   2.749   2.324   0.174  0.2595 -0.4440 -0.0781
13184TIP3    H161043   2.812   2.353   0.240  0.1496 -0.4003  0.0087
13184TIP3    H261044   2.687   2.397   0.168  0.2395 -0.4702 -0.1917
13185TIP3   OH261045   5.391   4.004   2.732  0.2664  0.2120  0.1189
13185TIP3    H161046   5.444   4.016   2.653  0.2971 -0.2125  0.0742
13185TIP3    H261047   5.448   4.030   2.804  0.8420 -1.0772  0.1457
13186TIP3   OH261048   6.419   5.661  12.307  0.9482 -0.1914 -0.5832
13186TIP3    H161049   6.390   5.694  12.222 -0.7175 -1.3009 -0.5041
13186TIP3    H261050   6.423   5.566  12.296  1.0017 -0.3286  0.4947
13187TIP3   OH261051   0.232   3.661  16.992 -0.5003  0.0406  0.5399
13187TIP3    H161052   0.161   3.684  17.051 -2.1576 -0.4696 -1.1794
13187TIP3    H261053   0.290   3.737  16.993 -0.5274  0.0969  2.6617
13188TIP3   OH261054   1.595   3.960  13.057 -0.0336  0.2653 -0.0277
13188TIP3    H161055   1.507   3.996  13.068 -0.3912 -0.4201 -0.5539
13188TIP3    H261056   1.653   4.023  13.100 -0.6570  1.3720 -0.7873
13189TIP3   OH261057   2.863   6.345  17.061  0.4112 -0.1742  0.3744
13189TIP3    H161058   2.892   6.411  17.125 -0.2479  1.3740 -0.8471
13189TIP3    H261059   2.768   6.343  17.071  0.2900  0.1966 -0.6525
13190TIP3   OH261060   3.377   3.694   6.197 -0.1042 -0.2238 -0.4946
13190TIP3    H161061   3.309   3.668   6.259 -2.4097 -0.3006 -2.8702
13190TIP3    H261062   3.406   3.612   6.157 -0.3830  0.0149 -1.1976
13191TIP3   OH261063   2.000   1.883   0.523  0.0698  0.3300  0.1169
13191TIP3    H161064   1.949   1.928   0.591  1.1711 -0.1274  1.2810
13191TIP3    H261065   2.043   1.811   0.569  0.8075 -0.0256 -1.0840
13192TIP3   OH261066   4.874   3.907   0.224 -0.5117 -0.1425  0.1975
13192TIP3    H161067   4.784   3.930   0.201 -0.8445 -1.0706  0.5303
13192TIP3    H261068   4.886   3.820   0.187  0.5852  0.3598 -0.6926
13193TIP3   OH261069   0.663   5.039  14.012  0.5743 -0.1359 -0.1571
13193TIP3    H161070   0.704   5.063  14.095 -0.0036  0.3704 -0.0077
13193TIP3    H261071   0.569   5.036  14.032  0.4191  0.1289 -0.8213
13194TIP3   OH261072   3.667   5.570  10.828  0.6311 -0.6930  0.4247
13194TIP3    H161073   3.610   5.642  10.801  0.9207  0.1552  1.9709
13194TIP3    H261074   3.645   5.499  10.768  0.3470  0.6663 -1.1581
13195TIP3   OH261075   2.784   1.758   4.956 -0.5961  1.1329 -0.2984
13195TIP3    H161076   2.739   1.738   5.038  0.2684  1.6060  0.3055
13195TIP3    H261077   2.732   1.828   4.916 -0.2336  1.9137  0.5559
13196TIP3   OH261078   6.688   1.008   1.458 -0.3251 -0.2378 -0.3702
13196TIP3    H161079   6.767   1.036   1.412  0.5624  2.3517  2.4169
13196TIP3    H261080   6.711   1.012   1.551 -3.9043  1.4319  0.6393
13197TIP3   OH261081   1.777   3.809  12.675  0.6143  0.5216 -0.2129
13197TIP3    H161082   1.825   3.892  12.669  0.7550  0.3932 -0.9769
13197TIP3    H261083   1.837   3.749  12.720  0.7690  0.6469 -0.2534
13198TIP3   OH261084   6.092   3.895  14.274 -0.2097 -0.0774 -0.4541
13198TIP3    H161085   6.011   3.872  14.227 -0.9995 -2.9263  1.9894
13198TIP3    H261086   6.063   3.910  14.364  1.9488 -1.1321  0.4731
13199TIP3   OH261087   5.081   1.414   2.061 -0.7176  0.2376  0.1727
13199TIP3    H161088   5.170   1.379   2.053 -0.5483  0.6018  0.4244
13199TIP3    H261089   5.028   1.357   2.006  0.0939  1.5648 -2.1482
13200TIP3   OH261090   1.379   2.811   5.938  0.4462  0.3377 -0.0845
13200TIP3    H161091   1.360   2.864   6.015 -3.5910  0.1978 -0.8111
13200TIP3    H261092   1.390   2.874   5.867 -1.4197  0.3652 -0.3873
13201TIP3   OH261093   0.574   1.616   4.845 -0.2976 -0.4003  0.0617
13201TIP3    H161094   0.556   1.606   4.751 -1.8825 -2.8607  0.5211
13201TIP3    H261095   0.668   1.598   4.853  0.0745  0.8393 -1.1209
13202TIP3   OH261096   4.673   4.385  12.283 -0.7843 -0.2803 -0.2484
13202TIP3    H161097   4.606   4.322  12.309 -0.2909 -0.4729  0.5864
13202TIP3    H261098   4.669   4.385  12.187 -1.7967 -0.4757 -0.2182
13203TIP3   OH261099   1.961   1.591   6.576 -0.0608  0.1518  0.4908
13203TIP3    H161100   1.999   1.521   6.629  0.0341  1.3665  2.0997
13203TIP3    H261101   1.976   1.671   6.627 -0.8631  1.2454 -0.9173
13204TIP3   OH261102   0.522   0.235   5.656 -0.1169 -0.0121  0.5082
13204TIP3    H161103   0.557   0.257   5.570 -1.0979  0.1520  0.1402
13204TIP3    H261104   0.528   0.318   5.705 -0.6321  0.1913  0.2264
13205TIP3   OH261105   3.956   5.324  11.979  0.5312  0.3070  0.6856
13205TIP3    H161106   3.898   5.384  11.932 -0.3015 -0.6724  0.4238
13205TIP3    H261107   4.040   5.332  11.934 -0.2208 -0.5598 -0.9842
13206TIP3   OH261108   5.593   2.901  15.845 -0.2766  0.1473 -0.9859
13206TIP3    H161109   5.599   2.994  15.823  1.6268  0.3469  0.1768
13206TIP3    H261110   5.517   2.870  15.796 -1.3192  2.4358 -0.9321
13207TIP3   OH261111   5.545   1.025  12.879 -0.0208  0.2511  0.5901
13207TIP3    H161112   5.573   0.990  12.795 -3.7935 -1.2810 -0.2148
13207TIP3    H261113   5.598   0.979  12.943  2.0261  0.4970 -0.8128
13208TIP3   OH261114   6.327   5.655  14.310  0.6654  0.1105 -0.1333
13208TIP3    H161115   6.372   5.579  14.347 -0.8915  0.5247  2.9963
13208TIP3    H261116   6.368   5.730  14.353 -2.0752  0.5479  2.0546
13209TIP3   OH261117   1.137   3.967   2.773  0.4227 -0.2580  0.8626
13209TIP3    H161118   1.054   4.015   2.765  0.0738 -0.4088  2.9428
13209TIP3    H261119   1.114   3.888   2.823  1.4085 -1.5018 -0.5655
13210TIP3   OH261120   5.375   2.860  13.052 -0.0557  0.4370 -0.0554
13210TIP3    H161121   5.453   2.914  13.045  0.8833 -1.0884 -2.4610
13210TIP3    H261122   5.406   2.778  13.092 -0.4605 -0.0605 -0.7379
13211TIP3   OH261123   1.703   0.864  10.864  0.4893  0.1186 -0.6801
13211TIP3    H161124   1.750   0.933  10.912  0.4191  0.1116 -0.6020
13211TIP3    H261125   1.740   0.868  10.776  0.0832  0.6429 -0.8372
13212TIP3   OH261126   4.820   2.353   3.970  0.1259 -0.0993  0.1311
13212TIP3    H161127   4.800   2.433   4.017  1.8217 -0.1863  1.0621
13212TIP3    H261128   4.738   2.303   3.972 -0.1227  0.3138  2.1632
13213TIP3   OH261129   2.580   4.432   4.624  0.1103  0.4518 -1.2922
13213TIP3    H161130   2.622   4.348   4.608  0.5005  0.7734 -1.9691
13213TIP3    H261131   2.488   4.410   4.639  0.3822 -0.1914 -0.4538
13214TIP3   OH261132   1.232   4.822  13.960  0.5478 -0.3203  0.6389
13214TIP3    H161133   1.213   4.834  14.052  0.1791 -0.5558  0.5939
13214TIP3    H261134   1.209   4.906  13.919 -0.6764 -0.6880  0.5401
13215TIP3   OH261135   2.706   5.550   0.642  0.1963  0.7726  0.5000
13215TIP3    H161136   2.757   5.612   0.592 -0.1430 -1.0530 -2.3564
13215TIP3    H261137   2.770   5.488   0.677  0.2302  0.4018 -0.2032
13216TIP3   OH261138   0.211   2.499  16.168 -0.0106  0.3116  0.5368
13216TIP3    H161139   0.278   2.553  16.211  0.4761  1.2005 -1.2610
13216TIP3    H261140   0.256   2.417  16.146  0.2870  0.6185 -0.0057
13217TIP3   OH261141   4.460   0.762   2.621  0.2444 -0.1017  0.2407
13217TIP3    H161142   4.371   0.787   2.596 -0.0574 -0.5215  0.8925
13217TIP3    H261143   4.496   0.719   2.543 -0.8331 -1.7847  0.6312
13218TIP3   OH261144   3.893   1.025   6.866  0.3054 -0.2661  0.1578
13218TIP3    H161145   3.891   1.115   6.835 -0.6359 -0.3697 -0.1103
13218TIP3    H261146   3.894   0.972   6.787 -0.7497 -0.5104  0.2996
13219TIP3   OH261147   2.843   5.825   3.355  0.3903 -0.0242 -0.3100
13219TIP3    H161148   2.885   5.911   3.361  0.7018 -0.1362 -0.8301
13219TIP3    H261149   2.889   5.771   3.419 -2.9377  1.4011  3.7132
13220TIP3   OH261150   5.411   4.377  17.053  0.5772  0.0436  0.5778
13220TIP3    H161151   5.397   4.315  17.125  1.4683  0.6971  1.3406
13220TIP3    H261152   5.323   4.397  17.021  0.1957 -0.5658  1.2125
13221TIP3   OH261153   3.209   5.081   4.894 -0.0884  0.0007 -0.1843
13221TIP3    H161154   3.117   5.103   4.909  0.6798  1.9378  2.3209
13221TIP3    H261155   3.212   4.985   4.900 -2.0167 -0.1494 -1.0552
13222TIP3   OH261156   0.520   0.152   3.878 -0.6527 -0.5743  0.4028
13222TIP3    H161157   0.600   0.100   3.888 -0.9746 -1.3729 -0.9345
13222TIP3    H261158   0.496   0.177   3.968  1.7179  0.7039  0.7391
13223TIP3   OH261159   3.382   6.349  12.181  0.0150 -0.0906  0.5788
13223TIP3    H161160   3.300   6.361  12.132  1.9478  2.3665 -2.4295
13223TIP3    H261161   3.381   6.420  12.246  0.1467  0.5929 -0.1415
13224TIP3   OH261162   4.861   1.538   1.422 -0.0273 -0.1991  0.4659
13224TIP3    H161163   4.892   1.510   1.508  0.4969  0.0078  0.3502
13224TIP3    H261164   4.797   1.471   1.397  0.7900 -0.9947  0.4416
13225TIP3   OH261165   4.804   3.447   2.905 -0.0758  0.0148 -0.0193
13225TIP3    H161166   4.813   3.510   2.976  4.1339  1.5612 -1.5897
13225TIP3    H261167   4.821   3.498   2.825  3.0343 -2.8363 -1.4320
13226TIP3   OH261168   0.019   2.595   1.926 -0.0803 -0.3187  0.0940
13226TIP3    H161169  -0.071   2.603   1.956  0.0480  1.3482  0.1136
13226TIP3    H261170   0.063   2.672   1.962  1.5062 -1.4084  0.5897
13227TIP3   OH261171   4.883   6.134   0.767  0.2957  0.0593 -0.3828
13227TIP3    H161172   4.820   6.070   0.801  1.3840 -0.8401 -0.0092
13227TIP3    H261173   4.856   6.217   0.806  0.6731 -0.7025  1.6302
13228TIP3   OH261174   3.128   5.362   3.427 -0.1621  0.3276  0.0852
13228TIP3    H161175   3.223   5.376   3.421  0.2814 -1.2840  2.1747
13228TIP3    H261176   3.091   5.450   3.430  1.1886  0.9940 -1.3278
13229TIP3   OH261177   2.008   3.427  13.709  0.0073 -0.1184 -0.3539
13229TIP3    H161178   1.957   3.502  13.739 -2.1191 -0.9602 -1.6185
13229TIP3    H261179   2.081   3.421  13.771 -0.4095  2.2384  0.4726
13230TIP3   OH261180   2.938   3.277   4.346 -0.0373 -0.0898 -0.2383
13230TIP3    H161181   2.863   3.218   4.344 -0.3357 -0.0229  3.1852
13230TIP3    H261182   3.012   3.224   4.318 -0.7148 -1.3544  0.3016
13231TIP3   OH261183   6.310   6.808   4.287  0.3066 -0.3365  0.4819
13231TIP3    H161184   6.218   6.788   4.304  0.0593  0.3126 -0.0390
13231TIP3    H261185   6.357   6.730   4.314 -0.2065  0.0051  2.5418
13232TIP3   OH261186   3.482   3.279   0.857 -0.2575  0.6955 -0.0684
13232TIP3    H161187   3.569   3.318   0.870 -0.3378  0.3547  1.9301
13232TIP3    H261188   3.456   3.305   0.769  0.2637  4.0617  0.6122
13233TIP3   OH261189   0.833   6.735   5.404 -0.3036  0.0644 -0.6896
13233TIP3    H161190   0.815   6.828   5.418  0.9999  0.1631  0.6415
13233TIP3    H261191   0.750   6.698   5.374 -0.4664  1.9078 -2.6925
13234TIP3   OH261192   4.251   3.978   0.522 -0.5233 -0.3945  0.4003
13234TIP3    H161193   4.262   3.937   0.608  0.6905 -0.2104  0.3541
13234TIP3    H261194   4.320   3.940   0.468 -1.0173 -0.2011 -0.3801
13235TIP3   OH261195   6.080   6.591   6.035  0.1903 -0.0839  0.2926
13235TIP3    H161196   6.005   6.631   5.991  0.7337  1.6147  0.8059
13235TIP3    H261197   6.052   6.502   6.054 -1.3545  0.2256 -0.3287
13236TIP3   OH261198   2.446   5.573   0.731  0.4266  0.0072 -0.1991
13236TIP3    H161199   2.528   5.561   0.683  0.0896  0.3818 -0.8827
13236TIP3    H261200   2.378   5.563   0.665 -0.0037  1.9670 -0.1051
13237TIP3   OH261201   5.648   2.795   0.948  0.3396 -0.6377  0.2222
13237TIP3    H161202   5.710   2.863   0.923  0.3216 -0.0573  1.6826
13237TIP3    H261203   5.688   2.714   0.917 -0.0922  0.0492 -2.4500
13238TIP3   OH261204   6.336   2.769  14.605  0.4155 -0.0454  0.1053
13238TIP3    H161205   6.276   2.843  14.610 -1.1391 -1.3342  1.6134
13238TIP3    H261206   6.364   2.768  14.513 -3.1182 -0.2994 -1.1187
13239TIP3   OH261207   4.340   0.806   1.478 -0.5419 -0.4055 -0.3638
13239TIP3    H161208   4.394   0.727   1.478  2.4453  1.4539 -1.0008
13239TIP3    H261209   4.294   0.804   1.394 -0.4511 -1.3876 -0.4043
13240TIP3   OH261210   5.426   4.097  12.920  0.0172  0.6662 -0.3354
13240TIP3    H161211   5.391   4.020  12.966  1.4564  0.1009 -0.1404
13240TIP3    H261212   5.435   4.069  12.829 -0.0625  0.8171 -0.3893
13241TIP3   OH261213   2.021   5.663  14.422 -0.0132  0.2819 -0.0360
13241TIP3    H161214   1.981   5.729  14.365 -1.5006 -1.1273 -0.7109
13241TIP3    H261215   2.084   5.618  14.366 -0.8078 -0.4860 -0.3494
13242TIP3   OH261216   3.174   5.321  15.693  1.0231  0.5597  0.2471
13242TIP3    H161217   3.180   5.416  15.698  0.7141  0.5850  0.1356
13242TIP3    H261218   3.172   5.302  15.599  2.4441  0.3581  0.2316
13243TIP3   OH261219   3.315   5.275  15.154  0.0705  0.5610 -0.4246
13243TIP3    H161220   3.329   5.304  15.063 -0.2844  1.8384 -0.0853
13243TIP3    H261221   3.404   5.258  15.186  0.1515 -0.6640 -1.2409
13244TIP3   OH261222   0.601   1.195  14.014 -0.0445  0.2923 -0.4446
13244TIP3    H161223   0.554   1.255  14.072  0.9571  1.2437 -0.5966
13244TIP3    H261224   0.612   1.115  14.066 -0.7266  0.4954  0.0269
13245TIP3   OH261225   5.860   5.504  14.436 -0.3564  0.6502  0.0756
13245TIP3    H161226   5.835   5.570  14.372  1.8430 -0.0004 -1.5918
13245TIP3    H261227   5.812   5.425  14.410 -0.4109  0.7066  0.0046
13246TIP3   OH261228   4.013   3.307  12.592 -0.3665 -0.2401 -0.1959
13246TIP3    H161229   4.064   3.241  12.546 -0.1389  1.0825 -1.9632
13246TIP3    H261230   3.935   3.261  12.624  1.0170 -1.8860  0.9470
13247TIP3   OH261231   0.782   2.153   3.576  0.0256  0.1248 -0.2175
13247TIP3    H161232   0.778   2.237   3.530  0.0193  0.4133  0.3020
13247TIP3    H261233   0.807   2.090   3.509  1.3310  0.7562 -0.3538
13248TIP3   OH261234   4.143   6.585   5.704 -0.2782 -0.0858  0.3406
13248TIP3    H161235   4.124   6.672   5.739 -1.0333 -1.1933  2.9251
13248TIP3    H261236   4.231   6.565   5.733  1.5763  1.2516 -3.6277
13249TIP3   OH261237   2.963   3.358  12.932  0.0136  0.1280  0.2893
13249TIP3    H161238   2.872   3.340  12.954 -0.6353 -0.4638 -2.5208
13249TIP3    H261239   3.008   3.274  12.944 -0.1030  0.0613  0.2517
13250TIP3   OH261240   0.311   6.159   2.950 -0.4083  0.4719  0.1543
13250TIP3    H161241   0.364   6.170   2.871  2.1873  1.6682  1.8994
13250TIP3    H261242   0.224   6.136   2.918  0.6843  0.2119 -2.9904
13251TIP3   OH261243   0.594   5.654  13.530 -0.2752  0.2237  0.3002
13251TIP3    H161244   0.590   5.625  13.622  1.0670  0.7163  0.5342
13251TIP3    H261245   0.549   5.738  13.530 -0.4804  0.1159  0.4536
13252TIP3   OH261246   0.832   0.700  15.532 -0.5428  0.0128  0.0568
13252TIP3    H161247   0.865   0.620  15.573 -2.3420 -0.7634  0.0918
13252TIP3    H261248   0.746   0.675  15.497  0.2777  1.0330 -2.9461
13253TIP3   OH261249   5.964   4.889   1.969 -0.0160  0.0654 -0.0596
13253TIP3    H161250   5.927   4.825   2.029 -0.5674  0.6539  0.2401
13253TIP3    H261251   6.057   4.894   1.993 -0.1500  0.0020  0.4811
13254TIP3   OH261252   6.769   6.175  14.320 -0.4649 -0.8076  0.3814
13254TIP3    H161253   6.855   6.205  14.290  0.7136 -1.5958  2.7927
13254TIP3    H261254   6.708   6.210  14.255  1.7098 -0.8403 -1.8143
13255TIP3   OH261255   0.954   3.526   1.379 -0.3016  0.0501  0.8224
13255TIP3    H161256   0.982   3.594   1.439 -1.0648  0.7516  0.4026
13255TIP3    H261257   0.984   3.444   1.419 -1.7043  0.3931  2.7025
13256TIP3   OH261258   6.149   1.469   5.680 -0.0155  0.1943  0.8722
13256TIP3    H161259   6.197   1.549   5.657  1.7090 -1.2494 -0.8552
13256TIP3    H261260   6.171   1.454   5.772  0.0150  1.4200  1.0910
13257TIP3   OH261261   0.746   2.397   2.653  0.7128  0.2927 -0.4342
13257TIP3    H161262   0.737   2.435   2.740  1.0799 -1.3300  0.3513
13257TIP3    H261263   0.738   2.303   2.667 -0.2222  0.0554 -2.3024
13258TIP3   OH261264   3.183   2.681  14.102  0.9431  0.0953  0.2295
13258TIP3    H161265   3.277   2.669  14.113  0.8062 -0.6143  0.7681
13258TIP3    H261266   3.149   2.591  14.097  0.3158  0.3498 -0.1030
13259TIP3   OH261267   0.496   0.851   1.383  0.0183 -0.1279  0.2152
13259TIP3    H161268   0.544   0.869   1.302  2.3824  1.2007  1.8320
13259TIP3    H261269   0.477   0.937   1.420 -4.1238 -0.5176 -0.4831
13260TIP3   OH261270   3.284   5.484   4.708 -0.1886 -0.0049 -0.2746
13260TIP3    H161271   3.258   5.470   4.617  1.5852  1.0143 -0.9923
13260TIP3    H261272   3.202   5.503   4.753 -1.2745 -1.7903 -1.3680
13261TIP3   OH261273   6.729   6.372   3.626 -0.6785  0.5547 -0.1476
13261TIP3    H161274   6.747   6.295   3.680  1.3397  0.4745 -0.8505
13261TIP3    H261275   6.806   6.381   3.570 -1.6259  2.0897 -1.2860
13262TIP3   OH261276   4.369   3.386   3.056  0.7648  0.0177  0.2012
13262TIP3    H161277   4.333   3.355   2.972  0.2248 -0.5399  0.6296
13262TIP3    H261278   4.337   3.476   3.063  0.9605  0.1284 -0.2755
13263TIP3   OH261279   3.607   4.090  11.569  0.2053 -0.3346 -0.0952
13263TIP3    H161280   3.599   4.006  11.524 -0.7546 -0.5530  0.4547
13263TIP3    H261281   3.533   4.092  11.629  1.6636 -0.2242  1.7878
13264TIP3   OH261282   2.919   3.440  12.096 -0.6135 -0.2667 -0.5304
13264TIP3    H161283   2.891   3.359  12.053  2.4347 -0.6050 -2.1597
13264TIP3    H261284   2.976   3.483  12.032  1.5340  0.8755  1.9488
13265TIP3   OH261285   1.169   4.452   1.724  0.0954 -0.1453  0.1003
13265TIP3    H161286   1.236   4.451   1.656  0.1379 -1.1817  0.1411
13265TIP3    H261287   1.211   4.495   1.798  0.7208 -0.7459  0.1105
13266TIP3   OH261288   3.682   2.715   4.276  0.6416 -0.7088  0.3537
13266TIP3    H161289   3.764   2.666   4.283  0.5021 -0.9089  0.6481
13266TIP3    H261290   3.670   2.754   4.363  0.5859 -0.4218  0.2177
13267TIP3   OH261291   4.461   1.715  16.197 -0.2715 -0.6133 -0.2838
13267TIP3    H161292   4.467   1.632  16.149  0.8000  0.1801 -1.5931
13267TIP3    H261293   4.405   1.695  16.272  0.0908 -2.5589 -0.4749
13268TIP3   OH261294   3.130   2.943   3.402  0.1396  0.4550 -0.3411
13268TIP3    H161295   3.144   2.931   3.308 -1.9088 -2.1548 -0.4466
13268TIP3    H261296   3.049   2.895   3.420 -1.0679  3.1737  2.3225
13269TIP3   OH261297   5.698   0.998   5.459  0.0116  0.8282 -0.2019
13269TIP3    H161298   5.651   0.915   5.469 -0.4765  1.0899 -0.3131
13269TIP3    H261299   5.779   0.986   5.509  0.0257  0.2219 -0.3683
13270TIP3   OH261300   0.069   2.970   2.306 -0.3681  0.4492 -0.4961
13270TIP3    H161301   0.088   3.031   2.234 -3.6366 -0.4893 -2.3397
13270TIP3    H261302   0.095   2.885   2.273  1.7886  0.4086  1.0884
13271TIP3   OH261303   4.859   4.833   2.392 -0.0291 -0.0808  0.4796
13271TIP3    H161304   4.791   4.805   2.331  0.3314 -0.7545  0.3758
13271TIP3    H261305   4.941   4.807   2.349  0.3621  1.5311  0.1689
13272TIP3   OH261306   5.617   4.317  11.715  0.0194 -0.4256 -0.2324
13272TIP3    H161307   5.551   4.379  11.683  0.8620  0.8659  0.4026
13272TIP3    H261308   5.700   4.363  11.703  0.5779 -0.9371  1.3700
13273TIP3   OH261309   0.169   0.614   1.046 -0.5832 -0.2774 -0.0145
13273TIP3    H161310   0.257   0.582   1.026  0.3551  1.0397  1.7803
13273TIP3    H261311   0.149   0.675   0.975  0.2242 -0.0916 -0.0909
13274TIP3   OH261312   2.693   0.648   4.855 -0.0878  0.2096  0.7504
13274TIP3    H161313   2.632   0.598   4.801 -0.0208  1.9577 -1.0277
13274TIP3    H261314   2.769   0.591   4.865 -0.2174 -0.2642 -0.7940
13275TIP3   OH261315   3.324   3.105  11.449  0.7613  0.2206 -0.2523
13275TIP3    H161316   3.360   3.024  11.486 -1.1659 -0.0630  1.1515
13275TIP3    H261317   3.283   3.149  11.523  0.3810  1.7227 -1.3026
13276TIP3   OH261318   5.915   0.522   0.339 -0.1086 -0.1746  0.2328
13276TIP3    H161319   5.887   0.519   0.431  0.8478  0.2036  0.5559
13276TIP3    H261320   5.869   0.597   0.302 -3.8836 -2.7226 -0.8338
13277TIP3   OH261321   3.159   0.148  15.169 -0.2070 -0.2978 -0.2207
13277TIP3    H161322   3.095   0.176  15.104 -0.7221  0.1271  0.4498
13277TIP3    H261323   3.229   0.213  15.164 -1.8532  1.8677  2.0262
13278TIP3   OH261324   3.526   4.508  14.345  0.3895 -0.4490 -0.1120
13278TIP3    H161325   3.532   4.444  14.416  0.0503 -0.5520 -0.1762
13278TIP3    H261326   3.473   4.579  14.381  0.5411 -0.3223 -0.1329
13279TIP3   OH261327   6.140   0.590   0.158 -0.1174  0.0611  0.3109
13279TIP3    H161328   6.096   0.655   0.104 -1.3889 -1.6325 -0.7965
13279TIP3    H261329   6.074   0.563   0.221  0.3658 -0.2372  0.6973
13280TIP3   OH261330   6.066   4.358  12.353 -0.1426  0.0760 -0.3234
13280TIP3    H161331   5.993   4.400  12.398  0.1589  0.1450  0.1060
13280TIP3    H261332   6.133   4.348  12.420  0.6079  0.8771 -0.9204
13281TIP3   OH261333   2.774   3.762   5.087  0.0897 -0.4220  0.0735
13281TIP3    H161334   2.803   3.739   5.175 -0.3129  3.1366  1.3138
13281TIP3    H261335   2.694   3.710   5.073  0.1759 -1.0576  1.7845
13282TIP3   OH261336   6.789   3.667   6.639 -0.3349  0.1256 -0.2160
13282TIP3    H161337   6.843   3.742   6.612 -2.0605  1.5853  0.1836
13282TIP3    H261338   6.741   3.643   6.559  0.0660 -0.4372 -0.2909
13283TIP3   OH261339   3.132   0.408  12.235  0.0377 -0.4909 -0.5616
13283TIP3    H161340   3.065   0.439  12.173  1.0024 -1.0054 -1.9053
13283TIP3    H261341   3.180   0.488  12.259  0.8766 -0.5273 -2.0048
13284TIP3   OH261342   3.637   0.583  15.558 -0.9483  0.3831 -0.8243
13284TIP3    H161343   3.609   0.591  15.466 -0.7118 -0.4960 -0.9780
13284TIP3    H261344   3.717   0.531  15.555 -0.6473  0.7945 -0.1575
13285TIP3   OH261345   4.871   4.986   3.165  0.5067  0.3671 -0.1189
13285TIP3    H161346   4.858   4.979   3.260  0.0875  0.5859 -0.1595
13285TIP3    H261347   4.965   5.000   3.155  0.7825 -1.0866  0.1916
13286TIP3   OH261348   1.988   3.897   3.492  0.1801 -0.0506 -0.0489
13286TIP3    H161349   2.067   3.912   3.544  0.0204 -2.6071  1.0988
13286TIP3    H261350   1.917   3.936   3.544  0.3877  0.0621  0.1517
13287TIP3   OH261351   6.424   4.965   4.815  0.5899 -0.0314 -0.3291
13287TIP3    H161352   6.425   4.941   4.907 -0.0149 -0.5437 -0.4484
13287TIP3    H261353   6.479   4.900   4.772  1.2318  0.4664 -0.2771
13288TIP3   OH261354   0.723   1.802   0.349  0.1227  0.1794  0.1478
13288TIP3    H161355   0.717   1.892   0.319  0.3733  0.0494 -0.3040
13288TIP3    H261356   0.783   1.760   0.287 -0.2963 -0.3939  0.1165
13289TIP3   OH261357   2.848   5.464  11.490 -0.3229  0.0075  0.7766
13289TIP3    H161358   2.937   5.438  11.463 -0.0039  2.2038 -0.5085
13289TIP3    H261359   2.804   5.381  11.507  1.1135 -1.3168 -1.3584
13290TIP3   OH261360   1.338   0.053  11.196  0.1693 -0.1544 -0.6109
13290TIP3    H161361   1.296  -0.008  11.257  1.6500  0.9053  1.6118
13290TIP3    H261362   1.285   0.133  11.202  1.2528  0.5156  0.6754
13291TIP3   OH261363   1.016   3.337   0.165 -0.1283 -0.3207  0.3382
13291TIP3    H161364   1.026   3.430   0.144  2.3163 -0.6771 -0.3295
13291TIP3    H261365   0.935   3.333   0.217 -2.1675  1.6705 -2.4117
13292TIP3   OH261366   3.847   3.221   1.556  0.4555 -0.1508  0.1493
13292TIP3    H161367   3.864   3.218   1.462  1.1888 -1.2735  0.3059
13292TIP3    H261368   3.767   3.170   1.568  0.4224 -0.0981  0.1564
13293TIP3   OH261369   4.123   6.051  16.144  0.4057 -0.4169  0.1750
13293TIP3    H161370   4.181   6.125  16.162 -0.5557  0.1748  0.9046
13293TIP3    H261371   4.055   6.057  16.211 -1.0464 -0.5313 -1.2307
13294TIP3   OH261372   1.184   5.912  10.418 -0.6608 -0.0264 -0.0634
13294TIP3    H161373   1.248   5.983  10.432  0.2777 -0.8705  0.0764
13294TIP3    H261374   1.099   5.956  10.417 -0.1393  1.0435  0.5341
13295TIP3   OH261375   2.870   6.047  17.079 -0.0027  1.0488 -0.4829
13295TIP3    H161376   2.841   6.138  17.079 -1.1442  0.7083  0.3354
13295TIP3    H261377   2.840   6.012  17.163  0.7123  0.0055 -0.6443
13296TIP3   OH261378   5.552   3.521  12.796  0.0406  0.3850  0.7649
13296TIP3    H161379   5.460   3.516  12.819  0.3908 -0.7828  2.0283
13296TIP3    H261380   5.598   3.520  12.880  1.2425 -0.3761  0.1216
13297TIP3   OH261381   2.414   4.222  11.746 -0.2831  0.0969  0.3166
13297TIP3    H161382   2.354   4.244  11.818  0.3650 -0.2797  0.9908
13297TIP3    H261383   2.373   4.259  11.668 -2.5719 -2.0460  0.3495
13298TIP3   OH261384   0.267   5.868  12.182  0.1501  0.5857 -0.2830
13298TIP3    H161385   0.229   5.935  12.239  1.6626  1.8163 -0.6547
13298TIP3    H261386   0.234   5.889  12.095 -1.3502 -0.6922 -0.0775
13299TIP3   OH261387   6.011   2.116  15.601  0.1158 -0.4547  0.3950
13299TIP3    H161388   5.978   2.104  15.512  0.7801  0.7632 -0.0373
13299TIP3    H261389   5.954   2.182  15.639 -1.8148 -2.7991  1.8187
13300TIP3   OH261390   6.314   3.657   0.534  0.0810  0.4217 -0.4124
13300TIP3    H161391   6.219   3.654   0.532  0.0975 -1.4893 -0.5018
13300TIP3    H261392   6.336   3.675   0.625 -0.3908 -0.4370 -0.1100
13301TIP3   OH261393   2.037   0.357  13.343 -0.3481 -0.2842 -0.2481
13301TIP3    H161394   2.035   0.293  13.414  1.4283 -0.3437 -0.1961
13301TIP3    H261395   2.122   0.343  13.301  0.0564  1.9360 -0.3058
13302TIP3   OH261396   6.026   0.348   5.186  0.1189 -0.2054 -0.4317
13302TIP3    H161397   5.972   0.299   5.247 -0.0056 -0.7764 -0.9913
13302TIP3    H261398   6.027   0.437   5.221 -0.4812 -0.3783  0.0394
13303TIP3   OH261399   0.711   3.415  13.646  0.6805 -0.4208  0.4390
13303TIP3    H161400   0.711   3.321  13.665  0.5780 -0.5965 -0.3914
13303TIP3    H261401   0.704   3.457  13.732  0.7604 -1.1712  0.8191
13304TIP3   OH261402   3.515   3.351   4.110  0.2243  0.3756 -0.5196
13304TIP3    H161403   3.452   3.330   4.178  0.1559 -1.4230 -1.0632
13304TIP3    H261404   3.565   3.425   4.144 -0.1344 -0.1636  1.2568
13305TIP3   OH261405   1.312   0.758  13.428 -0.3179  0.0780  0.0248
13305TIP3    H161406   1.267   0.695  13.372  0.7581 -1.6529  1.0191
13305TIP3    H261407   1.292   0.843  13.389 -3.1709 -0.6921 -0.4395
13306TIP3   OH261408   2.678   0.899   6.391  0.0293 -0.1085  0.2991
13306TIP3    H161409   2.637   0.943   6.316  0.0098 -2.7359 -1.3466
13306TIP3    H261410   2.762   0.945   6.402 -0.6280  1.2986 -0.3178
13307TIP3   OH261411   4.680   2.644   3.033 -0.3026 -0.0181 -0.0078
13307TIP3    H161412   4.709   2.561   3.072 -0.2524  0.9951  2.2406
13307TIP3    H261413   4.681   2.706   3.106  0.0239  2.0729 -1.7100
13308TIP3   OH261414   6.473   3.056  14.303 -0.3334 -0.8842  0.2162
13308TIP3    H161415   6.551   3.012  14.270  0.7503  0.2834  1.1330
13308TIP3    H261416   6.506   3.136  14.345 -1.9776 -0.6011  1.0445
13309TIP3   OH261417   4.765   4.054  12.984  0.5979 -0.3107 -0.0743
13309TIP3    H161418   4.702   4.027  13.052 -0.0676  1.5565  0.1180
13309TIP3    H261419   4.848   4.060  13.030  0.3108  0.1113  0.4131
13310TIP3   OH261420   4.092   6.008   5.285 -0.4373  0.4857  0.0064
13310TIP3    H161421   4.030   5.941   5.312  0.6914 -0.7976 -0.4927
13310TIP3    H261422   4.162   6.004   5.350  0.4312  0.0200 -0.9281
13311TIP3   OH261423   2.651   5.850  14.990  0.5231 -0.1992 -0.1524
13311TIP3    H161424   2.737   5.810  15.004  0.5756 -0.5277 -1.3359
13311TIP3    H261425   2.593   5.802  15.050  1.5625  1.7465  2.6372
13312TIP3   OH261426   5.968   3.753   5.735  0.5032 -0.1133 -0.0086
13312TIP3    H161427   6.008   3.835   5.704  0.6769  0.4871  1.7046
13312TIP3    H261428   5.874   3.767   5.724  0.5893 -0.3006 -1.1226
13313TIP3   OH261429   5.368   1.696  14.483 -0.4245 -0.0779  0.0827
13313TIP3    H161430   5.316   1.743  14.547 -1.4025 -1.9932  0.7792
13313TIP3    H261431   5.366   1.605  14.512  0.3773 -0.7681 -1.8370
13314TIP3   OH261432   5.111   1.576   1.284  0.0007 -0.0592 -0.3004
13314TIP3    H161433   5.041   1.579   1.349 -0.3360  2.8208 -0.6839
13314TIP3    H261434   5.179   1.522   1.325 -1.5794 -1.2269  0.9325
13315TIP3   OH261435   4.684   5.820   2.851 -0.6088  0.0419  0.0724
13315TIP3    H161436   4.670   5.854   2.762 -0.1948 -0.1311 -0.0621
13315TIP3    H261437   4.779   5.819   2.861 -0.6656  1.6509  1.1408
13316TIP3   OH261438   3.357   0.854   2.235 -0.0022 -0.5608  0.2160
13316TIP3    H161439   3.451   0.865   2.222  0.2432 -0.0231  2.0186
13316TIP3    H261440   3.324   0.944   2.245 -0.4291 -0.8019  1.0974
13317TIP3   OH261441   5.516   5.146  16.105  0.0005  0.5820  0.2634
13317TIP3    H161442   5.606   5.116  16.101 -0.3725 -0.4147 -1.4732
13317TIP3    H261443   5.464   5.074  16.068 -1.2010  2.2631 -1.5267
13318TIP3   OH261444   3.493   5.415   0.372  0.6994  0.1300  0.1441
13318TIP3    H161445   3.587   5.401   0.388  0.8341 -0.3430 -1.0160
13318TIP3    H261446   3.453   5.332   0.396  0.6071  0.2198  0.3062
13319TIP3   OH261447   5.820   3.909  13.772 -0.2400  0.0420 -0.3872
13319TIP3    H161448   5.839   3.954  13.689  0.0898 -2.7719 -1.9473
13319TIP3    H261449   5.727   3.890  13.767  0.2270 -2.2620 -1.3217
13320TIP3   OH261450   3.556   6.410  15.859  0.4661 -0.7255 -0.7794
13320TIP3    H161451   3.649   6.399  15.839  0.7701  1.6627 -1.0368
13320TIP3    H261452   3.511   6.354  15.797  1.7106 -0.6733 -1.7657
13321TIP3   OH261453   2.428   1.259   2.666  0.0963 -0.1790 -0.0262
13321TIP3    H161454   2.481   1.191   2.707  1.7900 -0.1778 -2.0599
13321TIP3    H261455   2.477   1.340   2.682 -1.4995  0.5316  1.6836
13322TIP3   OH261456   1.894   6.479  10.858  0.0662 -0.3881 -0.0339
13322TIP3    H161457   1.897   6.573  10.877 -0.2041 -0.7895  2.2565
13322TIP3    H261458   1.825   6.470  10.793 -1.2083  0.8076  1.1008
13323TIP3   OH261459   4.337   2.676  14.227  0.4222 -1.1847 -0.0622
13323TIP3    H161460   4.341   2.685  14.132  1.4914  1.9890  0.1870
13323TIP3    H261461   4.250   2.639  14.243 -0.3952 -0.3402 -2.2025
13324TIP3   OH261462   4.015   1.093   1.298  0.3091  0.0223 -0.1066
13324TIP3    H161463   3.999   1.052   1.214 -1.3858  0.6086 -0.1172
13324TIP3    H261464   4.007   1.187   1.281 -0.6127  0.1266  0.7858
13325TIP3   OH261465   3.644   0.777   0.959  0.3850  0.6575 -0.0554
13325TIP3    H161466   3.722   0.779   0.903  1.4584 -0.6337  1.3149
13325TIP3    H261467   3.588   0.709   0.921  0.8478  0.1862  0.0959
13326TIP3   OH261468   4.360   3.465  10.903  0.1261 -0.3721  0.0225
13326TIP3    H161469   4.352   3.376  10.936 -1.3451  0.5068  2.2248
13326TIP3    H261470   4.449   3.492  10.928 -0.5373 -0.1466  2.2855
13327TIP3   OH261471   4.279   2.471  11.422  0.1867  0.4849  0.4303
13327TIP3    H161472   4.306   2.536  11.487 -0.9855 -0.3977  1.8568
13327TIP3    H261473   4.292   2.386  11.465  1.8586 -0.3044 -1.4445
13328TIP3   OH261474   0.074   4.396   2.542  0.5209 -0.3716  0.5051
13328TIP3    H161475   0.135   4.380   2.471 -0.6658 -0.1454 -0.5937
13328TIP3    H261476  -0.007   4.422   2.499  0.1120  0.9384  1.9790
13329TIP3   OH261477   5.169   3.042   6.056  0.0349 -0.3821 -0.4262
13329TIP3    H161478   5.082   3.003   6.041 -0.1084 -0.5259  0.7140
13329TIP3    H261479   5.228   2.967   6.058 -0.2658 -0.6202  1.9528
13330TIP3   OH261480   5.831   6.093   4.764  0.3195  0.0048  0.1935
13330TIP3    H161481   5.829   6.042   4.845  0.2048  1.2077  0.9740
13330TIP3    H261482   5.739   6.111   4.745  0.4199  1.8026  1.1874
13331TIP3   OH261483   5.601   5.735  14.413  0.1033 -0.5426  0.6497
13331TIP3    H161484   5.616   5.723  14.320 -0.1640  0.1861  0.5035
13331TIP3    H261485   5.506   5.736  14.422  0.1203  0.1637  0.8167
13332TIP3   OH261486   5.356   5.439   3.710 -0.2557 -0.3987 -0.0213
13332TIP3    H161487   5.437   5.442   3.761  1.2681  0.2225 -2.3159
13332TIP3    H261488   5.293   5.489   3.763  1.0416 -0.2718  1.4951
13333TIP3   OH261489   3.643   5.850   4.120 -0.4624 -0.0927  0.1297
13333TIP3    H161490   3.633   5.769   4.070  0.2898 -0.5667  0.7229
13333TIP3    H261491   3.607   5.829   4.206 -1.0593  0.4804  0.0226
13334TIP3   OH261492   6.641   2.981   3.102  0.1062 -0.4734 -0.2418
13334TIP3    H161493   6.611   3.038   3.172  2.2612  0.9287 -0.3783
13334TIP3    H261494   6.594   2.898   3.117 -1.2408  0.5226  1.4110
13335TIP3   OH261495   1.123   6.311  11.963 -0.3566  0.2136  0.0025
13335TIP3    H161496   1.143   6.372  12.034 -1.1726 -1.5941  1.9298
13335TIP3    H261497   1.187   6.240  11.973 -1.6070 -0.9496  0.1487
13336TIP3   OH261498   2.821   1.482   2.727 -0.0657 -0.5190 -0.1706
13336TIP3    H161499   2.841   1.389   2.732 -2.2283 -1.0834 -0.7500
13336TIP3    H261500   2.844   1.516   2.814  0.7391 -1.5874  0.0517
13337TIP3   OH261501   1.401   5.142   2.810 -0.1967  0.0986  0.1025
13337TIP3    H161502   1.322   5.124   2.861 -1.0017  0.9912 -0.8093
13337TIP3    H261503   1.414   5.236   2.818  1.0835 -0.0957  0.6452
13338TIP3   OH261504   0.719   1.860  11.677  0.2897  0.4486 -0.0414
13338TIP3    H161505   0.759   1.869  11.764 -0.3410  1.7196  0.1399
13338TIP3    H261506   0.626   1.877  11.692  0.1187  0.3136 -0.9104
13339TIP3   OH261507   5.519   6.563   5.015  0.1306  0.0296 -0.4685
13339TIP3    H161508   5.563   6.638   4.975 -0.6842  1.8546  1.7980
13339TIP3    H261509   5.459   6.602   5.079 -1.3976 -2.5351 -0.2083
13340TIP3   OH261510   5.866   3.109   0.917  0.9046 -0.5539  0.6139
13340TIP3    H161511   5.795   3.062   0.873 -0.0460 -0.4286  1.9552
13340TIP3    H261512   5.915   3.041   0.963  0.2998 -0.4097  1.5011
13341TIP3   OH261513   5.645   6.048   3.210 -0.0878  0.3646  0.1470
13341TIP3    H161514   5.714   6.112   3.189  0.2491 -0.2727 -0.7395
13341TIP3    H261515   5.564   6.094   3.188  0.2055  0.0808 -1.7292
13342TIP3   OH261516   0.720   3.546   4.869 -0.2280 -0.2414  0.7289
13342TIP3    H161517   0.668   3.624   4.888 -1.8866 -1.0684 -0.2021
13342TIP3    H261518   0.702   3.527   4.777  1.7252 -0.6022  0.3691
13343TIP3   OH261519   4.644   0.302  15.098 -0.0892 -0.6381 -0.3603
13343TIP3    H161520   4.630   0.210  15.078  0.1773 -0.5108 -1.1622
13343TIP3    H261521   4.717   0.328  15.043 -1.2754  0.4858 -1.4864
13344TIP3   OH261522   6.415   6.554  17.086  0.0794 -0.6662  0.2903
13344TIP3    H161523   6.320   6.566  17.079  0.0427 -1.7281 -2.0357
13344TIP3    H261524   6.425   6.465  17.121  0.1582 -1.1356 -0.8675
13345TIP3   OH261525   0.884   6.057  14.904  0.1932 -0.4457  0.0170
13345TIP3    H161526   0.965   6.108  14.899 -0.0537  0.0024  0.4089
13345TIP3    H261527   0.815   6.124  14.901 -0.1565 -0.8182 -0.2345
13346TIP3   OH261528   5.464   6.740  14.363  0.6766  0.1041 -0.2075
13346TIP3    H161529   5.423   6.704  14.285  0.1475 -0.3144  0.2560
13346TIP3    H261530   5.459   6.670  14.428 -0.7507  1.1327  0.8517
13347TIP3   OH261531   0.751   5.122   3.211 -0.0317 -0.6587  0.6948
13347TIP3    H161532   0.800   5.177   3.150 -1.3635 -0.0032  0.1812
13347TIP3    H261533   0.664   5.114   3.172 -1.2985  0.6721  3.0125
13348TIP3   OH261534   0.220   0.303   6.365  0.2978 -0.8156  0.2747
13348TIP3    H161535   0.193   0.356   6.290 -2.9148 -0.1853  1.7085
13348TIP3    H261536   0.234   0.367   6.435 -0.1448 -1.5900  1.0929
13349TIP3   OH261537   3.561   3.026  13.651  0.2466  0.2793 -0.2679
13349TIP3    H161538   3.594   3.060  13.568  0.2367  1.4592  0.1981
13349TIP3    H261539   3.466   3.022  13.640  0.2907 -0.1204 -0.5120
13350TIP3   OH261540   4.858   0.023   4.430  0.0236 -0.0637 -0.1424
13350TIP3    H161541   4.786  -0.030   4.464  0.7958 -0.2873  1.2275
13350TIP3    H261542   4.843   0.111   4.466 -0.3471  0.2564 -1.0508
13351TIP3   OH261543   0.950   0.492   2.864  0.1484 -0.2953  0.0736
13351TIP3    H161544   1.014   0.446   2.810  0.5723 -0.6231  0.8346
13351TIP3    H261545   0.991   0.498   2.950  0.1646  1.6574 -0.0281
13352TIP3   OH261546   6.726   0.690  13.832 -0.6563 -0.1437 -0.6077
13352TIP3    H161547   6.769   0.677  13.747  0.8115  1.4143 -0.1613
13352TIP3    H261548   6.720   0.785  13.841 -0.6647 -0.2761  1.0883
13353TIP3   OH261549   1.250   3.030  14.487  0.0198  0.1349 -0.3624
13353TIP3    H161550   1.232   2.943  14.450 -2.0287  0.4587 -0.2669
13353TIP3    H261551   1.172   3.081  14.466 -0.0786  1.1125  2.0847
13354TIP3   OH261552   5.456   1.554  16.404  0.5279  0.4834  0.0699
13354TIP3    H161553   5.390   1.618  16.374  0.6314  0.0729 -1.0808
13354TIP3    H261554   5.493   1.594  16.483 -0.4980  1.1227  0.2486
13355TIP3   OH261555   2.520   5.365  15.387 -0.4522 -0.4360  0.2291
13355TIP3    H161556   2.570   5.297  15.342 -1.7152 -1.0521 -0.2833
13355TIP3    H261557   2.461   5.400  15.321 -0.0268  0.9948  0.5600
13356TIP3   OH261558   3.814   3.087   5.014  0.4388  0.6071  0.7621
13356TIP3    H161559   3.839   3.018   4.953 -0.0654  1.1126 -0.0392
13356TIP3    H261560   3.769   3.042   5.084  0.9793  0.0201  0.7419
13357TIP3   OH261561   3.568   2.019   0.898  0.6653 -0.2321 -0.0884
13357TIP3    H161562   3.524   2.079   0.958  0.2752 -0.3485 -0.2587
13357TIP3    H261563   3.500   1.958   0.870  1.1541 -1.0430  0.4366
13358TIP3   OH261564   5.149   3.448   3.389  0.2088  0.9076 -0.1843
13358TIP3    H161565   5.173   3.448   3.482  0.9165  3.4480 -0.3084
13358TIP3    H261566   5.053   3.447   3.389  0.1992  1.2378  0.5990
13359TIP3   OH261567   1.031   5.483   0.396  0.3462  0.0529  0.6246
13359TIP3    H161568   0.972   5.409   0.407  0.1566  0.0660 -0.2463
13359TIP3    H261569   0.988   5.539   0.332  1.1051  0.2706  0.2917
13360TIP3   OH261570   0.558   0.435  12.545 -0.2411 -0.3697  0.1652
13360TIP3    H161571   0.636   0.435  12.490  0.0341 -0.2270  0.5466
13360TIP3    H261572   0.485   0.427  12.484  0.1474 -2.6716 -0.0567
13361TIP3   OH261573   3.188   3.623  14.171  0.3826 -0.4644 -0.7389
13361TIP3    H161574   3.199   3.584  14.085  0.6527  1.8801 -1.8533
13361TIP3    H261575   3.260   3.587  14.223 -0.1050 -2.3289 -1.2760
13362TIP3   OH261576   5.663   6.252  14.548  0.0206 -0.2722  0.4048
13362TIP3    H161577   5.599   6.186  14.576 -0.6058  0.5251  0.9267
13362TIP3    H261578   5.652   6.323  14.611  0.3172  0.5427 -0.4413
13363TIP3   OH261579   3.384   0.155  12.465 -0.4923  0.5098 -0.4945
13363TIP3    H161580   3.427   0.230  12.425  0.8332  0.3593  0.5678
13363TIP3    H261581   3.441   0.130  12.538 -2.7493  0.7458  1.4959
13364TIP3   OH261582   5.490   0.565   3.022 -0.0046  0.1853 -0.2768
13364TIP3    H161583   5.582   0.554   3.047  0.0923 -0.3599 -0.8589
13364TIP3    H261584   5.492   0.623   2.946  0.2678 -3.1069 -3.0204
13365TIP3   OH261585   1.882   0.410  14.806 -0.1545 -0.3710 -0.0129
13365TIP3    H161586   1.887   0.319  14.837 -1.0194 -0.4228  0.0026
13365TIP3    H261587   1.919   0.408  14.718 -1.0929 -0.9477 -0.4164
13366TIP3   OH261588   2.116   5.996   3.206 -0.2335  0.3898 -0.2301
13366TIP3    H161589   2.048   5.939   3.169 -0.7036  0.9673 -0.2544
13366TIP3    H261590   2.171   6.019   3.131 -0.0958  0.0476 -0.2368
13367TIP3   OH261591   2.311   5.695   3.172 -0.5625 -0.4406  0.3218
13367TIP3    H161592   2.324   5.649   3.255  0.8952 -0.7157 -0.0399
13367TIP3    H261593   2.335   5.631   3.105  0.9922  0.6504 -0.2111
13368TIP3   OH261594   2.180   5.459  15.480  0.3715  0.1164 -0.2268
13368TIP3    H161595   2.144   5.458  15.569 -1.4039  0.0163 -0.8932
13368TIP3    H261596   2.199   5.551  15.462  0.2380  0.2036  0.0749
13369TIP3   OH261597   2.821   2.390   5.827  0.1657 -0.6988  0.2653
13369TIP3    H161598   2.734   2.382   5.864  1.0107 -1.9989  2.1291
13369TIP3    H261599   2.863   2.459   5.878  0.0132  0.4976 -1.1586
13370TIP3   OH261600   5.815   1.762   3.124 -0.3981  0.7102 -0.5355
13370TIP3    H161601   5.759   1.824   3.078 -0.3762  1.5691  0.5526
13370TIP3    H261602   5.895   1.760   3.073 -1.2795 -0.3136 -1.9509
13371TIP3   OH261603   0.632   6.566  10.694  0.3313  0.2502 -0.1050
13371TIP3    H161604   0.573   6.518  10.752 -0.1753  0.8282 -0.1340
13371TIP3    H261605   0.716   6.565  10.739  0.1844 -0.1596  0.1679
13372TIP3   OH261606   2.585   6.268  13.127 -0.4645 -0.6927 -0.0446
13372TIP3    H161607   2.552   6.242  13.213 -2.6310  2.4499  0.2305
13372TIP3    H261608   2.670   6.307  13.145 -1.2592  0.6860  0.8560
13373TIP3   OH261609   3.986   3.017   3.883 -0.6306 -0.1388  0.1236
13373TIP3    H161610   3.922   2.963   3.930 -1.1735 -0.7341 -1.2404
13373TIP3    H261611   4.008   2.966   3.805  1.4240  0.1201  0.4702
13374TIP3   OH261612   0.567   4.807  11.635  0.2691  0.4486  0.2359
13374TIP3    H161613   0.565   4.816  11.540  1.3374 -2.2903 -0.1319
13374TIP3    H261614   0.475   4.805  11.661 -0.0337  1.8991 -0.6112
13375TIP3   OH261615   0.863   2.734   3.513  0.0564 -0.3931  0.1133
13375TIP3    H161616   0.880   2.702   3.424  1.1803 -0.6479  0.4042
13375TIP3    H261617   0.767   2.737   3.520 -0.0668 -2.2442 -0.4370
13376TIP3   OH261618   1.160   2.625   6.234  0.2141 -0.7403  0.4003
13376TIP3    H161619   1.129   2.555   6.178  0.4682 -1.6750  1.4068
13376TIP3    H261620   1.253   2.633   6.212 -0.1911  0.5817 -1.0448
13377TIP3   OH261621   4.288   3.699  10.790 -0.2908  0.0618  0.6599
13377TIP3    H161622   4.305   3.607  10.813  1.7702  0.1243 -0.3795
13377TIP3    H261623   4.207   3.720  10.836  0.7685 -1.3691  3.4797
13378TIP3   OH261624   6.293   2.938   2.006  0.3429  0.0939  0.1724
13378TIP3    H161625   6.209   2.925   1.961  0.6521  0.8141 -0.6374
13378TIP3    H261626   6.337   3.005   1.955  1.8752 -1.0205 -0.0460
13379TIP3   OH261627   6.282   5.402  13.211 -0.0257  0.0167 -0.2292
13379TIP3    H161628   6.212   5.454  13.249  0.0353  0.0437 -0.1540
13379TIP3    H261629   6.349   5.398  13.279 -0.3713 -0.8329  0.0748
13380TIP3   OH261630   5.357   5.011   3.305  0.3657  0.4101 -0.0533
13380TIP3    H161631   5.430   4.980   3.253  0.1615  0.2509 -0.2477
13380TIP3    H261632   5.361   4.961   3.387 -0.4531 -0.7453 -0.6986
13381TIP3   OH261633   2.876   5.627  12.981 -0.1853 -0.4979  0.1123
13381TIP3    H161634   2.948   5.596  12.927 -0.6700  0.7837 -1.3553
13381TIP3    H261635   2.798   5.610  12.928 -0.5269  2.5541 -0.5883
13382TIP3   OH261636   2.366   0.714   4.161 -0.0225 -0.0069 -0.0884
13382TIP3    H161637   2.367   0.707   4.066 -2.3106  0.6865 -0.2118
13382TIP3    H261638   2.277   0.744   4.183  0.9613  1.6155  2.1415
13383TIP3   OH261639   4.953   4.386   4.130  0.1221 -0.2522  0.1476
13383TIP3    H161640   5.015   4.374   4.059 -0.0610  2.0456 -0.4938
13383TIP3    H261641   4.873   4.416   4.087 -0.6141 -0.6820  1.1728
13384TIP3   OH261642   0.531   4.225   2.001 -0.0618 -0.6418  0.1545
13384TIP3    H161643   0.593   4.238   1.930  0.4661 -2.3855  0.2502
13384TIP3    H261644   0.445   4.222   1.959  0.0147  0.5320 -0.1214
13385TIP3   OH261645   0.669   6.757  12.699  0.5121  0.0813 -0.3819
13385TIP3    H161646   0.694   6.740  12.790  1.9563 -0.8206 -0.9183
13385TIP3    H261647   0.743   6.804  12.661  0.4097 -0.5144 -1.3698
13386TIP3   OH261648   4.787   0.582  10.398  0.0634  0.1485  0.3657
13386TIP3    H161649   4.856   0.583  10.332 -0.8304  0.8761 -0.5797
13386TIP3    H261650   4.829   0.621  10.475  0.7332  0.5291 -0.1743
13387TIP3   OH261651   3.035   2.458   5.226  0.6644 -0.0761 -0.3501
13387TIP3    H161652   3.067   2.371   5.201  0.4989 -0.4519  0.7215
13387TIP3    H261653   3.088   2.482   5.302  1.5089  1.2703 -1.3225
13388TIP3   OH261654   2.905   0.223   2.389 -0.0354 -0.3186  0.4718
13388TIP3    H161655   2.975   0.254   2.447  1.7943 -2.1507 -0.6229
13388TIP3    H261656   2.923   0.129   2.379 -2.4123 -0.7437 -0.2425
13389TIP3   OH261657   6.568   3.166  14.973  0.7055  0.4983 -0.0785
13389TIP3    H161658   6.527   3.109  14.908  1.6913  0.0438 -0.3353
13389TIP3    H261659   6.501   3.180  15.039  0.3199 -0.6553 -0.2014
13390TIP3   OH261660   3.060   1.514  11.375 -0.5777  0.7144  0.1524
13390TIP3    H161661   3.034   1.561  11.296 -1.2146  1.0413  0.5502
13390TIP3    H261662   3.092   1.582  11.434 -0.4531  0.5133  0.3184
13391TIP3   OH261663   5.233   3.369  14.012 -0.2983 -0.0406 -0.3699
13391TIP3    H161664   5.266   3.418  13.937  1.7452 -0.3022  0.3037
13391TIP3    H261665   5.142   3.349  13.989  0.5720 -1.1355 -3.3149
13392TIP3   OH261666   6.677   1.722  14.588  0.4721  0.3431  0.0446
13392TIP3    H161667   6.643   1.643  14.629 -3.0614  1.3659 -0.6240
13392TIP3    H261668   6.709   1.776  14.661  1.7061 -1.0790  0.6062
13393TIP3   OH261669   1.254   5.631  11.247  0.3092  0.5718 -0.0656
13393TIP3    H161670   1.344   5.597  11.247  0.0938 -0.0789  1.4407
13393TIP3    H261671   1.201   5.560  11.211  0.1706  0.2207  0.8104
13394TIP3   OH261672   0.740   3.722  14.580 -0.2331 -0.4336 -0.4852
13394TIP3    H161673   0.819   3.770  14.605  0.3632 -0.8366 -1.5397
13394TIP3    H261674   0.727   3.659  14.651 -0.5299  0.6899  0.4819
13395TIP3   OH261675   2.208   1.501   2.127 -0.0658 -0.1238  0.5136
13395TIP3    H161676   2.303   1.499   2.115  0.0385 -0.6394  1.3662
13395TIP3    H261677   2.180   1.410   2.117 -0.4543  0.0075  0.3964
13396TIP3   OH261678   0.577   1.793  12.751 -0.0379 -0.0683  0.4474
13396TIP3    H161679   0.514   1.820  12.684 -1.2160 -1.5715  0.8916
13396TIP3    H261680   0.536   1.717  12.793  1.4312 -0.1911  1.7429
13397TIP3   OH261681   5.581   5.567   5.456  0.1387  0.2952 -0.8848
13397TIP3    H161682   5.544   5.496   5.507 -0.6812  0.9129 -0.6069
13397TIP3    H261683   5.656   5.527   5.410 -0.4590 -0.8015 -0.9373
13398TIP3   OH261684   5.242   3.203   3.534 -0.3229  0.3097  0.2127
13398TIP3    H161685   5.316   3.144   3.538  0.8110  1.6857  0.4330
13398TIP3    H261686   5.254   3.251   3.452 -2.4715 -1.2735 -1.1466
13399TIP3   OH261687   4.221   3.251   6.412  0.2393  0.2424 -0.4233
13399TIP3    H161688   4.195   3.266   6.321  0.7770 -0.4915 -0.7126
13399TIP3    H261689   4.178   3.168   6.436  0.4138  0.2322 -0.1427
13400TIP3   OH261690   5.887   3.709   6.027  0.3571  0.3365  0.9390
13400TIP3    H161691   5.865   3.763   6.102  0.9243  0.1391  1.2576
13400TIP3    H261692   5.915   3.771   5.959  1.5051  0.4266  1.4739
13401TIP3   OH261693   3.524   2.626  12.365 -0.0480  0.4904  0.2604
13401TIP3    H161694   3.609   2.620  12.410 -0.4494  1.0320  1.1085
13401TIP3    H261695   3.547   2.624  12.272  0.8888  0.4804  0.4747
13402TIP3   OH261696   6.721   6.361   2.561 -0.0759  0.0210 -0.6219
13402TIP3    H161697   6.630   6.331   2.571 -0.4238  1.6305  2.2679
13402TIP3    H261698   6.726   6.438   2.618  3.1276 -0.0366 -0.6811
13403TIP3   OH261699   0.568   2.605   4.758  0.5469 -0.5097  0.0602
13403TIP3    H161700   0.477   2.631   4.775  0.4885  0.9426 -2.1382
13403TIP3    H261701   0.563   2.512   4.738 -0.6748 -0.1965 -1.2577
13404TIP3   OH261702   4.554   2.994  12.437 -0.1996 -0.1834  0.1129
13404TIP3    H161703   4.543   3.081  12.398  0.8237  1.2397  2.6681
13404TIP3    H261704   4.466   2.958  12.442 -0.6476  0.6895 -1.0463
13405TIP3   OH261705   4.865   1.066   1.072  0.0235  0.0551  0.2891
13405TIP3    H161706   4.908   1.113   1.144 -3.2030  0.1678  2.3511
13405TIP3    H261707   4.874   0.973   1.096  1.2710 -0.0936 -0.6606
13406TIP3   OH261708   4.398   3.168   4.327 -0.0450  0.6078  0.4150
13406TIP3    H161709   4.394   3.075   4.351 -0.0561  0.5884  0.3410
13406TIP3    H261710   4.369   3.169   4.235  0.3319  0.6394  0.2976
13407TIP3   OH261711   3.170   3.593  15.413  0.0899 -0.1799  0.0407
13407TIP3    H161712   3.213   3.583  15.498  1.5018  1.8452 -0.3634
13407TIP3    H261713   3.235   3.566  15.349  1.1921  3.3954 -0.6093
13408TIP3   OH261714   0.212   0.262  11.835 -0.4349  0.8394 -0.0785
13408TIP3    H161715   0.169   0.338  11.794 -1.7015 -0.8693 -2.1449
13408TIP3    H261716   0.280   0.237  11.772 -0.5153 -0.1706  0.2213
13409TIP3   OH261717   4.828   1.096   0.209 -0.4831  0.3536 -0.2978
13409TIP3    H161718   4.903   1.046   0.177 -0.2621 -0.0794  0.8511
13409TIP3    H261719   4.781   1.035   0.266 -0.9394  1.0456  0.0842
13410TIP3   OH261720   4.199   2.201   0.515  0.6177  0.1822  0.2863
13410TIP3    H161721   4.285   2.170   0.486 -0.5169 -1.1195 -2.0468
13410TIP3    H261722   4.141   2.182   0.440 -1.4907  1.9790  1.3611
13411TIP3   OH261723   1.506   4.389   1.950  0.1723  0.6977 -0.4367
13411TIP3    H161724   1.460   4.470   1.927  0.8991  1.8052  1.6368
13411TIP3    H261725   1.470   4.323   1.892 -1.7388  2.1544 -1.0209
13412TIP3   OH261726   2.890   2.885   3.513  0.6102  0.2258 -0.2641
13412TIP3    H161727   2.824   2.830   3.473  0.2275 -2.5637  3.5802
13412TIP3    H261728   2.843   2.964   3.539 -0.2792 -0.0849 -0.8840
13413TIP3   OH261729   4.345   6.219   5.358  0.0351  0.4734  0.2687
13413TIP3    H161730   4.411   6.165   5.315  1.2884  1.2304  1.1846
13413TIP3    H261731   4.317   6.167   5.433 -1.5391 -0.4840 -0.9168
13414TIP3   OH261732   0.870   0.207   4.601 -0.7591  0.8756 -0.5350
13414TIP3    H161733   0.868   0.270   4.529 -0.7003  0.6079 -0.7716
13414TIP3    H261734   0.805   0.141   4.577 -1.5901  1.3992  0.2217
13415TIP3   OH261735   6.045   2.268  10.707 -0.0654 -0.0637  0.0537
13415TIP3    H161736   6.083   2.186  10.738  2.1201  0.8768  0.0227
13415TIP3    H261737   5.978   2.289  10.772 -0.9825 -2.0248 -0.1591
13416TIP3   OH261738   2.682   5.320   4.401  0.7033  0.2343  0.3875
13416TIP3    H161739   2.699   5.381   4.329  0.1142  0.4827  0.4583
13416TIP3    H261740   2.589   5.329   4.419  0.9608  0.6670  1.6249
13417TIP3   OH261741   1.553   0.406  14.740  0.1865 -0.3043 -0.2000
13417TIP3    H161742   1.641   0.372  14.727  0.4712  0.4481 -0.2637
13417TIP3    H261743   1.510   0.395  14.656  0.1261 -0.9365 -0.0889
13418TIP3   OH261744   2.500   0.192   4.202  0.0586 -0.3382 -0.5980
13418TIP3    H161745   2.590   0.186   4.232  0.4052 -1.3105 -1.7616
13418TIP3    H261746   2.476   0.284   4.217 -0.2242 -0.8913  3.6322
13419TIP3   OH261747   4.868   6.405   3.189 -0.2269 -0.4101  0.0922
13419TIP3    H161748   4.785   6.366   3.161 -0.2572 -0.8242  0.7329
13419TIP3    H261749   4.869   6.393   3.284  1.7553 -2.8461 -0.1234
13420TIP3   OH261750   5.075   2.722   0.547  0.2290 -0.2291  0.0975
13420TIP3    H161751   5.037   2.785   0.486 -1.1021 -1.0156  0.0895
13420TIP3    H261752   5.147   2.769   0.588 -0.1214  0.9662 -0.6202
13421TIP3   OH261753   2.299   0.458  13.841 -0.4560  0.0251 -0.4041
13421TIP3    H161754   2.260   0.393  13.899 -1.7262  0.7674 -0.3948
13421TIP3    H261755   2.259   0.541  13.867  0.9862  0.7980 -0.5396
13422TIP3   OH261756   2.473   1.149  13.418  0.0516 -0.2699 -0.6851
13422TIP3    H161757   2.537   1.082  13.391  0.1574 -0.4280 -0.0569
13422TIP3    H261758   2.520   1.202  13.483 -0.7317 -0.9497  0.4688
13423TIP3   OH261759   6.526   6.324   3.236  0.5847  0.0404  0.2637
13423TIP3    H161760   6.456   6.328   3.171  1.8544  0.4372 -1.1184
13423TIP3    H261761   6.592   6.267   3.198  0.6808 -1.0207  1.9166
13424TIP3   OH261762   1.147   5.047   3.734  0.2105 -0.1454 -0.3388
13424TIP3    H161763   1.222   5.050   3.675  0.8495 -0.9070  0.4149
13424TIP3    H261764   1.160   5.122   3.793  0.3748 -0.2687 -0.2175
13425TIP3   OH261765   1.117   6.022   4.360  0.2623  0.0582  0.0261
13425TIP3    H161766   1.035   5.989   4.322  0.6165 -0.9391  0.1014
13425TIP3    H261767   1.154   6.078   4.292  0.9975 -1.8702 -1.2476
13426TIP3   OH261768   6.302   3.498   5.563  0.2249 -0.5824 -0.6538
13426TIP3    H161769   6.211   3.523   5.548  0.3424  0.6068  0.4266
13426TIP3    H261770   6.341   3.574   5.605  1.4142 -1.5071 -0.0229
13427TIP3   OH261771   0.658   3.130  13.594  0.3387 -0.5265  0.1140
13427TIP3    H161772   0.569   3.102  13.613  0.6091 -1.1212  0.5146
13427TIP3    H261773   0.713   3.055  13.616  0.8078 -0.7491 -1.6574
13428TIP3   OH261774   0.236   3.429  13.088  0.5496 -0.1416 -0.5050
13428TIP3    H161775   0.164   3.412  13.027  1.1276 -2.9003 -0.5176
13428TIP3    H261776   0.280   3.506  13.051  0.0746 -0.9119 -2.8402
13429TIP3   OH261777   5.869   4.643  16.461 -0.1964 -0.1981  0.1902
13429TIP3    H161778   5.870   4.711  16.529 -1.6736  0.4495 -0.3966
13429TIP3    H261779   5.810   4.576  16.494 -0.8524  0.0791 -0.3812
13430TIP3   OH261780   3.862   2.143  14.324  0.2744  0.2796  0.1565
13430TIP3    H161781   3.937   2.123  14.380  0.1607 -0.6048  0.0088
13430TIP3    H261782   3.785   2.128  14.380  0.1922  0.5741  0.1239
13431TIP3   OH261783   0.816   0.137  17.020 -0.1559  0.4785  0.3930
13431TIP3    H161784   0.723   0.131  17.043 -0.2336  1.8384  0.5464
13431TIP3    H261785   0.826   0.227  16.988  0.7067 -0.2337 -1.4654
13432TIP3   OH261786   0.052   1.487  16.904 -0.2347 -0.1220  0.2423
13432TIP3    H161787   0.027   1.456  16.991 -0.7765 -1.7383 -0.4417
13432TIP3    H261788  -0.001   1.433  16.844  1.4176 -0.2872 -1.1283
13433TIP3   OH261789   4.447   3.460   6.139 -0.0646  0.1870  0.5423
13433TIP3    H161790   4.368   3.505   6.110 -0.1463 -0.3499 -0.0775
13433TIP3    H261791   4.480   3.515   6.211  0.1478  1.5469 -0.5402
13434TIP3   OH261792   5.055   1.647  14.808 -0.5635  0.1773  0.3836
13434TIP3    H161793   4.964   1.617  14.806 -0.0194 -1.5708  0.3911
13434TIP3    H261794   5.077   1.652  14.901 -0.2122 -0.8811  0.3707
13435TIP3   OH261795   6.448   2.018   5.418  0.0180 -0.0903  0.6607
13435TIP3    H161796   6.391   1.994   5.491 -1.3087  0.8519 -0.0250
13435TIP3    H261797   6.513   2.076   5.456 -0.9814  0.8222  1.0265
13436TIP3   OH261798   1.836   1.108   0.949  0.3407 -0.8092  0.6819
13436TIP3    H161799   1.831   1.080   0.857 -0.4678 -3.3348  1.4100
13436TIP3    H261800   1.748   1.139   0.969 -0.4463 -3.2230  1.3668
13437TIP3   OH261801   6.358   1.664  15.121 -0.6977  0.6717 -0.3755
13437TIP3    H161802   6.408   1.630  15.195 -1.7548 -1.6236 -0.5986
13437TIP3    H261803   6.271   1.682  15.157 -0.0644  3.7646 -0.1768
13438TIP3   OH261804   3.587   1.600   5.711  0.1263  0.0983  0.1718
13438TIP3    H161805   3.503   1.556   5.703  1.3007 -2.8178  2.2197
13438TIP3    H261806   3.596   1.618   5.804  1.9429 -0.0966  0.0681
13439TIP3   OH261807   1.857   1.051  11.706 -0.5165  0.0928 -0.1170
13439TIP3    H161808   1.832   1.118  11.770  1.6445  1.3215 -0.4497
13439TIP3    H261809   1.792   0.982  11.717 -1.1034  0.9341  2.3448
13440TIP3   OH261810   1.683   5.459  13.788 -0.1267  0.6877 -0.1706
13440TIP3    H161811   1.628   5.511  13.729 -0.0847  2.7593  1.4863
13440TIP3    H261812   1.621   5.413  13.844 -0.1696  0.3559 -0.4909
13441TIP3   OH261813   6.197   3.725   5.891  0.2002 -0.0549  0.0214
13441TIP3    H161814   6.117   3.710   5.839 -0.0095  1.0179  0.0155
13441TIP3    H261815   6.210   3.820   5.888  2.3937 -0.3332 -1.3246
13442TIP3   OH261816   4.350   2.522   2.139 -0.0701  0.3275 -0.3664
13442TIP3    H161817   4.256   2.505   2.137 -0.3115  1.1653  1.5027
13442TIP3    H261818   4.358   2.606   2.185  1.6085 -0.0707  0.1442
13443TIP3   OH261819   3.288   3.133   3.475 -0.0143 -0.2136  0.4548
13443TIP3    H161820   3.223   3.065   3.491  0.1397  0.1536  3.2627
13443TIP3    H261821   3.328   3.147   3.561  1.0076  2.3472 -0.3594
13444TIP3   OH261822   4.351   5.701   2.380  0.7597  0.9101  0.1579
13444TIP3    H161823   4.308   5.618   2.358  0.7845  1.2280 -1.2102
13444TIP3    H261824   4.279   5.758   2.407  0.5606  0.8397 -0.2074
13445TIP3   OH261825   6.082   3.815  16.284 -0.6498 -0.2939 -0.0110
13445TIP3    H161826   6.087   3.829  16.379  0.0087 -0.6473  0.0077
13445TIP3    H261827   5.996   3.776  16.271 -0.0100 -2.0261  0.6783
13446TIP3   OH261828   3.426   0.279   5.709  0.7450 -1.3300 -0.0510
13446TIP3    H161829   3.519   0.290   5.726  0.9398 -2.7784 -0.0333
13446TIP3    H261830   3.392   0.236   5.788 -0.1531  0.0059  0.3418
13447TIP3   OH261831   6.495   3.091   5.310 -0.2555 -0.9503  0.1338
13447TIP3    H161832   6.480   3.169   5.257  0.3092 -1.4578 -0.7993
13447TIP3    H261833   6.581   3.107   5.351 -0.5731 -0.6736  0.7089
13448TIP3   OH261834   0.206   2.843  15.718  0.2877  0.5968  0.1361
13448TIP3    H161835   0.120   2.883  15.724  0.4245  1.0464 -0.7112
13448TIP3    H261836   0.255   2.879  15.792 -0.1903  0.5032  0.4946
13449TIP3   OH261837   6.410   3.826   1.215 -0.5288  0.2784 -0.2884
13449TIP3    H161838   6.326   3.871   1.207 -1.0158 -0.7540 -1.1654
13449TIP3    H261839   6.393   3.751   1.272 -0.4765 -0.5184 -1.2809
13450TIP3   OH261840   0.656   0.490  15.426 -0.7552  0.0924 -0.0722
13450TIP3    H161841   0.728   0.428  15.425 -1.5154 -0.8641  1.2901
13450TIP3    H261842   0.578   0.437  15.412 -1.6380  0.3144  3.1127
13451TIP3   OH261843   0.446   2.290   4.091  0.0181 -0.1751  0.0932
13451TIP3    H161844   0.389   2.290   4.015  0.6269  1.0683 -0.4020
13451TIP3    H261845   0.443   2.381   4.123 -0.7678 -0.8224  1.9828
13452TIP3   OH261846   5.216   0.823   0.541  0.1799  0.4534  0.4845
13452TIP3    H161847   5.132   0.821   0.586 -0.3433  0.8977 -0.4525
13452TIP3    H261848   5.279   0.794   0.607 -0.8586 -1.1104  0.8350
13453TIP3   OH261849   1.868   0.112   5.410  0.5057 -0.1791  0.0379
13453TIP3    H161850   1.859   0.186   5.470  1.4420  0.0279 -0.0566
13453TIP3    H261851   1.874   0.035   5.467  0.5792 -0.0678  0.1804
13454TIP3   OH261852   4.123   3.348   6.173 -0.2846  0.0845 -0.3967
13454TIP3    H161853   4.148   3.433   6.210 -1.5286  0.6003 -0.6703
13454TIP3    H261854   4.090   3.368   6.086 -0.2330 -0.7325 -0.6149
13455TIP3   OH261855   0.980   6.666  13.472  0.1517 -0.1093 -0.6284
13455TIP3    H161856   1.052   6.609  13.499  1.6870  1.7842 -0.5521
13455TIP3    H261857   1.016   6.718  13.401 -1.2302  0.7464 -0.7374
13456TIP3   OH261858   3.804   5.607  16.704 -0.3135 -0.2114  0.0216
13456TIP3    H161859   3.788   5.519  16.739  2.5144 -0.3424  1.2195
13456TIP3    H261860   3.799   5.596  16.609  0.5757 -1.8206  0.1269
13457TIP3   OH261861   0.632   1.560  14.016 -0.3728 -0.1206 -0.4793
13457TIP3    H161862   0.537   1.556  14.027 -0.4654  0.0976 -1.1959
13457TIP3    H261863   0.646   1.566  13.922  0.4586 -3.1503 -0.6593
13458TIP3   OH261864   2.472   3.205   2.151 -0.0566 -0.5261  0.4071
13458TIP3    H161865   2.392   3.229   2.197  0.2400 -0.4593  0.8916
13458TIP3    H261866   2.469   3.110   2.146 -0.9154 -0.4630 -0.9435
13459TIP3   OH261867   1.222   2.790  14.386  0.1487  0.6435 -0.3022
13459TIP3    H161868   1.301   2.736  14.394 -0.9369 -0.6989  2.8616
13459TIP3    H261869   1.162   2.737  14.334  0.0398 -0.0515  0.5093
13460TIP3   OH261870   4.339   5.445   0.996 -0.5372 -0.1962  0.1356
13460TIP3    H161871   4.390   5.526   1.002  1.9692 -1.6928  0.7571
13460TIP3    H261872   4.279   5.460   0.922 -0.2325  2.2175  0.2813
13461TIP3   OH261873   0.932   4.969  14.446  0.1237  0.5015 -0.1952
13461TIP3    H161874   0.890   5.010  14.521 -1.6562  1.5908 -1.6918
13461TIP3    H261875   0.898   4.880  14.445  0.6181  0.2928  0.5980
13462TIP3   OH261876   5.464   5.446  12.899  0.3489  0.0944 -0.2398
13462TIP3    H161877   5.406   5.420  12.827  0.5682 -0.2894 -0.2793
13462TIP3    H261878   5.439   5.536  12.918 -0.5687 -0.2148  0.0450
13463TIP3   OH261879   1.524   3.646   3.956 -0.6253 -0.0113 -0.2327
13463TIP3    H161880   1.556   3.561   3.926 -0.9510 -0.5635  0.9322
13463TIP3    H261881   1.598   3.685   4.003 -0.6021  0.1802 -0.4254
13464TIP3   OH261882   1.641   2.534  16.188  0.6741 -0.2020  0.4250
13464TIP3    H161883   1.601   2.448  16.198  0.6111  0.0006  2.2242
13464TIP3    H261884   1.734   2.519  16.207  0.8480 -0.0457 -0.2735
13465TIP3   OH261885   6.033   4.205   6.173  0.9384  0.1361  0.1755
13465TIP3    H161886   6.037   4.249   6.258 -1.3365 -1.9479  1.4814
13465TIP3    H261887   6.123   4.210   6.139  1.6190  2.1776  2.0472
13466TIP3   OH261888   1.257   5.202  12.529 -0.6585 -0.0667 -0.1381
13466TIP3    H161889   1.318   5.267  12.564 -0.0878 -0.2392 -0.8045
13466TIP3    H261890   1.253   5.134  12.595 -1.6749  0.8778  0.8272
13467TIP3   OH261891   4.836   5.106   5.643  0.0117  0.0731 -0.4716
13467TIP3    H161892   4.895   5.085   5.570  0.4518  1.0737 -0.4274
13467TIP3    H261893   4.884   5.171   5.694 -0.6487  0.0149  0.2357
13468TIP3   OH261894   0.993   4.891   0.826  0.3806 -0.2017  0.4216
13468TIP3    H161895   1.009   4.803   0.858 -0.7075 -0.6022 -0.0666
13468TIP3    H261896   0.935   4.930   0.892  2.1247  0.7360  1.4654
13469TIP3   OH261897   0.207   1.444  14.683  0.4985  0.1635 -0.2675
13469TIP3    H161898   0.214   1.382  14.756  0.1084 -0.1260 -0.4660
13469TIP3    H261899   0.132   1.412  14.633 -0.9125  1.8719  0.6542
13470TIP3   OH261900   0.385   4.088  14.384 -0.2953 -0.4375 -0.9203
13470TIP3    H161901   0.375   4.139  14.464 -2.4682 -1.4715 -0.4686
13470TIP3    H261902   0.388   4.154  14.314 -0.7873  0.3842 -0.1914
13471TIP3   OH261903   3.637   1.103  12.357 -0.1349  0.2903  0.0894
13471TIP3    H161904   3.601   1.024  12.397 -0.1820  0.4496  0.3654
13471TIP3    H261905   3.727   1.107  12.389  0.2430 -0.3014 -0.8842
13472TIP3   OH261906   5.010   2.671  14.708 -0.0037 -0.2137  0.0765
13472TIP3    H161907   4.935   2.672  14.768  0.5411  0.3407  0.7609
13472TIP3    H261908   5.012   2.581  14.675 -0.8917 -0.2721  0.1444
13473TIP3   OH261909   4.460   3.318   2.190 -0.4307  0.3166  0.1731
13473TIP3    H161910   4.554   3.336   2.182 -0.8743  2.5913 -0.6594
13473TIP3    H261911   4.448   3.294   2.282  1.2242 -2.0178 -0.1564
13474TIP3   OH261912   3.796   5.677  13.530 -0.6235 -0.5683  0.2576
13474TIP3    H161913   3.809   5.771  13.520 -1.6833 -0.3062  1.2113
13474TIP3    H261914   3.873   5.638  13.487  0.6285  0.7558  1.1785
13475TIP3   OH261915   4.637   3.360  12.118  0.1215  0.0015  0.3768
13475TIP3    H161916   4.706   3.307  12.079  1.0619  0.8318  0.8915
13475TIP3    H261917   4.652   3.448  12.084  1.0762  0.7999  2.6729
13476TIP3   OH261918   0.313   5.366  12.368 -0.0221  0.5102  0.5829
13476TIP3    H161919   0.400   5.405  12.372  0.5557 -0.5889 -0.5427
13476TIP3    H261920   0.276   5.398  12.286  1.1612 -2.5101 -1.3261
13477TIP3   OH261921   5.068   0.103   0.415 -0.6964 -0.1831  0.1452
13477TIP3    H161922   5.131   0.163   0.376 -1.7208  0.0910 -1.1304
13477TIP3    H261923   5.027   0.154   0.485  0.8085 -0.5275  1.3458
13478TIP3   OH261924   3.839   0.196  11.469 -0.2089  0.2131 -0.7605
13478TIP3    H161925   3.928   0.217  11.496 -1.3751  3.0569  1.3103
13478TIP3    H261926   3.811   0.127  11.530 -0.2609  1.1602  0.3031
13479TIP3   OH261927   3.231   1.871   2.281  0.1457 -0.2886  0.2139
13479TIP3    H161928   3.255   1.933   2.212 -1.8397  0.1065 -0.1606
13479TIP3    H261929   3.288   1.894   2.354 -0.4302  1.9249  0.0433
13480TIP3   OH261930   1.463   5.354  12.368  0.0793  0.0682 -0.0320
13480TIP3    H161931   1.534   5.360  12.432  0.2271  1.5114 -0.3015
13480TIP3    H261932   1.391   5.405  12.405 -0.5077 -0.6542 -0.1627
13481TIP3   OH261933   4.424   2.624  13.664 -0.9439  0.4952  0.2107
13481TIP3    H161934   4.518   2.612  13.649 -0.8205  1.2909  0.2916
13481TIP3    H261935   4.382   2.552  13.616 -0.1243 -2.5950  3.6373
13482TIP3   OH261936   5.218   1.841  12.176 -0.1407 -0.0190 -0.3660
13482TIP3    H161937   5.215   1.883  12.262 -1.9679  0.2307 -0.5136
13482TIP3    H261938   5.160   1.765  12.185  0.8344 -0.8487 -0.9527
13483TIP3   OH261939   3.834   3.348  14.537  0.9545  0.0884 -0.3316
13483TIP3    H161940   3.818   3.262  14.500 -0.6663  0.0301  0.4387
13483TIP3    H261941   3.839   3.334  14.631  2.0601  0.6557 -0.2842
13484TIP3   OH261942   5.493   5.301   5.148 -0.0472 -0.4161  0.2914
13484TIP3    H161943   5.480   5.220   5.197  1.9339 -0.0193  1.5804
13484TIP3    H261944   5.414   5.353   5.165  0.4855 -0.3549  3.0434
13485TIP3   OH261945   4.792   3.183  15.409 -0.2195  0.1382  0.6113
13485TIP3    H161946   4.729   3.129  15.362 -0.2739  1.8681 -1.4911
13485TIP3    H261947   4.738   3.238  15.466 -0.4911  0.4998  0.0160
13486TIP3   OH261948   4.794   1.745   0.644 -0.2415 -0.1824  0.4629
13486TIP3    H161949   4.734   1.794   0.701 -0.8904  0.7881 -0.9769
13486TIP3    H261950   4.737   1.689   0.592  0.1971 -0.1188 -0.0977
13487TIP3   OH261951   6.330   2.888   1.649  0.5111 -0.2012  0.0869
13487TIP3    H161952   6.246   2.851   1.677  1.1973 -1.4423  0.5724
13487TIP3    H261953   6.325   2.980   1.676  0.0304 -0.6890  1.8286
13488TIP3   OH261954   4.906   2.934  13.606 -0.9168  0.1152 -0.0873
13488TIP3    H161955   4.993   2.952  13.569 -1.3050 -0.6575 -1.4291
13488TIP3    H261956   4.914   2.847  13.645 -0.1019  1.4743  3.0629
13489TIP3   OH261957   3.967   4.701  15.717  0.4061  0.2445 -0.5604
13489TIP3    H161958   3.986   4.757  15.793 -1.5532 -0.1193  0.2428
13489TIP3    H261959   3.934   4.762  15.651 -0.4298  0.2457 -0.1611
13490TIP3   OH261960   6.765   0.541  15.680 -0.2327 -0.6818  0.3983
13490TIP3    H161961   6.813   0.604  15.625 -2.6054  0.3270 -0.6920
13490TIP3    H261962   6.775   0.574  15.769 -1.5451  1.4564 -0.1598
13491TIP3   OH261963   4.904   6.559   4.943  0.1145 -0.1950 -0.1283
13491TIP3    H161964   4.826   6.584   4.993  1.0208 -0.7495  1.6583
13491TIP3    H261965   4.975   6.610   4.983  0.7946 -0.2349 -1.2487
13492TIP3   OH261966   5.313   6.209   5.238  0.0686 -0.0847 -0.3322
13492TIP3    H161967   5.371   6.281   5.211 -0.7922  0.3425 -1.1124
13492TIP3    H261968   5.357   6.130   5.207  0.4508  0.2007 -0.5271
13493TIP3   OH261969   1.361   2.017  11.672 -0.1158  0.6731  0.6110
13493TIP3    H161970   1.434   2.077  11.658  0.0818  1.1030  3.0983
13493TIP3    H261971   1.401   1.934  11.696 -0.4471  0.3993  0.2454
13494TIP3   OH261972   6.592   3.885  11.267  0.5665 -0.0531  0.5675
13494TIP3    H161973   6.686   3.865  11.267  0.3001 -1.5024  1.0052
13494TIP3    H261974   6.560   3.844  11.348 -0.5435 -0.1227  0.1057
13495TIP3   OH261975   1.334   3.981  12.246  0.3104  0.0267  0.3709
13495TIP3    H161976   1.309   3.958  12.157 -1.1080 -1.9109  1.1970
13495TIP3    H261977   1.264   4.040  12.276  1.1803  1.2939  0.0013
13496TIP3   OH261978   5.728   5.271   1.814 -0.4491 -0.0198  0.0837
13496TIP3    H161979   5.673   5.349   1.821  1.6384  1.5841 -0.6224
13496TIP3    H261980   5.797   5.295   1.752  0.3903 -2.3543  0.0298
13497TIP3   OH261981   1.912   3.569  11.531 -0.7174 -0.5647 -0.1212
13497TIP3    H161982   1.834   3.625  11.530 -0.0374  0.4413  0.9929
13497TIP3    H261983   1.981   3.624  11.567  0.2393 -1.8061  0.0188
13498TIP3   OH261984   0.858   3.792  12.260  0.5947 -0.2877 -0.0603
13498TIP3    H161985   0.855   3.880  12.223 -2.4288 -0.1848  0.1489
13498TIP3    H261986   0.771   3.756  12.241  0.7955 -2.2128  2.2341
13499TIP3   OH261987   4.740   0.724   1.405  0.1989 -0.3427 -0.2163
13499TIP3    H161988   4.705   0.697   1.320  0.8251 -0.8438 -0.3247
13499TIP3    H261989   4.807   0.658   1.425 -0.9316 -1.0902  1.3621
13500TIP3   OH261990   1.949   1.194   1.574 -0.3441  0.2191 -0.2960
13500TIP3    H161991   1.879   1.175   1.637  1.0867  0.8798  1.6066
13500TIP3    H261992   1.922   1.151   1.494 -2.0607 -1.0511  0.8928
13501TIP3   OH261993   3.500   5.035  15.282 -0.2291  0.2139  0.2078
13501TIP3    H161994   3.529   5.104  15.342  0.3753 -0.8211  1.1719
13501TIP3    H261995   3.551   5.049  15.203  1.5816 -0.4216  1.1946
13502TIP3   OH261996   2.875   1.833  12.303  0.2547  0.2835 -0.1325
13502TIP3    H161997   2.830   1.916  12.317 -0.9030 -0.4219  0.5136
13502TIP3    H261998   2.812   1.780  12.253  1.7963  0.4994 -2.4641
13503TIP3   OH261999   0.821   0.544  10.757  0.7933 -0.1591  0.0010
13503TIP3    H162000   0.837   0.601  10.681 -0.8011 -1.1189 -1.1212
13503TIP3    H262001   0.781   0.465  10.719  1.9018 -1.5714  1.6291
13504TIP3   OH262002   2.800   3.322   1.858 -0.1218 -0.5846  0.4159
13504TIP3    H162003   2.730   3.387   1.849 -0.1826 -0.6181  0.6348
13504TIP3    H262004   2.849   3.328   1.776 -0.4786 -0.6733  0.1934
13505TIP3   OH262005   5.861   6.380  13.210 -0.3491  0.2739 -0.0331
13505TIP3    H162006   5.820   6.303  13.170  0.6676 -1.3598  1.8314
13505TIP3    H262007   5.806   6.397  13.287 -0.2450  1.0858 -0.1389
13506TIP3   OH262008   5.811   4.616  15.804 -0.2419 -0.3081  0.2658
13506TIP3    H162009   5.789   4.648  15.716  0.1806  1.3636  0.7420
13506TIP3    H262010   5.727   4.591  15.842 -0.4531 -0.8319 -0.5150
13507TIP3   OH262011   1.260   1.446   2.790  0.4907 -0.3310  0.1186
13507TIP3    H162012   1.283   1.535   2.763  1.2481 -0.8005 -0.8542
13507TIP3    H262013   1.170   1.453   2.824  0.2621  0.6585 -0.6553
13508TIP3   OH262014   6.012   1.373   2.369 -0.8631  0.0996  0.1249
13508TIP3    H162015   6.073   1.443   2.348  0.1869 -0.5511  0.9068
13508TIP3    H262016   5.978   1.395   2.455 -4.3310  2.1841 -1.5441
13509TIP3   OH262017   0.735   2.068  13.187 -0.0156 -0.3107 -0.2801
13509TIP3    H162018   0.683   2.112  13.254  2.1223  1.0289  0.6424
13509TIP3    H262019   0.672   2.023  13.132 -1.8721 -1.9525  2.9318
13510TIP3   OH262020   4.237   4.295  12.818  0.2127  0.3137  0.1506
13510TIP3    H162021   4.229   4.369  12.879 -2.2236  0.4194 -0.1969
13510TIP3    H262022   4.224   4.217  12.873 -1.2629  0.3733 -0.0917
13511TIP3   OH262023   6.350   1.920  12.273  0.1928  0.0687  0.1577
13511TIP3    H162024   6.267   1.872  12.274  0.5774 -0.6176 -0.2254
13511TIP3    H262025   6.404   1.873  12.210  1.3601 -0.2945  1.4028
13512TIP3   OH262026   3.463   0.108   6.268 -0.2181 -0.3126  0.1054
13512TIP3    H162027   3.478   0.116   6.174 -1.1949 -1.5687 -0.1910
13512TIP3    H262028   3.469   0.014   6.284  0.7119 -0.0421  1.4492
13513TIP3   OH262029   0.204   5.170   2.201 -0.0849 -0.3613 -0.0713
13513TIP3    H162030   0.294   5.196   2.222  0.8204 -0.2002 -3.5314
13513TIP3    H262031   0.203   5.075   2.212  0.1429 -0.2430  1.0706
13514TIP3   OH262032   0.278   2.494  12.428  0.2220  0.5876 -0.3588
13514TIP3    H162033   0.190   2.525  12.453  0.3089 -0.0424  0.8318
13514TIP3    H262034   0.262   2.412  12.382  0.1606  0.6480 -0.4442
13515TIP3   OH262035   0.173   4.649   2.948  0.5035 -0.4567  0.1393
13515TIP3    H162036   0.182   4.613   2.860 -1.9037 -3.5471  0.9664
13515TIP3    H262037   0.259   4.636   2.989  0.6053 -2.5949 -0.6250
13516TIP3   OH262038   1.718   2.508  15.809 -0.2374  0.0528  0.2901
13516TIP3    H162039   1.775   2.531  15.736  2.2069 -1.7520  1.4752
13516TIP3    H262040   1.642   2.465  15.768 -0.4752  1.8526 -1.2912
13517TIP3   OH262041   5.106   2.821   5.297 -0.0185  0.0060 -0.0140
13517TIP3    H162042   5.065   2.840   5.382  1.6917  0.7908  0.6831
13517TIP3    H262043   5.120   2.727   5.298 -2.0241 -0.3524 -0.4157
13518TIP3   OH262044   1.102   2.250   3.651 -0.0680 -0.0528  0.0173
13518TIP3    H162045   1.195   2.236   3.666 -0.5659 -2.5965  1.3231
13518TIP3    H262046   1.078   2.185   3.585 -1.2601 -0.8586  1.1947
13519TIP3   OH262047   1.612   2.985   1.608  0.0024  0.4412 -0.0283
13519TIP3    H162048   1.631   2.908   1.661  0.4090  0.6497  0.1375
13519TIP3    H262049   1.518   2.998   1.617 -0.2224 -0.5646 -0.7868
13520TIP3   OH262050   0.961   1.785  14.785 -0.2042 -0.1010 -0.1572
13520TIP3    H162051   1.018   1.844  14.736  0.4805  0.7905  1.6095
13520TIP3    H262052   0.986   1.697  14.756  1.2583  0.3303 -0.2806
13521TIP3   OH262053   3.827   1.874  13.500 -0.3408 -0.3129 -0.5144
13521TIP3    H162054   3.903   1.837  13.545 -0.5492 -1.3527 -0.9961
13521TIP3    H262055   3.765   1.893  13.570  0.5700  1.1480 -0.0392
13522TIP3   OH262056   1.599   2.655   4.907 -0.1630 -0.0181 -0.2328
13522TIP3    H162057   1.684   2.683   4.871  0.6118 -1.2375  0.5768
13522TIP3    H262058   1.571   2.583   4.851  1.4764 -2.5275  1.9299
13523TIP3   OH262059   4.551   0.029  10.802 -0.2885  0.7334 -0.4294
13523TIP3    H162060   4.555  -0.059  10.765 -0.5134  0.5477 -0.0103
13523TIP3    H262061   4.634   0.069  10.776 -0.7377  0.8452 -1.7327
13524TIP3   OH262062   6.609   2.346   3.180  0.0016 -0.4821  0.1752
13524TIP3    H162063   6.694   2.316   3.214 -0.4011 -0.1766  1.5001
13524TIP3    H262064   6.617   2.441   3.176 -0.6314 -0.3548  1.3777
13525TIP3   OH262065   0.863   5.206  16.511  0.1134  0.0439 -0.1742
13525TIP3    H162066   0.913   5.207  16.429  1.9247 -0.0917  0.8870
13525TIP3    H262067   0.824   5.118  16.513 -0.1011  0.1083 -0.9624
13526TIP3   OH262068   0.241   0.467   2.482 -0.1415 -0.0751 -0.2928
13526TIP3    H162069   0.239   0.494   2.574 -1.8464 -1.0106 -0.0081
13526TIP3    H262070   0.170   0.517   2.441  0.6110  0.3415 -1.1141
13527TIP3   OH262071   1.632   0.429  13.883  0.6544 -0.6635  0.6940
13527TIP3    H162072   1.721   0.466  13.888 -0.0905  1.8978 -1.8818
13527TIP3    H262073   1.630   0.383  13.799 -0.6218 -0.0707  0.3762
13528TIP3   OH262074   6.081   0.560   4.759  0.9167  0.0646  0.0931
13528TIP3    H162075   6.033   0.642   4.771  0.6307 -0.1469  0.4407
13528TIP3    H262076   6.114   0.564   4.670 -0.8993 -0.3725 -0.6468
13529TIP3   OH262077   2.050   0.046  12.562  0.1891  0.4545 -0.2355
13529TIP3    H162078   2.049   0.108  12.635  1.6734 -0.2735  0.4492
13529TIP3    H262079   2.065   0.099  12.484  2.7528  0.8867  0.4859
13530TIP3   OH262080   6.759   3.137   1.927 -0.1655  0.5557 -0.2613
13530TIP3    H162081   6.780   3.187   2.006 -1.1390 -1.3586  1.2825
13530TIP3    H262082   6.664   3.146   1.918 -0.3546 -0.9253  0.0265
13531TIP3   OH262083   6.485   1.583   4.137  0.1860  0.4030  0.4648
13531TIP3    H162084   6.513   1.501   4.095 -0.7827  0.5070 -0.4289
13531TIP3    H262085   6.548   1.596   4.207 -0.4765 -1.9094  1.6187
13532TIP3   OH262086   1.208   6.452   2.100  0.4172 -0.0778  0.1157
13532TIP3    H162087   1.180   6.434   2.190  0.8271 -0.4674  0.1678
13532TIP3    H262088   1.126   6.464   2.052  0.1958  0.1010  0.5341
13533TIP3   OH262089   2.361   3.866  12.278 -0.1795  0.1678  0.5638
13533TIP3    H162090   2.378   3.876  12.372  0.7709 -2.1150  0.7125
13533TIP3    H262091   2.297   3.795  12.273  0.3674 -0.2726 -0.5200
13534TIP3   OH262092   4.880   3.660  13.179 -0.0054  0.0566  0.3911
13534TIP3    H162093   4.910   3.689  13.265  3.1256  1.0911 -0.9245
13534TIP3    H262094   4.809   3.720  13.156 -1.2276 -0.5379  2.3676
13535TIP3   OH262095   2.901   0.401   5.740 -0.1994 -1.1424  0.3194
13535TIP3    H162096   2.971   0.462   5.763 -0.4014 -1.1232  0.8912
13535TIP3    H262097   2.934   0.315   5.768  0.5273 -1.4791 -1.4171
13536TIP3   OH262098   4.223   5.288   6.489 -0.3027 -0.3753  0.0628
13536TIP3    H162099   4.148   5.244   6.448 -0.7247  0.6919 -0.3460
13536TIP3    H262100   4.298   5.230   6.471 -0.7125 -0.5542 -1.1167
13537TIP3   OH262101   6.196   2.821   5.743 -1.0780 -0.1325 -0.1797
13537TIP3    H162102   6.215   2.749   5.803  1.3556  1.0926  0.6334
13537TIP3    H262103   6.106   2.848   5.766 -1.3513 -1.6867  0.7448
13538TIP3   OH262104   2.102   1.373  14.546  0.0408  0.3163 -0.4613
13538TIP3    H162105   2.067   1.462  14.537 -0.0916  0.2888 -0.2239
13538TIP3    H262106   2.116   1.362  14.640  0.3987  0.2144 -0.5238
13539TIP3   OH262107   1.906   5.031  15.793  0.2699  0.9609  0.0517
13539TIP3    H162108   1.951   5.013  15.876  0.2472 -0.2118 -0.1695
13539TIP3    H262109   1.946   4.970  15.731  0.0422  1.5897 -0.7223
13540TIP3   OH262110   0.786   5.593   2.912  0.6675 -0.6412  0.1857
13540TIP3    H162111   0.747   5.669   2.869  1.2677 -0.8844 -0.8222
13540TIP3    H262112   0.853   5.563   2.851  0.2146 -2.1914  0.4206
13541TIP3   OH262113   5.752   0.770   3.564  0.1262  0.0307  0.3221
13541TIP3    H162114   5.714   0.718   3.492 -0.1192 -0.0305  0.4952
13541TIP3    H262115   5.842   0.738   3.572 -0.1226 -0.6040  0.6476
13542TIP3   OH262116   5.149   5.449   1.631 -0.2405 -0.1455  0.1919
13542TIP3    H162117   5.189   5.436   1.545  0.0236  1.0775  0.1121
13542TIP3    H262118   5.216   5.419   1.693  0.8473  1.8353  0.0594
13543TIP3   OH262119   3.416   2.292  17.104  0.2361 -0.0925  0.1558
13543TIP3    H162120   3.418   2.317  17.196 -0.0865 -0.0687  0.1564
13543TIP3    H262121   3.328   2.257  17.090  0.7894 -1.5992  0.2460
13544TIP3   OH262122   6.057   2.690  12.377  0.1144  0.2710  0.5033
13544TIP3    H162123   6.009   2.761  12.336  1.6067  0.7473 -0.4836
13544TIP3    H262124   6.090   2.637  12.304  0.1134 -0.7063  1.1872
13545TIP3   OH262125   3.753   6.074  15.735  0.0276  0.2720  0.3814
13545TIP3    H162126   3.810   6.082  15.812  0.3735 -1.9781  0.4217
13545TIP3    H262127   3.672   6.036  15.770 -0.4173  0.7494 -0.1271
13546TIP3   OH262128   2.518   3.466   4.399  0.5096 -0.5543  0.3702
13546TIP3    H162129   2.483   3.555   4.403 -0.2065 -0.4976 -3.2288
13546TIP3    H262130   2.591   3.472   4.338  0.3371 -2.4403 -0.0883
13547TIP3   OH262131   3.017   6.797   4.069 -0.4089 -0.2713  0.3278
13547TIP3    H162132   2.943   6.822   4.013 -0.1339 -1.1498 -0.4349
13547TIP3    H262133   3.024   6.702   4.060 -1.4166 -0.7344  3.1642
13548TIP3   OH262134   4.861   1.675   5.729  0.1536 -0.4560  0.4494
13548TIP3    H162135   4.797   1.721   5.673  1.2001 -0.1479 -0.5269
13548TIP3    H262136   4.807   1.620   5.786 -0.9280 -2.5263 -2.3423
13549TIP3   OH262137   6.442   0.195  13.031 -0.1875 -0.0177 -0.3405
13549TIP3    H162138   6.528   0.175  12.994  0.4207  1.8909 -0.0819
13549TIP3    H262139   6.409   0.268  12.978 -0.5454  0.8924  1.0647
13550TIP3   OH262140   6.447   1.484  11.653  0.7363  0.2218 -1.0561
13550TIP3    H162141   6.469   1.567  11.610 -1.2440  2.1478  1.3101
13550TIP3    H262142   6.366   1.456  11.610 -0.1833  1.1262  0.0139
13551TIP3   OH262143   3.255   5.641   3.851 -0.5865 -0.3962  0.3884
13551TIP3    H162144   3.272   5.612   3.941 -2.6592  2.0044  1.6709
13551TIP3    H262145   3.160   5.638   3.843 -0.4220 -1.3980 -2.1063
13552TIP3   OH262146   3.757   2.371   5.853  0.0666  0.1897 -0.7779
13552TIP3    H162147   3.758   2.295   5.912 -0.5238  0.9277  0.2127
13552TIP3    H262148   3.765   2.446   5.911 -0.9317  0.9684 -1.6069
13553TIP3   OH262149   3.507   3.149  13.180 -0.0708 -0.7481 -0.1517
13553TIP3    H162150   3.457   3.109  13.108 -0.6811  0.8993 -0.7074
13553TIP3    H262151   3.444   3.206  13.224  1.1292  0.8999 -0.4691
13554TIP3   OH262152   4.068   5.667  12.636  0.0953  0.5433 -0.3121
13554TIP3    H162153   4.067   5.640  12.728  1.9082  1.6690  0.0911
13554TIP3    H262154   4.146   5.624  12.600 -1.3485 -1.0343 -1.7513
13555TIP3   OH262155   2.728   4.086  15.628 -0.6625  0.5348 -0.2301
13555TIP3    H162156   2.719   3.992  15.616  1.7943  0.1363  0.3532
13555TIP3    H262157   2.748   4.120  15.541 -1.8573  0.5785 -0.4950
13556TIP3   OH262158   2.685   1.130   0.001  0.1310  0.3548 -0.2444
13556TIP3    H162159   2.633   1.077  -0.059  1.2607  0.8622 -1.7455
13556TIP3    H262160   2.662   1.098   0.088 -0.0357 -1.8173 -1.0394
13557TIP3   OH262161   2.453   2.994   2.882 -0.1329  0.4163  0.0744
13557TIP3    H162162   2.403   2.915   2.860  0.3610  0.2347 -0.4071
13557TIP3    H262163   2.386   3.059   2.901 -0.6877  0.8753 -2.9024
13558TIP3   OH262164   3.768   5.656  11.173  0.1033  0.0578  0.7290
13558TIP3    H162165   3.793   5.618  11.089 -2.2556  0.6849 -0.3319
13558TIP3    H262166   3.714   5.588  11.215 -1.3104  0.8816  0.3139
13559TIP3   OH262167   2.048   1.925   5.373 -1.1256  0.1970 -0.2952
13559TIP3    H162168   2.066   1.867   5.300 -0.6838  0.9396 -0.7961
13559TIP3    H262169   2.041   2.012   5.334  2.3113  1.1453  0.8171
13560TIP3   OH262170   0.677   5.222   2.613 -0.2195  0.3499  0.4096
13560TIP3    H162171   0.688   5.317   2.611 -0.1189  0.3308 -0.0361
13560TIP3    H262172   0.583   5.209   2.599  0.0905  0.3165 -2.0763
13561TIP3   OH262173   5.287   4.167  11.004 -0.7251  0.3176 -0.4099
13561TIP3    H162174   5.200   4.201  10.983 -1.2946 -1.8350 -2.0091
13561TIP3    H262175   5.271   4.077  11.033  0.7906  0.7578  2.1212
13562TIP3   OH262176   3.160   4.338  14.848 -0.2268 -0.0520 -0.2321
13562TIP3    H162177   3.117   4.253  14.859  0.9910 -0.6359  0.1307
13562TIP3    H262178   3.192   4.361  14.935 -0.0492  0.5157 -0.4403
13563TIP3   OH262179   6.730   0.553  15.350 -0.1683 -0.3299  0.0917
13563TIP3    H162180   6.702   0.644  15.362  1.2879  0.1220  0.2743
13563TIP3    H262181   6.694   0.507  15.426 -2.0019 -0.2100 -0.6457
13564TIP3   OH262182   3.923   2.835   0.464  0.1780  0.0698 -0.0974
13564TIP3    H162183   3.888   2.895   0.398 -1.1756  0.3010  0.7818
13564TIP3    H262184   4.018   2.845   0.458  0.0853  0.3835 -1.7125
13565TIP3   OH262185   6.676   1.750   4.276 -0.6684  0.1832 -0.2463
13565TIP3    H162186   6.676   1.824   4.337 -0.4753 -1.3470  1.6889
13565TIP3    H262187   6.698   1.789   4.191  2.7799  1.9230  1.2541
13566TIP3   OH262188   1.270   4.203  11.237 -0.7742 -0.1194 -0.0446
13566TIP3    H162189   1.325   4.258  11.181  1.1161 -1.0429  0.8216
13566TIP3    H262190   1.233   4.138  11.177 -0.4123  0.1303 -0.5545
13567TIP3   OH262191   2.817   1.224   2.444 -0.3669  0.1708 -0.5967
13567TIP3    H162192   2.896   1.270   2.474 -0.2757  1.3245 -2.4739
13567TIP3    H262193   2.813   1.146   2.499  2.2113 -0.0311 -0.5866
13568TIP3   OH262194   2.642   3.022  16.463 -0.4392 -0.4322 -0.6290
13568TIP3    H162195   2.715   3.061  16.512 -1.3004  1.2909 -0.6548
13568TIP3    H262196   2.684   2.958  16.406  0.7790 -1.2566  1.1039
13569TIP3   OH262197   1.529   6.368  12.756 -0.2817  0.0697 -0.6613
13569TIP3    H162198   1.621   6.341  12.753 -0.5727 -1.5289  1.6584
13569TIP3    H262199   1.497   6.353  12.667  1.3586 -0.7299 -1.1641
13570TIP3   OH262200   4.463   5.796  13.105 -0.4152 -0.2264 -0.4824
13570TIP3    H162201   4.539   5.849  13.129 -2.0156  2.0533 -0.2244
13570TIP3    H262202   4.500   5.726  13.050  1.7306  1.4396 -1.2987
13571TIP3   OH262203   4.987   4.368   5.708  0.1745 -0.8227  0.4397
13571TIP3    H162204   5.055   4.405   5.651 -0.7445  0.2251 -0.0135
13571TIP3    H262205   5.010   4.398   5.796 -0.5840  0.9707  0.0769
13572TIP3   OH262206   2.028   2.767  14.519  0.9023 -0.6144  0.0809
13572TIP3    H162207   2.008   2.720  14.438  2.8580 -0.5528 -0.5060
13572TIP3    H262208   1.964   2.837  14.524 -0.4699 -1.7922 -0.3668
13573TIP3   OH262209   2.658   4.319  11.883  0.7818  0.2713 -0.7818
13573TIP3    H162210   2.595   4.355  11.820  2.1315  1.1149 -1.7154
13573TIP3    H262211   2.658   4.225  11.866 -2.0227 -0.1645  0.9669
13574TIP3   OH262212   0.879   5.789  16.094  0.2090 -0.4994  0.6045
13574TIP3    H162213   0.812   5.820  16.154  0.8276 -0.3003  1.1978
13574TIP3    H262214   0.956   5.843  16.112  0.0546  0.4214 -1.2083
13575TIP3   OH262215   1.317   1.127  17.083  0.2220  0.0757 -0.6872
13575TIP3    H162216   1.379   1.116  17.155 -0.2223  0.0908 -0.2963
13575TIP3    H262217   1.371   1.123  17.004  0.7736  0.5195 -0.3389
13576TIP3   OH262218   4.616   6.820   5.368  0.1645 -0.2428  0.5251
13576TIP3    H162219   4.688   6.881   5.382  0.7782 -1.2032  1.7265
13576TIP3    H262220   4.642   6.741   5.415 -1.3991 -0.8299  0.4592
13577TIP3   OH262221   2.711   3.119   4.398  0.3117  0.0737 -0.2373
13577TIP3    H162222   2.682   3.143   4.486 -1.2925  0.8481 -0.9323
13577TIP3    H262223   2.720   3.024   4.401 -1.9502 -0.1818  0.1848
13578TIP3   OH262224   3.304   5.131  10.098  0.2303  0.3077 -0.2557
13578TIP3    H162225   3.303   5.200  10.165  0.3678 -0.6831  0.8103
13578TIP3    H262226   3.284   5.051  10.147 -1.5413 -0.2033 -1.7091
13579TIP3   OH262227   3.147   1.917  16.646  0.4000  0.0817  0.2749
13579TIP3    H162228   3.099   1.836  16.665  1.8117 -0.4007  2.0602
13579TIP3    H262229   3.129   1.973  16.721  1.5172  0.4151  0.3093
13580TIP3   OH262230   0.139   4.448   1.539 -0.1366  0.0710  0.2022
13580TIP3    H162231   0.066   4.510   1.547 -1.8359 -1.8674  0.4198
13580TIP3    H262232   0.101   4.363   1.561  1.9857 -1.1587 -0.6182
13581TIP3   OH262233   6.444   5.190   1.028 -0.3619 -0.7120 -0.8674
13581TIP3    H162234   6.436   5.250   1.102 -0.3177 -0.5029 -1.0303
13581TIP3    H262235   6.525   5.143   1.044 -0.6619 -1.1069 -0.4671
13582TIP3   OH262236   0.750   0.413  17.133  0.2387 -0.5827 -0.4832
13582TIP3    H162237   0.713   0.498  17.159  1.1527 -0.4008  0.3026
13582TIP3    H262238   0.828   0.436  17.082  1.9844 -0.8584  1.8703
13583TIP3   OH262239   6.236   3.471   5.086 -0.2625 -0.2002 -0.0907
13583TIP3    H162240   6.327   3.500   5.096  1.2945 -3.3072 -3.0119
13583TIP3    H262241   6.199   3.532   5.022  0.6671 -0.4412 -0.8818
13584TIP3   OH262242   0.167   2.410  11.769 -0.2996 -0.0654  0.4298
13584TIP3    H162243   0.143   2.366  11.687  2.0347  2.3659 -1.7682
13584TIP3    H262244   0.233   2.353  11.808 -2.2152 -1.7913  1.2825
13585TIP3   OH262245   6.234   6.423   3.217 -0.6543  0.4363  0.6241
13585TIP3    H162246   6.254   6.394   3.306  1.2994  1.6138  0.6186
13585TIP3    H262247   6.148   6.464   3.224 -0.8932 -0.1995  1.7760
13586TIP3   OH262248   5.379   4.337  16.196  0.0513  0.4742 -0.1520
13586TIP3    H162249   5.321   4.281  16.144 -0.4502 -0.4884  1.3921
13586TIP3    H262250   5.422   4.278  16.257 -0.9454  1.7979  1.9443
13587TIP3   OH262251   3.515   0.151   1.590  0.4195 -0.6730  0.8198
13587TIP3    H162252   3.503   0.080   1.654  1.2368 -0.4543  1.2307
13587TIP3    H262253   3.596   0.194   1.618  2.0173 -1.8753 -1.5894
13588TIP3   OH262254   0.297   3.520   1.735  0.7270 -0.3199 -0.0839
13588TIP3    H162255   0.216   3.509   1.785  1.5084 -2.3202  0.8623
13588TIP3    H262256   0.299   3.613   1.713 -0.3360  0.4139  2.5031
13589TIP3   OH262257   5.582   6.823   2.489 -0.6091 -0.3310 -0.5668
13589TIP3    H162258   5.633   6.748   2.457 -0.1699 -1.1871  1.9113
13589TIP3    H262259   5.500   6.818   2.439  0.3290 -1.0023 -2.1501
13590TIP3   OH262260   0.645   4.823  16.802 -0.2835  0.5446  0.1067
13590TIP3    H162261   0.557   4.851  16.777 -0.6269  2.9637  3.3630
13590TIP3    H262262   0.704   4.880  16.751 -0.7277  1.0989  0.2041
13591TIP3   OH262263   4.413   4.348  16.478  0.0481 -0.0576  0.3018
13591TIP3    H162264   4.456   4.345  16.392  0.2094  0.7152  0.3524
13591TIP3    H262265   4.406   4.441  16.499 -1.0240 -0.1951  0.6203
13592TIP3   OH262266   6.564   2.522  10.520  0.4782  0.0709  0.4464
13592TIP3    H162267   6.574   2.578  10.597 -1.9576 -0.1923  1.0222
13592TIP3    H262268   6.538   2.582  10.449 -0.4975 -0.0898  0.6571
13593TIP3   OH262269   0.421   3.244  14.335  0.7174  0.1332 -0.1900
13593TIP3    H162270   0.372   3.294  14.269  1.5309  0.3868 -0.6111
13593TIP3    H262271   0.425   3.155  14.300  0.3841  0.0614 -0.0528
13594TIP3   OH262272   3.497   2.908   4.180  0.1305  0.1527 -0.3821
13594TIP3    H162273   3.562   2.838   4.182 -0.0174  0.0267  1.3992
13594TIP3    H262274   3.415   2.865   4.203 -0.0444  0.8205  0.2869
13595TIP3   OH262275   0.028   1.043   4.690  0.0395  0.1080 -0.1171
13595TIP3    H162276   0.085   1.108   4.732  0.6844  0.1380 -1.0048
13595TIP3    H262277   0.083   1.003   4.623 -0.8722 -0.1569 -0.7256
13596TIP3   OH262278   5.412   2.126  10.945 -0.5919 -0.0475 -1.0298
13596TIP3    H162279   5.489   2.179  10.925 -0.3595  1.1615  2.3927
13596TIP3    H262280   5.441   2.036  10.934  1.2818  0.3832  0.0007
13597TIP3   OH262281   0.941   6.022  10.467  0.4387 -0.2143  0.3213
13597TIP3    H162282   0.903   6.040  10.381  1.5089  0.7068  0.0215
13597TIP3    H262283   0.903   5.938  10.493  0.6796 -0.8741 -1.3799
13598TIP3   OH262284   4.926   3.943  16.282  0.2920  0.0422  0.4104
13598TIP3    H162285   4.897   3.941  16.373  1.0403 -0.6571  0.6484
13598TIP3    H262286   4.857   3.896  16.234  0.1226  0.0108  0.6812
13599TIP3   OH262287   0.466   1.535  11.550 -0.2217 -0.3825 -0.5136
13599TIP3    H162288   0.397   1.470  11.566 -2.0705  1.7468  0.6646
13599TIP3    H262289   0.420   1.619  11.548  2.2762  1.0777 -0.3849
13600TIP3   OH262290   2.075   2.638   2.420  0.0298 -0.1134 -0.0127
13600TIP3    H162291   2.161   2.667   2.388 -0.8352  2.9552  0.1344
13600TIP3    H262292   2.089   2.620   2.513  0.4961  0.5325  0.0510
13601TIP3   OH262293   3.039   1.743   3.305  0.3656  0.1485 -0.3955
13601TIP3    H162294   2.969   1.734   3.369  0.5978 -0.3471 -0.2076
13601TIP3    H262295   3.118   1.754   3.358  0.6553 -0.9525 -0.5824
13602TIP3   OH262296   4.638   1.253  14.262 -0.2603  0.3319 -0.1585
13602TIP3    H162297   4.672   1.263  14.351  0.1680  0.2064 -0.3047
13602TIP3    H262298   4.685   1.177  14.227 -0.4270  0.3797 -0.4924
13603TIP3   OH262299   6.792   1.523  10.741 -0.1053 -0.3204  0.4606
13603TIP3    H162300   6.803   1.448  10.800 -0.1652 -0.2170  0.6041
13603TIP3    H262301   6.804   1.487  10.653 -0.0638 -0.4845  0.5336
13604TIP3   OH262302   6.047   1.555   0.896  0.0545  0.5584 -0.1253
13604TIP3    H162303   5.955   1.560   0.919  0.6998  1.2172  2.6407
13604TIP3    H262304   6.063   1.462   0.880 -0.8979  0.3287  0.2041
13605TIP3   OH262305   0.164   3.125   2.113 -0.1651  0.4237 -0.1084
13605TIP3    H162306   0.185   3.216   2.095 -0.4871  0.5613  0.1955
13605TIP3    H262307   0.249   3.081   2.121  0.0030  0.3119 -2.0932
13606TIP3   OH262308   5.117   3.027   6.456 -0.0314  0.7719 -1.0108
13606TIP3    H162309   5.023   3.012   6.459 -0.0384  0.7778 -1.1875
13606TIP3    H262310   5.146   2.981   6.378 -0.1843  2.3878 -2.0801
13607TIP3   OH262311   4.743   3.620  12.047  0.5431 -0.3167 -0.2021
13607TIP3    H162312   4.685   3.684  12.089  0.1064 -1.1393  0.4676
13607TIP3    H262313   4.757   3.656  11.959 -0.5651  0.1602 -0.2052
13608TIP3   OH262314   1.867   3.139   4.104  0.1752 -0.0573  0.4488
13608TIP3    H162315   1.954   3.129   4.066 -0.2176 -1.5641 -0.1596
13608TIP3    H262316   1.846   3.051   4.136 -0.1703  0.8065  2.7358
13609TIP3   OH262317   0.558   4.237  15.170 -0.6009  0.1093 -0.0480
13609TIP3    H162318   0.479   4.213  15.218 -0.1056 -0.2165  0.6059
13609TIP3    H262319   0.560   4.178  15.095 -0.7601 -0.1599  0.1593
13610TIP3   OH262320   0.007   4.127  12.544  0.2581 -0.4166  0.0209
13610TIP3    H162321  -0.031   4.209  12.512 -1.5549  0.0911  3.1134
13610TIP3    H262322   0.081   4.154  12.599 -1.3687 -0.6277  2.4321
13611TIP3   OH262323   4.312   3.767  12.137  0.1060  0.8799  0.2576
13611TIP3    H162324   4.282   3.857  12.119  0.3729  0.8644 -0.3041
13611TIP3    H262325   4.293   3.753  12.229 -1.2496  1.0099  0.0125
13612TIP3   OH262326   1.434   0.541  10.472  0.1004 -0.5172  0.3843
13612TIP3    H162327   1.512   0.504  10.431  0.9820 -0.1513  1.6609
13612TIP3    H262328   1.385   0.580  10.400  1.4838 -0.0748 -0.3529
13613TIP3   OH262329   2.842   4.836   3.784 -0.2000  0.2779 -0.2153
13613TIP3    H162330   2.847   4.932   3.781 -1.2317  0.3422 -0.2323
13613TIP3    H262331   2.774   4.818   3.849  1.8136 -0.5089  1.8557
13614TIP3   OH262332   6.164   1.738  15.576  0.5109 -0.2100 -0.4455
13614TIP3    H162333   6.217   1.808  15.613 -1.4234  0.0553  2.1539
13614TIP3    H262334   6.218   1.659  15.586  0.9965  0.2584  0.7854
13615TIP3   OH262335   3.881   4.130   3.577 -0.3850  0.0315  0.5486
13615TIP3    H162336   3.877   4.035   3.568  0.7977 -0.2329  2.2986
13615TIP3    H262337   3.796   4.161   3.545 -0.9366 -1.6318  0.3038
13616TIP3   OH262338   5.755   6.522  15.959  0.1020  0.5361 -0.1352
13616TIP3    H162339   5.776   6.481  15.875  1.9175  0.6874  0.2025
13616TIP3    H262340   5.738   6.614  15.938 -1.7959  0.1015 -0.6141
13617TIP3   OH262341   2.683   0.412   1.597  0.1760  0.4442 -0.0381
13617TIP3    H162342   2.642   0.432   1.680 -0.1757  0.1761 -0.1455
13617TIP3    H262343   2.644   0.474   1.535 -1.5662 -1.0944 -0.5527
13618TIP3   OH262344   1.137   2.709   4.724  0.4877  0.2516 -0.0175
13618TIP3    H162345   1.213   2.768   4.719 -0.0423  1.0364  0.9186
13618TIP3    H262346   1.154   2.643   4.657  2.4132 -0.0716  0.7304
13619TIP3   OH262347   2.297   5.374   1.240  0.0521  0.2307 -0.1347
13619TIP3    H162348   2.228   5.335   1.293  1.5149 -0.4789  1.3108
13619TIP3    H262349   2.273   5.467   1.236 -1.5990 -0.1845 -0.6816
13620TIP3   OH262350   3.539   2.630   0.814 -0.5610 -0.1774  0.3780
13620TIP3    H162351   3.520   2.580   0.735  0.3165  0.4325 -0.2404
13620TIP3    H262352   3.456   2.632   0.862 -1.0192 -0.8253 -0.3639
13621TIP3   OH262353   3.596   2.358  12.629 -0.6005  0.4528  0.0211
13621TIP3    H162354   3.551   2.422  12.684 -0.9104  1.2171 -1.0858
13621TIP3    H262355   3.630   2.293  12.690 -1.9048  0.6692  1.0033
13622TIP3   OH262356   4.511   0.990   0.625 -0.5231 -0.4172 -0.5877
13622TIP3    H162357   4.495   0.983   0.719  0.5743  0.5284 -0.3101
13622TIP3    H262358   4.430   1.028   0.590 -0.4121  0.5829  0.1913
13623TIP3   OH262359   4.007   5.589   4.538 -0.9759  0.6002 -0.3437
13623TIP3    H162360   4.029   5.611   4.628  0.5464 -0.4741 -0.3999
13623TIP3    H262361   3.982   5.497   4.541  1.7716 -0.2972 -1.3233
13624TIP3   OH262362   4.008   3.646  15.671 -0.4086  0.5358 -0.5107
13624TIP3    H162363   3.995   3.559  15.633 -0.8918  1.1315 -1.7752
13624TIP3    H262364   4.100   3.667  15.653 -0.2591  0.2474 -0.0983
13625TIP3   OH262365   6.609   6.329   2.007  0.1274 -0.5217  0.3001
13625TIP3    H162366   6.550   6.345   2.080  1.1213 -3.1705  1.7998
13625TIP3    H262367   6.692   6.367   2.036 -0.1299  0.8586 -0.6822
13626TIP3   OH262368   4.519   4.328   2.724  0.6123  0.1566  0.5836
13626TIP3    H162369   4.467   4.333   2.804 -0.2550 -1.9552  0.2158
13626TIP3    H262370   4.581   4.401   2.732 -0.8080  1.2850  2.1625
13627TIP3   OH262371   5.620   4.201  15.579 -0.5275 -0.0521 -0.1780
13627TIP3    H162372   5.533   4.240  15.575 -0.2906  0.3784 -1.5143
13627TIP3    H262373   5.604   4.108  15.596 -1.1707  0.2437  0.9808
13628TIP3   OH262374   5.141   5.423  13.056  0.0259  0.7417 -0.1347
13628TIP3    H162375   5.204   5.396  12.989 -0.6641  0.2429 -0.5900
13628TIP3    H262376   5.109   5.342  13.094  0.5951  1.0242  0.9989
13629TIP3   OH262377   0.421   2.045   2.556  0.0812  0.5607  0.0343
13629TIP3    H162378   0.454   2.134   2.564 -0.2358  0.6543  0.3116
13629TIP3    H262379   0.326   2.055   2.548 -0.0778  0.1913  1.2936
13630TIP3   OH262380   4.532   4.060  15.874  0.3565  0.3054  0.4534
13630TIP3    H162381   4.571   3.976  15.897  0.3200 -0.1243 -0.9424
13630TIP3    H262382   4.437   4.043  15.875  0.2922  0.6454  1.2535
13631TIP3   OH262383   2.663   3.203   5.388  0.4211  0.0946 -0.4892
13631TIP3    H162384   2.580   3.180   5.348 -1.8499  3.1332  2.0114
13631TIP3    H262385   2.666   3.150   5.468  1.7606 -1.1340 -1.2910
13632TIP3   OH262386   1.889   4.215  12.489 -0.0984 -0.0320 -0.5449
13632TIP3    H162387   1.933   4.264  12.419  0.2156 -1.2726 -1.2450
13632TIP3    H262388   1.915   4.124  12.475 -0.7136 -0.4290  0.6904
13633TIP3   OH262389   6.661   0.984  13.775 -0.3605 -0.5316 -0.5044
13633TIP3    H162390   6.727   1.037  13.730 -2.1779  0.9817 -1.5488
13633TIP3    H262391   6.605   0.952  13.705 -0.6929 -1.9106  0.3474
13634TIP3   OH262392   4.817   5.246  12.272 -0.2128 -0.6482 -0.4180
13634TIP3    H162393   4.768   5.234  12.353  0.5454 -1.6798 -0.1007
13634TIP3    H262394   4.835   5.158  12.241  1.3091 -0.2915 -0.6079
13635TIP3   OH262395   1.552   4.572  15.759 -0.5117 -0.4361  0.1395
13635TIP3    H162396   1.646   4.580  15.747 -0.4444 -1.1721  0.1331
13635TIP3    H262397   1.514   4.594  15.674 -0.3457 -0.1783  0.1327
13636TIP3   OH262398   4.982   3.046  13.021 -0.5497 -0.2725  0.6306
13636TIP3    H162399   5.051   3.073  12.959  1.2606 -1.0270  2.2224
13636TIP3    H262400   4.923   3.122  13.025  0.6305  0.7415 -0.1771
13637TIP3   OH262401   3.938   5.773  10.469 -0.7074  0.8937 -0.2889
13637TIP3    H162402   4.029   5.783  10.443 -1.2248  1.7112 -1.9393
13637TIP3    H262403   3.903   5.707  10.409 -1.2350  0.6654  0.2535
13638TIP3   OH262404   2.366   3.672   4.717  0.5725 -0.2610  0.1710
13638TIP3    H162405   2.323   3.667   4.803 -2.2305  2.0103 -0.9290
13638TIP3    H262406   2.400   3.762   4.712 -0.2254 -0.0131 -1.4410
13639TIP3   OH262407   4.470   4.220   0.010 -0.2325 -0.1647 -0.1122
13639TIP3    H162408   4.521   4.292   0.047 -2.9208  1.3900  0.8461
13639TIP3    H262409   4.455   4.161   0.084  2.1155 -1.9512 -0.9298
13640TIP3   OH262410   4.681   1.699   4.604  0.4415  0.3595  0.3942
13640TIP3    H162411   4.726   1.779   4.577  0.2548 -0.0501 -1.2142
13640TIP3    H262412   4.752   1.636   4.617  0.5371  0.5783  0.9906
13641TIP3   OH262413   4.168   5.642  10.658  0.5040 -0.3884  0.4648
13641TIP3    H162414   4.241   5.581  10.660  0.6559 -0.2216  0.2038
13641TIP3    H262415   4.149   5.652  10.564  0.0086 -0.5980  0.5425
13642TIP3   OH262416   0.775   2.641   3.935  0.5424 -0.2312  0.2557
13642TIP3    H162417   0.783   2.548   3.913  0.9155 -0.2456  0.4485
13642TIP3    H262418   0.864   2.676   3.926  0.7863 -0.3113  2.0567
13643TIP3   OH262419   5.568   2.574  15.980 -0.1843  0.5846 -0.1425
13643TIP3    H162420   5.512   2.512  15.934  1.0233 -1.3248  0.8030
13643TIP3    H262421   5.652   2.570  15.933  0.4375  0.1566  0.9698
13644TIP3   OH262422   4.058   4.748   1.166 -0.3445 -0.1889  0.3679
13644TIP3    H162423   4.104   4.820   1.123 -1.3336  0.9784  1.1899
13644TIP3    H262424   3.988   4.724   1.106 -0.1981 -0.2590  0.2254
13645TIP3   OH262425   6.206   3.981  12.601  0.5731 -0.8521  0.1512
13645TIP3    H162426   6.199   3.993  12.695  0.9457 -1.4724  0.2596
13645TIP3    H262427   6.214   3.887  12.588  1.6691 -0.7002 -0.4139
13646TIP3   OH262428   2.785   5.370  15.191 -0.3645 -0.5483  0.2539
13646TIP3    H162429   2.738   5.290  15.169 -1.9551  0.3461  0.2325
13646TIP3    H262430   2.803   5.411  15.106 -0.5594 -0.3412  0.3120
13647TIP3   OH262431   0.685   1.490  13.472 -0.4026  0.7998 -0.1487
13647TIP3    H162432   0.748   1.546  13.427 -1.3083  1.7530 -0.2738
13647TIP3    H262433   0.686   1.408  13.422  1.1984  0.5323  0.2454
13648TIP3   OH262434   0.322   6.577  14.850  0.2946  0.9371 -0.0260
13648TIP3    H162435   0.356   6.562  14.762 -0.0762  0.2594 -0.0588
13648TIP3    H262436   0.355   6.664  14.874  0.5523  1.0467 -0.7561
13649TIP3   OH262437   0.757   2.418  12.654 -0.6342 -0.3402  0.0802
13649TIP3    H162438   0.667   2.437  12.680 -0.8239 -0.1836 -0.6790
13649TIP3    H262439   0.777   2.484  12.588  0.2996  0.0903  0.7756
13650TIP3   OH262440   5.270   4.419   3.278  0.1811 -0.0676  0.0561
13650TIP3    H162441   5.315   4.457   3.202  1.9199 -1.2035  0.4411
13650TIP3    H262442   5.286   4.325   3.270 -0.2353 -0.2758  1.4322
13651TIP3   OH262443   6.465   2.515  15.586 -0.3893  0.3001  0.0799
13651TIP3    H162444   6.514   2.466  15.652 -1.1185 -0.8736 -0.2375
13651TIP3    H262445   6.510   2.600  15.582  0.4568 -0.0730  1.1417
13652TIP3   OH262446   6.226   6.392   5.030 -0.7948  0.4341 -0.0744
13652TIP3    H162447   6.262   6.477   5.055 -0.4366  0.3527 -0.3053
13652TIP3    H262448   6.247   6.384   4.937 -0.1688 -0.2313  0.1178
13653TIP3   OH262449   3.676   3.010  14.192 -0.0925 -0.6090  0.6147
13653TIP3    H162450   3.645   3.033  14.104  0.6197 -1.8967 -0.0098
13653TIP3    H262451   3.671   2.915  14.195  2.2022 -0.7960  1.0488
13654TIP3   OH262452   0.680   4.733   0.678 -0.1252 -0.6051 -1.1634
13654TIP3    H162453   0.748   4.668   0.693 -0.9751 -0.9836  1.5030
13654TIP3    H262454   0.714   4.787   0.607  2.3424 -1.5709 -0.8191
13655TIP3   OH262455   4.468   0.523   2.184  0.4348 -0.1376 -0.1294
13655TIP3    H162456   4.446   0.452   2.245 -0.1780 -0.4160 -0.6711
13655TIP3    H262457   4.478   0.480   2.099  2.8911 -0.0098  0.0160
13656TIP3   OH262458   2.038   5.000  14.106  0.2639  0.2557  0.2974
13656TIP3    H162459   1.970   4.991  14.173  0.1362 -0.9970  0.0251
13656TIP3    H262460   1.990   5.010  14.024  0.4070 -0.2884  0.1454
13657TIP3   OH262461   6.598   1.701   4.898  0.3484 -0.0649  0.2729
13657TIP3    H162462   6.630   1.737   4.815  0.6107  0.1355  0.4604
13657TIP3    H262463   6.588   1.777   4.955  2.0886 -0.4038  1.0799
13658TIP3   OH262464   5.792   1.647   0.605  0.3109 -0.1148  0.5218
13658TIP3    H162465   5.749   1.663   0.521 -2.0580 -0.0760  1.6505
13658TIP3    H262466   5.815   1.734   0.637 -0.4209  0.0341  0.6764
13659TIP3   OH262467   5.956   6.107  12.648  0.2808  0.7029 -0.1960
13659TIP3    H162468   5.937   6.199  12.668  1.6113  0.8743  0.4095
13659TIP3    H262469   6.051   6.105  12.634  0.4445 -0.7635  0.8684
13660TIP3   OH262470   0.100   1.521  11.521  0.2870 -0.2424 -0.0416
13660TIP3    H162471   0.177   1.464  11.522  2.1029  1.9984 -1.7609
13660TIP3    H262472   0.040   1.479  11.459  0.6450 -1.3336  0.3240
13661TIP3   OH262473   6.599   4.099  14.740 -0.2913  0.3307 -0.1532
13661TIP3    H162474   6.512   4.119  14.705 -0.1364  0.5969 -0.3960
13661TIP3    H262475   6.596   4.006  14.762  0.1763 -0.3313 -2.5865
13662TIP3   OH262476   0.468   5.476  16.882  0.4113  0.5443 -0.4223
13662TIP3    H162477   0.402   5.413  16.912 -1.1517  2.1376 -0.3252
13662TIP3    H262478   0.542   5.465  16.941  0.0792 -1.0090 -0.2649
13663TIP3   OH262479   1.627   5.140   1.187  0.3408  0.2990  0.0731
13663TIP3    H162480   1.574   5.140   1.266 -0.7465  1.0449 -0.6280
13663TIP3    H262481   1.670   5.054   1.187 -1.7226 -0.8008  0.1338
13664TIP3   OH262482   4.556   3.323   3.282 -0.4126  0.0092 -0.5402
13664TIP3    H162483   4.475   3.355   3.241  0.1599  1.8225 -0.3353
13664TIP3    H262484   4.612   3.400   3.288  0.3568 -0.6542  1.6941
13665TIP3   OH262485   0.489   3.810   4.735 -0.0918  0.2567 -0.4088
13665TIP3    H162486   0.399   3.788   4.711 -1.0211  0.3701  2.5452
13665TIP3    H262487   0.541   3.737   4.702 -2.3740 -4.1057  4.3223
13666TIP3   OH262488   5.411   6.753  16.890 -0.5158 -0.0578  0.4636
13666TIP3    H162489   5.337   6.699  16.865 -0.4303 -0.8316  1.7759
13666TIP3    H262490   5.378   6.810  16.958 -0.3578  0.8928 -0.2390
13667TIP3   OH262491   6.465   0.909   3.723  0.3296 -0.1978 -0.2652
13667TIP3    H162492   6.425   0.896   3.809  0.8539  1.0444  0.1925
13667TIP3    H262493   6.427   0.840   3.668 -0.4824 -0.6253  0.7924
13668TIP3   OH262494   1.035   1.891  11.607 -0.1226 -0.4316  0.0101
13668TIP3    H162495   1.085   1.966  11.574  1.5465 -0.9720  1.1528
13668TIP3    H262496   0.967   1.930  11.662  2.3485  0.3363  2.8150
13669TIP3   OH262497   2.703   3.069  12.812  0.2822  0.4593  0.1188
13669TIP3    H162498   2.762   3.111  12.875 -0.3220 -0.8983  1.6770
13669TIP3    H262499   2.622   3.120  12.817 -0.1692 -0.3104  1.3949
13670TIP3   OH262500   6.459   3.818   2.318  0.7187 -0.1149 -0.3059
13670TIP3    H162501   6.493   3.825   2.229  1.8533  1.2485  0.1855
13670TIP3    H262502   6.512   3.881   2.368  0.1844 -0.9333  1.3481
13671TIP3   OH262503   1.596   6.803  11.182 -0.3173 -0.0984  0.3996
13671TIP3    H162504   1.511   6.846  11.192 -1.4544 -1.2362 -3.1571
13671TIP3    H262505   1.655   6.873  11.152  0.2197  0.7319  3.0347
13672TIP3   OH262506   5.751   5.999   2.098  0.3894  0.6430  0.5269
13672TIP3    H162507   5.797   5.953   2.169 -1.5192 -1.9816  0.1832
13672TIP3    H262508   5.670   6.029   2.139  0.6298  1.8092  0.1679
13673TIP3   OH262509   1.146   1.362  14.846 -0.1203 -0.0887  0.4836
13673TIP3    H162510   1.210   1.402  14.906  0.4437 -0.7432  0.3375
13673TIP3    H262511   1.123   1.279  14.888 -1.1087  0.2830  0.6784
13674TIP3   OH262512   2.959   2.619  13.171  0.1177  0.1615  0.0730
13674TIP3    H162513   2.921   2.599  13.085 -0.2716  0.2831  0.2138
13674TIP3    H262514   3.034   2.675  13.151 -1.7606  2.8157 -0.0468
13675TIP3   OH262515   6.084   1.511  16.298  0.4755 -0.4222  0.4594
13675TIP3    H162516   6.141   1.586  16.282 -1.2130  0.4388 -2.2747
13675TIP3    H262517   6.117   1.443  16.239 -0.1976 -0.5391  0.2080
13676TIP3   OH262518   6.257   3.037  12.289 -0.5705  0.2588 -0.7151
13676TIP3    H162519   6.166   3.020  12.313  0.1335 -1.1951  1.2423
13676TIP3    H262520   6.304   3.037  12.373  1.2674  0.7194 -1.6887
13677TIP3   OH262521   3.758   5.380   0.410  0.3560  0.9777  0.5301
13677TIP3    H162522   3.827   5.316   0.428  0.0268  0.0913 -1.1252
13677TIP3    H262523   3.803   5.456   0.374  0.4599  0.0862 -1.3344
13678TIP3   OH262524   1.190   2.948   5.047 -0.0026 -0.4490 -0.7388
13678TIP3    H162525   1.278   2.915   5.030  1.0866 -2.0875  5.6147
13678TIP3    H262526   1.203   3.039   5.075 -0.2013 -0.8521  0.7097
13679TIP3   OH262527   3.901   6.716  15.505  0.3497  0.3399  0.2925
13679TIP3    H162528   3.896   6.809  15.485 -2.0654  0.1780 -0.1666
13679TIP3    H262529   3.893   6.672  15.420 -1.8660 -0.2720  0.7500
13680TIP3   OH262530   2.896   2.753  16.602 -0.2943  0.5091 -0.1736
13680TIP3    H162531   2.840   2.822  16.639  0.8404  1.7934 -0.7815
13680TIP3    H262532   2.960   2.735  16.671 -1.7068 -1.3973  0.7675
13681TIP3   OH262533   1.254   4.728   2.504 -0.3028  0.3905  0.1403
13681TIP3    H162534   1.283   4.644   2.471  0.0873  0.0790  1.2273
13681TIP3    H262535   1.315   4.748   2.576 -0.9837  1.1220  0.5331
13682TIP3   OH262536   2.011   1.171   0.200 -0.1465  0.4772  0.2999
13682TIP3    H162537   1.970   1.097   0.155 -0.1144 -1.2930  2.9786
13682TIP3    H262538   2.103   1.145   0.209  0.5556  2.1933 -1.2442
13683TIP3   OH262539   4.974   3.925  12.314  0.0167 -0.1833  0.1002
13683TIP3    H162540   4.912   3.870  12.362  2.1589 -0.5304  2.6827
13683TIP3    H262541   4.932   4.011  12.311 -0.9164 -0.5796  1.1033
13684TIP3   OH262542   3.699   2.270  14.841 -0.0280  0.2139 -0.0678
13684TIP3    H162543   3.614   2.232  14.864  0.1567 -0.8784 -1.0673
13684TIP3    H262544   3.758   2.240  14.911  0.4073 -2.6029 -1.4680
13685TIP3   OH262545   6.030   5.739  14.269  0.1445 -0.2746  0.0953
13685TIP3    H162546   6.120   5.706  14.276 -0.3187 -1.5997  0.1278
13685TIP3    H262547   6.037   5.832  14.290  1.2485 -0.7238  1.9729
13686TIP3   OH262548   2.225   5.541  14.284 -0.3559  0.5298  0.3007
13686TIP3    H162549   2.181   5.551  14.199 -0.3926  0.2697  0.2867
13686TIP3    H262550   2.244   5.447  14.290  0.3205  0.6601  0.2477
13687TIP3   OH262551   4.022   4.528   0.735  0.4289 -0.2225 -0.1124
13687TIP3    H162552   3.987   4.470   0.803  0.1388  0.6193  0.4841
13687TIP3    H262553   3.997   4.616   0.764  0.1125  0.1449 -1.4262
13688TIP3   OH262554   1.011   4.112  15.374  0.4442 -0.7521 -0.7568
13688TIP3    H162555   0.939   4.147  15.322  0.5813 -0.8813 -1.0332
13688TIP3    H262556   0.968   4.065  15.445  0.2529  0.7630  0.1677
13689TIP3   OH262557   6.187   3.713  12.549  0.6806  0.3978  0.1138
13689TIP3    H162558   6.125   3.668  12.607 -0.0156  2.0797  0.7121
13689TIP3    H262559   6.147   3.708  12.463  1.0718 -0.9192 -0.0236
13690TIP3   OH262560   3.776   0.696   4.848 -0.3325 -0.4118 -0.3573
13690TIP3    H162561   3.740   0.634   4.911  0.1684  0.2501  0.6045
13690TIP3    H262562   3.728   0.679   4.767 -1.2414 -1.0360  0.2969
13691TIP3   OH262563   6.602   2.611  16.778 -0.8140 -0.3745 -0.7983
13691TIP3    H162564   6.661   2.561  16.721  0.6068  0.2897  0.0179
13691TIP3    H262565   6.586   2.693  16.732  1.1187  0.5729  0.1089
13692TIP3   OH262566   1.992   3.144   2.958  0.0549  0.4980  0.6262
13692TIP3    H162567   2.012   3.067   3.011  1.4513  1.5975  1.8085
13692TIP3    H262568   1.983   3.111   2.869  0.1258 -1.0825  1.1761
13693TIP3   OH262569   5.743   6.754  12.397  0.4664 -0.2731  0.0686
13693TIP3    H162570   5.773   6.720  12.313 -0.3877 -0.5192 -0.1444
13693TIP3    H262571   5.823   6.770  12.447  0.9270 -1.5395 -0.2445
13694TIP3   OH262572   6.791   1.337  12.579 -0.0476 -0.5259 -0.2262
13694TIP3    H162573   6.742   1.420  12.578 -1.5833 -1.3501 -2.7140
13694TIP3    H262574   6.847   1.341  12.502  0.7385 -1.3393  0.2838
13695TIP3   OH262575   2.558   5.798   3.371 -0.3298  0.6346  0.2642
13695TIP3    H162576   2.544   5.705   3.356 -0.3175  0.8292 -1.0065
13695TIP3    H262577   2.651   5.812   3.355 -0.4668  0.9919 -0.2257
13696TIP3   OH262578   5.305   1.573  15.282  0.0491  0.0337  0.1492
13696TIP3    H162579   5.279   1.579  15.374  0.4115  3.3933  0.1341
13696TIP3    H262580   5.396   1.603  15.282  0.3120 -0.7096 -1.2350
13697TIP3   OH262581   2.975   6.348   1.285 -0.2384  0.0774 -0.9549
13697TIP3    H162582   2.944   6.314   1.202 -0.5166 -1.0623 -0.4030
13697TIP3    H262583   3.031   6.422   1.262 -0.5506 -0.0370 -2.1267
13698TIP3   OH262584   4.714   4.289  16.683 -0.3475 -0.4708  0.1803
13698TIP3    H162585   4.628   4.312  16.719  1.1014  4.8875  1.0108
13698TIP3    H262586   4.718   4.336  16.599  1.6032 -1.1112 -0.1251
13699TIP3   OH262587   1.514   6.277   2.371 -0.1319  0.1193  0.1063
13699TIP3    H162588   1.476   6.310   2.452  0.3626 -1.4403  1.0242
13699TIP3    H262589   1.602   6.315   2.369 -0.9495  2.0985 -0.9838
13700TIP3   OH262590   4.582   4.047   6.377 -0.0673  0.4808 -0.0985
13700TIP3    H162591   4.591   4.084   6.465  1.0937  0.6773 -0.2813
13700TIP3    H262592   4.601   4.120   6.318 -5.5813  1.8286 -0.7928
13701TIP3   OH262593   6.451   1.857  14.020  0.2688 -0.1969  0.1873
13701TIP3    H162594   6.432   1.914  14.095 -0.9909  0.0910 -0.3311
13701TIP3    H262595   6.375   1.800  14.014  0.8157 -0.8899 -0.2776
13702TIP3   OH262596   5.918   6.622  10.946 -0.8466 -0.7005 -0.3816
13702TIP3    H162597   5.978   6.646  10.876  0.0976 -1.3657  0.1688
13702TIP3    H262598   5.883   6.537  10.920  2.0407 -2.6365  1.3841
13703TIP3   OH262599   5.319   3.164   2.930 -0.2632  0.1140 -0.5302
13703TIP3    H162600   5.385   3.097   2.948  0.1082  0.8319  0.8860
13703TIP3    H262601   5.244   3.115   2.895  0.1167 -1.0051  0.1687
13704TIP3   OH262602   2.439   5.659  14.385 -0.0362  0.0769 -0.0583
13704TIP3    H162603   2.371   5.600  14.354  0.9241 -0.4985 -1.1463
13704TIP3    H262604   2.405   5.746  14.367  0.9166 -0.1657 -4.0865
13705TIP3   OH262605   6.295   2.103   0.718  0.0691  0.0804  0.3014
13705TIP3    H162606   6.371   2.055   0.687 -0.4742  0.4969 -1.8426
13705TIP3    H262607   6.224   2.039   0.716  0.1440 -0.0630  1.4096
13706TIP3   OH262608   4.628   0.210  11.902 -0.2079  0.2316  0.7681
13706TIP3    H162609   4.695   0.159  11.949  0.9098  0.5086 -0.4514
13706TIP3    H262610   4.629   0.295  11.945 -1.5113 -0.4717  2.2959
13707TIP3   OH262611   5.825   5.360   6.198  0.1809 -0.1909 -0.8859
13707TIP3    H162612   5.744   5.409   6.185  1.5417  1.7886 -2.5803
13707TIP3    H262613   5.869   5.405   6.271  0.5661 -0.0831 -1.1786
13708TIP3   OH262614   5.333   0.186   5.929 -0.3048 -0.1572 -0.3286
13708TIP3    H162615   5.347   0.160   6.020 -1.6702  0.0396 -0.0381
13708TIP3    H262616   5.421   0.201   5.895  0.1823  2.3292  1.7218
13709TIP3   OH262617   4.989   4.905  13.403  0.0285 -0.6357  0.0120
13709TIP3    H162618   4.958   4.980  13.454 -0.8760 -1.3024  0.4757
13709TIP3    H262619   4.909   4.860  13.376  0.5332 -0.9054 -1.0833
13710TIP3   OH262620   1.176   3.386   3.463  0.4149 -0.4827  0.3250
13710TIP3    H162621   1.250   3.433   3.502 -0.5736  0.4102  1.2047
13710TIP3    H262622   1.154   3.318   3.526 -2.3154  2.0677  2.3828
13711TIP3   OH262623   1.543   5.741   5.278  0.6378 -0.4628  0.1985
13711TIP3    H162624   1.557   5.760   5.370 -0.9555 -0.3899  0.4487
13711TIP3    H262625   1.524   5.826   5.238  3.7533 -0.0886 -0.7371
13712TIP3   OH262626   6.159   0.511  16.589  0.4227  0.1940  0.4553
13712TIP3    H162627   6.137   0.533  16.679 -0.2461  0.6583  0.1786
13712TIP3    H262628   6.156   0.415  16.586 -1.3552  0.2316  0.4794
13713TIP3   OH262629   5.976   4.658  12.385  0.0062 -0.0227 -0.0560
13713TIP3    H162630   5.973   4.654  12.290  3.4054  0.2070 -0.2977
13713TIP3    H262631   5.936   4.576  12.414  0.4068 -0.8636 -1.7675
13714TIP3   OH262632   2.930   6.802  15.878  0.1381  0.5447 -0.5075
13714TIP3    H162633   2.981   6.853  15.815 -0.3322  1.8039  0.1045
13714TIP3    H262634   2.941   6.849  15.961  1.6266 -1.6501  0.6509
13715TIP3   OH262635   5.116   0.671  16.463  0.0927 -0.5924  0.6202
13715TIP3    H162636   5.090   0.754  16.504 -1.8613 -1.1154  0.5117
13715TIP3    H262637   5.171   0.698  16.389 -1.7535  0.7407 -0.3463
13716TIP3   OH262638   2.850   4.277  15.817  0.4667 -0.0200 -0.2477
13716TIP3    H162639   2.836   4.245  15.728  0.4791 -1.1189  0.1259
13716TIP3    H262640   2.898   4.206  15.861 -0.3015  0.1169  0.8690
13717TIP3   OH262641   2.992   3.911  13.559  0.5406  0.0189 -0.3303
13717TIP3    H162642   3.013   3.934  13.649 -0.3949 -0.8207  0.1142
13717TIP3    H262643   2.899   3.891  13.559  0.6932 -0.8277 -1.3000
13718TIP3   OH262644   0.275   5.037   5.517 -0.1881  0.1710  0.3250
13718TIP3    H162645   0.269   5.130   5.493 -0.9274  0.4571  1.5463
13718TIP3    H262646   0.296   4.993   5.435 -0.0280  1.3922 -0.3223
13719TIP3   OH262647   0.649   4.505   1.484 -0.0294  0.0489  0.1633
13719TIP3    H162648   0.664   4.439   1.553  2.4824 -0.7628 -1.0535
13719TIP3    H262649   0.554   4.506   1.473 -0.3569 -1.2007  2.2870
13720TIP3   OH262650   2.354   4.524  16.053 -0.3759  0.6838  0.2843
13720TIP3    H162651   2.368   4.529  15.958  0.0415 -0.7637  0.2440
13720TIP3    H262652   2.262   4.547  16.065 -0.9551 -0.9558 -0.6889
13721TIP3   OH262653   5.520   1.583   1.757  0.2140 -0.3604 -0.4168
13721TIP3    H162654   5.502   1.497   1.719  2.0583 -0.9632  0.0070
13721TIP3    H262655   5.448   1.597   1.819 -1.2541 -0.6254 -1.9651
13722TIP3   OH262656   5.318   4.991  14.537 -0.4947  0.2006 -0.4020
13722TIP3    H162657   5.351   5.047  14.466  1.5809 -1.1019 -0.5448
13722TIP3    H262658   5.394   4.975  14.593 -1.1336 -1.9948 -0.0593
13723TIP3   OH262659   2.430   6.326   5.118  0.2369  0.0008  0.3270
13723TIP3    H162660   2.470   6.402   5.160 -1.0773  1.6062 -1.1883
13723TIP3    H262661   2.336   6.343   5.122 -0.0992 -1.5585 -0.0801
13724TIP3   OH262662   5.269   3.584   1.700  0.3518 -1.2250  0.6068
13724TIP3    H162663   5.355   3.597   1.741  1.0616 -0.7934 -0.9206
13724TIP3    H262664   5.252   3.666   1.653 -1.3054 -0.9903  1.5342
13725TIP3   OH262665   0.340   5.142  10.834 -0.1202 -0.1960  0.5680
13725TIP3    H162666   0.308   5.071  10.780  0.1261  0.1068  0.0153
13725TIP3    H262667   0.261   5.182  10.872 -0.1837 -1.9464  2.4443
13726TIP3   OH262668   4.316   0.246   1.069 -0.7808  0.3821 -0.5369
13726TIP3    H162669   4.345   0.314   1.129  0.8034 -1.0888  0.4587
13726TIP3    H262670   4.263   0.187   1.122  0.8605 -1.0821 -0.4287
13727TIP3   OH262671   2.300   2.203  12.342 -0.3320  0.1687 -0.5295
13727TIP3    H162672   2.213   2.238  12.360 -0.2518  0.9786 -1.6662
13727TIP3    H262673   2.316   2.142  12.414 -1.7769  0.1123 -0.2266
13728TIP3   OH262674   1.513   1.229   3.644  0.7002 -0.5964 -0.3089
13728TIP3    H162675   1.598   1.209   3.605  0.9351 -0.3782  0.0878
13728TIP3    H262676   1.522   1.203   3.736  0.3854 -0.4381 -0.2308
13729TIP3   OH262677   0.909   5.842   5.776 -0.0139 -0.4558 -0.0653
13729TIP3    H162678   0.868   5.866   5.693  0.3485  1.4934  0.2734
13729TIP3    H262679   0.892   5.917   5.834  0.0610 -1.6000  1.5160
13730TIP3   OH262680   4.434   4.946   2.530 -0.0561 -0.7577  0.1429
13730TIP3    H162681   4.466   4.858   2.508 -1.0919 -0.9579 -0.6446
13730TIP3    H262682   4.339   4.934   2.543 -0.0845  0.1008  0.8419
13731TIP3   OH262683   4.725   1.138   4.821 -0.6065  0.1071 -0.4391
13731TIP3    H162684   4.699   1.229   4.839  0.4628  0.4832 -0.7389
13731TIP3    H262685   4.663   1.108   4.754 -3.4791 -0.7135  2.3510
13732TIP3   OH262686   5.854   1.497  11.212 -0.4269 -0.1264 -0.4869
13732TIP3    H162687   5.771   1.544  11.208  0.7811  2.2772  0.4546
13732TIP3    H262688   5.855   1.443  11.133 -1.5218  2.2358 -2.2538
13733TIP3   OH262689   2.371   6.186   3.226  0.1072 -0.1585  0.1705
13733TIP3    H162690   2.345   6.104   3.267  0.9541  0.1248  1.3385
13733TIP3    H262691   2.422   6.160   3.150  1.2650 -0.7572  1.1096
13734TIP3   OH262692   3.309   5.519  11.150  0.6409  0.0201  0.8187
13734TIP3    H162693   3.354   5.451  11.201  1.5159  0.7548  1.0419
13734TIP3    H262694   3.378   5.578  11.123 -0.0172  0.4211 -0.0214
13735TIP3   OH262695   2.497   1.917   0.888  0.0147  0.6825 -0.1202
13735TIP3    H162696   2.580   1.961   0.871 -0.1961  0.9094 -0.5764
13735TIP3    H262697   2.474   1.876   0.805 -0.7530  1.3404 -0.2423
13736TIP3   OH262698   5.895   4.422   5.120  0.0319 -0.2101  0.0524
13736TIP3    H162699   5.980   4.423   5.075 -0.8014 -1.1463 -1.6623
13736TIP3    H262700   5.866   4.513   5.117  0.0443 -0.2324 -1.2725
13737TIP3   OH262701   6.628   6.105   4.864 -0.4320 -0.0759  0.3296
13737TIP3    H162702   6.570   6.092   4.789  0.9198 -0.4276 -0.6716
13737TIP3    H262703   6.616   6.026   4.917 -0.8772 -0.1318  0.1543
13738TIP3   OH262704   1.464   4.799  15.340 -0.0314 -0.2629 -0.5350
13738TIP3    H162705   1.435   4.885  15.309  0.0705 -0.3920 -0.9902
13738TIP3    H262706   1.456   4.742  15.263 -0.9514 -0.8718 -0.0118
13739TIP3   OH262707   6.363   6.644  15.488  0.2270 -0.0106  0.1408
13739TIP3    H162708   6.320   6.588  15.553  0.1633  0.3836  0.4428
13739TIP3    H262709   6.406   6.712  15.540 -0.4146  0.7184 -0.2754
13740TIP3   OH262710   2.631   1.973   4.862  0.3209 -0.3102 -0.1769
13740TIP3    H162711   2.636   2.019   4.779  0.8006  0.0994  0.0748
13740TIP3    H262712   2.539   1.977   4.887  0.1878 -0.3886 -0.6595
13741TIP3   OH262713   4.878   1.786   4.351 -0.1488 -0.1477 -0.0771
13741TIP3    H162714   4.846   1.696   4.342  1.4089 -0.7511 -0.0072
13741TIP3    H262715   4.876   1.802   4.446  0.9097 -0.6719  0.0588
13742TIP3   OH262716   4.144   2.650   0.828 -0.2619  0.3132  0.1073
13742TIP3    H162717   4.185   2.577   0.782  0.5097  1.7030 -1.5225
13742TIP3    H262718   4.053   2.650   0.797  0.2512  1.2330 -1.4543
13743TIP3   OH262719   3.789   6.024   1.076  0.9819  0.2476 -0.1522
13743TIP3    H162720   3.784   6.119   1.079  1.1167  0.2286  0.9192
13743TIP3    H262721   3.841   6.000   1.153  1.6510 -0.6432 -0.8633
13744TIP3   OH262722   6.828   0.686  15.934 -0.2351 -0.0861  0.1695
13744TIP3    H162723   6.878   0.661  16.012  0.0963  1.1040  0.3513
13744TIP3    H262724   6.880   0.753  15.892 -0.7978 -0.1547 -0.6537
13745TIP3   OH262725   3.104   6.745  13.423 -0.0465 -0.5481 -0.5713
13745TIP3    H162726   3.060   6.661  13.424 -0.6343 -0.2444 -0.6676
13745TIP3    H262727   3.148   6.751  13.509  1.0831 -1.5070 -1.0562
13746TIP3   OH262728   6.107   4.804  15.962 -0.5409 -0.2785 -0.2235
13746TIP3    H162729   6.018   4.772  15.978 -0.9193  0.3460 -0.9970
13746TIP3    H262730   6.105   4.835  15.871  0.2822  0.3644 -0.0331
13747TIP3   OH262731   3.008   5.219  15.403  0.4027  0.4154  0.2606
13747TIP3    H162732   3.051   5.155  15.346  0.2709 -0.4885  1.1518
13747TIP3    H262733   3.043   5.304  15.374  0.6141 -0.0483 -0.9054
13748TIP3   OH262734   2.183   4.277  14.921 -0.0306  0.5396  0.2235
13748TIP3    H162735   2.213   4.276  15.012  2.3831  2.2401 -0.4378
13748TIP3    H262736   2.092   4.305  14.925 -0.3568 -0.6945  2.1761
13749TIP3   OH262737   5.196   6.450  16.535 -0.5486 -0.5487  0.0163
13749TIP3    H162738   5.245   6.392  16.476 -3.0121 -1.8763 -0.8659
13749TIP3    H262739   5.156   6.514  16.477 -1.1465 -0.4704  0.5117
13750TIP3   OH262740   1.263   1.917   3.791 -0.2792  0.1403  0.0472
13750TIP3    H162741   1.318   1.969   3.733 -0.4939  0.5934  0.2493
13750TIP3    H262742   1.223   1.851   3.734  1.3270 -0.9207  0.0715
13751TIP3   OH262743   2.788   2.885   0.595 -0.4328 -0.3031 -0.4410
13751TIP3    H162744   2.815   2.872   0.504  0.5890 -1.0507 -0.0504
13751TIP3    H262745   2.815   2.804   0.640 -2.4941 -0.6997  0.1951
13752TIP3   OH262746   0.850   0.683  13.775 -0.3898  0.3620 -0.0566
13752TIP3    H162747   0.873   0.638  13.693  0.9538  0.6345  0.1465
13752TIP3    H262748   0.924   0.666  13.833 -0.3267  1.9500  0.3751
13753TIP3   OH262749   2.721   3.937  13.568 -0.6670 -0.3386  0.8048
13753TIP3    H162750   2.664   3.860  13.563 -0.1132 -0.7563  0.9243
13753TIP3    H262751   2.660   4.010  13.584 -1.3242 -0.5507 -0.5795
13754TIP3   OH262752   4.199   3.511   2.340 -0.0291 -0.2018 -0.0984
13754TIP3    H162753   4.243   3.562   2.271 -0.5721 -0.9814 -1.0493
13754TIP3    H262754   4.111   3.549   2.346 -0.7722 -1.5825 -1.4977
13755TIP3   OH262755   2.730   4.058   5.336 -0.2296  0.1676 -0.0570
13755TIP3    H162756   2.716   4.009   5.417  1.6565 -2.6609 -1.2772
13755TIP3    H262757   2.824   4.075   5.336 -0.2074  0.1034 -1.6410
13756TIP3   OH262758   0.207   0.392  16.774 -0.4333  0.6146 -0.1575
13756TIP3    H162759   0.139   0.442  16.817  0.1737  1.1049  0.2541
13756TIP3    H262760   0.163   0.314  16.741 -0.8711  0.1301  1.5179
13757TIP3   OH262761   3.335   5.007  11.562  0.1494 -0.1235 -0.3459
13757TIP3    H162762   3.345   4.984  11.470  0.2629 -2.6873  0.2342
13757TIP3    H262763   3.414   4.972  11.604 -1.2064 -1.6018  1.1209
13758TIP3   OH262764   0.716   1.425  11.622 -0.3632 -0.1744 -0.1122
13758TIP3    H162765   0.644   1.485  11.603  1.0885  2.3009  1.5558
13758TIP3    H262766   0.701   1.397  11.712 -0.2197 -1.1794 -0.3845
13759TIP3   OH262767   2.545   2.915  14.984 -0.3487  0.2343 -0.6260
13759TIP3    H162768   2.501   2.881  15.062  1.6265 -0.0717  0.4153
13759TIP3    H262769   2.616   2.969  15.018 -1.3326  2.7283 -2.2453
13760TIP3   OH262770   4.413   4.838  12.041  0.2127  0.2384 -0.5703
13760TIP3    H162771   4.428   4.879  11.955 -0.6410 -1.9101 -1.8111
13760TIP3    H262772   4.461   4.755  12.037  0.0702  0.0524  1.0156
13761TIP3   OH262773   2.020   0.435   4.895 -0.3746  0.7878 -0.4586
13761TIP3    H162774   1.972   0.352   4.892 -2.2777  1.8542 -1.0430
13761TIP3    H262775   2.006   0.468   4.984  2.4621 -0.5914  0.6381
13762TIP3   OH262776   0.277   6.598   3.498  0.0875 -0.1578  0.1953
13762TIP3    H162777   0.241   6.683   3.520 -1.7932 -0.8069 -0.1957
13762TIP3    H262778   0.297   6.604   3.404 -1.1778 -0.5049 -0.1104
13763TIP3   OH262779   1.865   4.908   2.365 -0.2746 -0.0484 -0.0693
13763TIP3    H162780   1.843   4.831   2.418  0.9049  0.8597  1.8659
13763TIP3    H262781   1.882   4.977   2.429  0.9682  1.1990 -1.6491
13764TIP3   OH262782   0.090   5.174   1.521  0.5203  0.2539 -0.6149
13764TIP3    H162783   0.098   5.079   1.510  0.7122  0.0693  0.8034
13764TIP3    H262784   0.009   5.198   1.476 -1.3457 -1.1450  1.7381
13765TIP3   OH262785   6.209   4.535  15.418 -0.0584  0.1042  0.6763
13765TIP3    H162786   6.149   4.463  15.397  2.6827 -2.5933  1.4482
13765TIP3    H262787   6.213   4.536  15.514  0.4414  0.8885  0.6555
13766TIP3   OH262788   6.698   3.350   6.491 -0.4362  0.3775  0.3685
13766TIP3    H162789   6.707   3.336   6.585 -3.4588 -0.0520  0.7191
13766TIP3    H262790   6.694   3.445   6.480 -1.9195  0.4075  0.9722
13767TIP3   OH262791   4.095   3.082   2.781  0.2244  0.2890  0.3597
13767TIP3    H162792   4.073   3.094   2.689 -1.0922  1.5869  0.8014
13767TIP3    H262793   4.167   3.144   2.797 -1.3995  2.1920  0.7967
13768TIP3   OH262794   4.972   5.875   4.110 -0.2891  0.1334  0.6239
13768TIP3    H162795   4.980   5.955   4.058 -3.4121  0.0982 -0.1256
13768TIP3    H262796   4.935   5.903   4.193  0.6223 -0.3266  1.2038
13769TIP3   OH262797   6.328   5.648   3.907 -0.1480 -0.2128  0.4128
13769TIP3    H162798   6.343   5.660   4.000  1.1825 -1.1010  0.3430
13769TIP3    H262799   6.414   5.665   3.866 -0.6783  0.0486 -0.6314
13770TIP3   OH262800   5.965   0.660   5.077 -0.2641  0.4406 -0.5842
13770TIP3    H162801   5.884   0.609   5.074 -1.1319  1.7975 -1.6506
13770TIP3    H262802   5.936   0.750   5.086  1.0744  1.0571 -1.9100
13771TIP3   OH262803   4.054   1.370  15.126 -0.2110  0.1443  0.2193
13771TIP3    H162804   4.013   1.441  15.176  2.2155  1.6251  0.3006
13771TIP3    H262805   4.119   1.333  15.186  2.6655  1.8570 -1.5819
13772TIP3   OH262806   4.454   6.240  14.980 -0.0374 -0.6260  0.1613
13772TIP3    H162807   4.416   6.271  14.897  1.1194  0.3803 -0.0301
13772TIP3    H262808   4.542   6.213  14.956  0.1000 -0.8899  0.9699
13773TIP3   OH262809   1.526   4.723   4.211  0.7692 -0.2763 -0.1509
13773TIP3    H162810   1.483   4.648   4.169  2.8176 -1.3180 -0.4840
13773TIP3    H262811   1.614   4.724   4.176  1.5151  0.9022  1.5919
13774TIP3   OH262812   4.398   3.076   3.312  0.4548  0.5941 -0.0345
13774TIP3    H162813   4.391   2.996   3.259  0.7007 -0.2091  1.0963
13774TIP3    H262814   4.342   3.140   3.268  0.1284 -0.2582 -0.8804
13775TIP3   OH262815   1.749   6.378  13.576  0.1354  0.2998 -0.1102
13775TIP3    H162816   1.791   6.360  13.660  1.2955  3.6632  0.1850
13775TIP3    H262817   1.659   6.348  13.588  0.9236 -1.7658  1.3103
13776TIP3   OH262818   0.429   6.241   3.591  0.3348 -0.2591  0.0476
13776TIP3    H162819   0.460   6.206   3.675  0.8521  1.2806  0.5379
13776TIP3    H262820   0.342   6.277   3.610  1.1026  1.5604  0.3844
13777TIP3   OH262821   0.480   3.232   5.651 -0.0477 -0.0701 -0.1472
13777TIP3    H162822   0.540   3.246   5.724  0.4472  1.3799 -0.8015
13777TIP3    H262823   0.504   3.299   5.587 -2.2308  0.3972 -0.5285
13778TIP3   OH262824   2.301   0.408  15.359  0.1862 -0.1640 -0.7238
13778TIP3    H162825   2.231   0.473  15.363 -0.6462 -1.0577 -0.3944
13778TIP3    H262826   2.374   0.454  15.318 -0.5634  0.8111 -1.0033
13779TIP3   OH262827   0.459   0.013  11.206 -0.5350 -0.3417 -0.5747
13779TIP3    H162828   0.399   0.071  11.253 -1.1344 -1.6455  0.3530
13779TIP3    H262829   0.523  -0.013  11.273  0.7707  0.5959 -1.4153
13780TIP3   OH262830   1.383   4.761   2.055  0.1086 -0.1353  0.0892
13780TIP3    H162831   1.431   4.722   2.128 -1.2722 -0.6278  0.7574
13780TIP3    H262832   1.314   4.812   2.097  0.9970  1.9342 -0.8058
13781TIP3   OH262833   1.088   2.658  14.202  0.1699  0.8207  0.1358
13781TIP3    H162834   1.010   2.627  14.248 -0.4248  0.1449 -1.2685
13781TIP3    H262835   1.055   2.720  14.138  0.6906  0.1147 -0.8536
13782TIP3   OH262836   4.210   1.394   0.569  0.7076  0.0876  0.3872
13782TIP3    H162837   4.216   1.348   0.653 -0.1574  0.3130  0.5902
13782TIP3    H262838   4.131   1.448   0.578  1.1264  0.8209 -0.2275
13783TIP3   OH262839   1.082   4.413  16.659  0.8863 -0.1082  0.6105
13783TIP3    H162840   1.081   4.319  16.675  3.5685 -0.7132 -1.8531
13783TIP3    H262841   0.993   4.442  16.678  0.0056 -3.1017  1.5436
13784TIP3   OH262842   4.603   2.421  14.086  0.0172 -0.2531 -0.2975
13784TIP3    H162843   4.550   2.342  14.097  0.3698 -0.4825 -0.2278
13784TIP3    H262844   4.639   2.439  14.173 -2.1931  1.5359  0.3412
13785TIP3   OH262845   4.709   1.051  13.335 -0.7803  0.1159  0.0880
13785TIP3    H162846   4.650   1.081  13.266 -0.2495 -2.2178 -1.5238
13785TIP3    H262847   4.797   1.067  13.300 -0.5052 -1.2310  0.0932
13786TIP3   OH262848   4.665   4.313   1.415  0.2557  0.0702 -0.2738
13786TIP3    H162849   4.617   4.272   1.487 -1.0395  2.1891  0.1729
13786TIP3    H262850   4.690   4.240   1.358 -0.9831 -1.4123  0.9702
13787TIP3   OH262851   4.011   2.931   5.551 -0.0540  0.5249 -0.8108
13787TIP3    H162852   3.998   2.988   5.627  2.2761  0.3490 -0.2048
13787TIP3    H262853   3.996   2.988   5.475 -1.0757  1.0402 -0.2474
13788TIP3   OH262854   4.291   2.335   4.978 -0.5397 -0.4135  0.6770
13788TIP3    H162855   4.288   2.358   5.071 -0.5523 -1.6140  0.9989
13788TIP3    H262856   4.200   2.335   4.950 -0.5375 -0.0680  0.6723
13789TIP3   OH262857   5.801   5.639   4.976  0.2783 -0.8254  0.0432
13789TIP3    H162858   5.800   5.708   4.910 -0.7899  0.0190  0.9047
13789TIP3    H262859   5.832   5.682   5.055  1.5653 -1.8303  0.1209
13790TIP3   OH262860   0.630   3.350   0.982 -0.1748 -0.4503 -0.5755
13790TIP3    H162861   0.658   3.258   0.975  0.5370 -0.2733 -0.1403
13790TIP3    H262862   0.684   3.386   1.052 -0.7887  0.1831 -0.4243
13791TIP3   OH262863   0.171   3.018  16.768 -0.5494  0.4241 -0.3685
13791TIP3    H162864   0.214   3.100  16.742  1.1853 -0.3620 -0.1322
13791TIP3    H262865   0.201   3.003  16.857 -0.3831 -0.7518 -0.6135
13792TIP3   OH262866   0.185   5.181   0.922 -0.0272  0.2169 -0.3354
13792TIP3    H162867   0.094   5.183   0.952  0.0106  2.1765 -0.2393
13792TIP3    H262868   0.187   5.242   0.848  0.9316 -0.8470 -1.2280
13793TIP3   OH262869   6.251   2.886   3.995 -0.4360 -0.3080 -0.6747
13793TIP3    H162870   6.322   2.950   3.990 -0.3232 -0.0518  2.3120
13793TIP3    H262871   6.232   2.879   4.089 -1.9290 -3.0629 -1.0852
13794TIP3   OH262872   6.617   1.145   2.401 -0.7772  0.2138  0.2537
13794TIP3    H162873   6.704   1.186   2.408 -1.4598  1.7026  0.5822
13794TIP3    H262874   6.608   1.125   2.308  0.3544 -1.0396  0.3735
13795TIP3   OH262875   2.549   5.549   3.983  0.1657  0.0238 -0.4457
13795TIP3    H162876   2.584   5.628   3.940 -0.8115  0.4943 -0.3904
13795TIP3    H262877   2.459   5.543   3.952  0.2122 -1.0516 -0.4015
13796TIP3   OH262878   3.508   4.845   3.134  0.3388 -0.2476 -0.4075
13796TIP3    H162879   3.446   4.918   3.134 -0.1092 -0.5694 -2.3923
13796TIP3    H262880   3.460   4.773   3.176  0.9303  0.6537  1.9405
13797TIP3   OH262881   1.645   0.487   3.423  0.3241  0.2760 -0.0057
13797TIP3    H162882   1.578   0.532   3.475  1.5049  1.6933  0.3682
13797TIP3    H262883   1.718   0.474   3.485  0.4753 -1.1294 -0.4321
13798TIP3   OH262884   3.660   0.303  14.275 -0.1202 -0.2079  0.4180
13798TIP3    H162885   3.566   0.315  14.291 -0.2412 -1.8444  1.1700
13798TIP3    H262886   3.703   0.354  14.343 -0.4917 -0.4544  0.8387
13799TIP3   OH262887   5.351   1.525   4.517  0.0878 -0.7032  0.5368
13799TIP3    H162888   5.269   1.541   4.471  1.2878  1.3035 -1.0990
13799TIP3    H262889   5.336   1.557   4.606 -0.7256  0.2052  0.0832
13800TIP3   OH262890   5.677   0.283  12.369  0.0774  0.0172  0.1213
13800TIP3    H162891   5.656   0.342  12.296 -0.4161  1.0056  1.0254
13800TIP3    H262892   5.605   0.220  12.370 -1.2443  1.4676  1.2276
13801TIP3   OH262893   2.807   4.527   3.905 -0.1476  0.1587 -0.2545
13801TIP3    H162894   2.718   4.502   3.930 -0.3250 -0.3840 -1.3582
13801TIP3    H262895   2.796   4.613   3.863 -0.2314 -0.1331 -0.8402
13802TIP3   OH262896   1.077   0.048   3.595  0.1162 -0.0701  0.5464
13802TIP3    H162897   1.153   0.076   3.646 -1.2530  1.1082  2.0664
13802TIP3    H262898   1.059   0.121   3.537 -0.7651  0.3462  1.3150
13803TIP3   OH262899   5.255   1.986  11.562  0.3932 -0.0445 -0.1186
13803TIP3    H162900   5.309   1.945  11.629  0.9147  1.7896  0.6224
13803TIP3    H262901   5.311   2.052  11.522 -0.7351  0.6893 -0.5535
13804TIP3   OH262902   1.171   3.009   2.626  0.3778 -0.3031 -0.9007
13804TIP3    H162903   1.106   3.073   2.653  0.4404 -0.6948  0.2404
13804TIP3    H262904   1.174   3.016   2.530 -0.4445  0.5694 -0.8745
13805TIP3   OH262905   0.639   6.505   4.820  0.3669  0.1211  0.0025
13805TIP3    H162906   0.575   6.547   4.763  0.9880  2.1516  0.7215
13805TIP3    H262907   0.602   6.514   4.908  0.5452 -0.8042  0.1764
13806TIP3   OH262908   0.110   4.146  11.241 -0.7101 -0.3171  0.2401
13806TIP3    H162909   0.137   4.089  11.169 -0.5901 -1.5238  1.2104
13806TIP3    H262910   0.057   4.215  11.199  1.2651  0.3600 -1.2871
13807TIP3   OH262911   0.958   5.708   1.435 -0.6647 -0.1375 -0.0168
13807TIP3    H162912   0.981   5.617   1.416  0.4306  0.3509 -1.2080
13807TIP3    H262913   0.864   5.713   1.419 -0.7351 -1.0433  0.0373
13808TIP3   OH262914   4.349   2.018   4.927  0.0711  0.2239  0.4796
13808TIP3    H162915   4.398   2.097   4.905 -1.1245  0.3858 -2.0162
13808TIP3    H262916   4.286   2.008   4.855 -0.2138 -2.6845  0.9871
13809TIP3   OH262917   5.886   1.115   2.723 -0.2566 -0.2766  0.2926
13809TIP3    H162918   5.885   1.179   2.794 -1.3589 -1.0565  0.9956
13809TIP3    H262919   5.842   1.038   2.758 -1.0096 -0.6074 -1.2997
13810TIP3   OH262920   6.660   2.321   4.107  0.6888  0.4085  0.2996
13810TIP3    H162921   6.700   2.235   4.121  2.1042  0.7289 -1.5412
13810TIP3    H262922   6.715   2.382   4.156  1.3981  0.6056 -0.7122
13811TIP3   OH262923   3.607   5.363  17.010  0.3387  0.0908 -0.1514
13811TIP3    H162924   3.654   5.305  17.071 -0.0728  1.0543  1.1281
13811TIP3    H262925   3.660   5.443  17.008  0.1263  0.2180 -0.7487
13812TIP3   OH262926   6.124   2.459   2.672 -0.0570 -0.1154  0.0840
13812TIP3    H162927   6.093   2.408   2.597  0.9436  1.9734 -1.8809
13812TIP3    H262928   6.051   2.517   2.693 -0.3000 -0.6320  0.7262
13813TIP3   OH262929   0.372   4.025  16.410 -0.2753 -0.2072  0.1334
13813TIP3    H162930   0.409   4.085  16.474 -1.6189  0.1143  0.6510
13813TIP3    H262931   0.278   4.045  16.410 -0.3006  0.0544 -2.1804
13814TIP3   OH262932   3.051   0.132  14.780 -0.3381 -0.2577  0.3291
13814TIP3    H162933   2.960   0.124  14.750  0.3614 -1.2116 -1.7193
13814TIP3    H262934   3.103   0.095  14.709  1.7695  1.6168  0.7785
13815TIP3   OH262935   2.934   0.606   0.362 -0.0528  0.6351 -0.0554
13815TIP3    H162936   2.852   0.624   0.407 -0.9457  0.3486 -1.4981
13815TIP3    H262937   2.937   0.670   0.291  0.8560  0.4696 -0.1765
13816TIP3   OH262938   1.787   5.661   1.881  0.8185 -0.2944 -0.2274
13816TIP3    H162939   1.806   5.721   1.953  1.5275 -1.0735  0.2565
13816TIP3    H262940   1.785   5.574   1.922 -0.3032 -0.6041 -0.8875
13817TIP3   OH262941   0.394   2.731   0.303 -0.2447  0.9931  0.1227
13817TIP3    H162942   0.459   2.729   0.373  2.0170  0.7210 -1.8744
13817TIP3    H262943   0.331   2.663   0.327 -0.6592  2.1999  2.8190
13818TIP3   OH262944   0.322   0.894  12.833 -0.0037 -0.7653 -0.1389
13818TIP3    H162945   0.314   0.834  12.907 -0.3847  1.4038  1.6943
13818TIP3    H262946   0.355   0.975  12.871 -1.7981  0.9820 -2.0308
13819TIP3   OH262947   3.345   5.232  11.749  0.1852  0.8390  0.0561
13819TIP3    H162948   3.402   5.289  11.698  0.4645  1.0528  0.6057
13819TIP3    H262949   3.333   5.154  11.694 -2.2737  2.4152 -1.8791
13820TIP3   OH262950   1.790   2.661  11.632 -0.3043  0.6965 -0.4139
13820TIP3    H162951   1.737   2.592  11.594  0.0141 -0.2702  0.8381
13820TIP3    H262952   1.748   2.682  11.715  1.2075 -0.0749  0.5968
13821TIP3   OH262953   3.823   1.808  17.050  0.2213 -0.9084  0.1143
13821TIP3    H162954   3.787   1.820  16.962 -0.4732  2.9393  0.7167
13821TIP3    H262955   3.749   1.828  17.109  1.4291 -0.2423  1.4781
13822TIP3   OH262956   0.118   6.181  12.737 -0.0176 -0.0557  0.2748
13822TIP3    H162957   0.211   6.191  12.758 -0.1955 -0.7928  1.5127
13822TIP3    H262958   0.075   6.251  12.787 -0.3532 -1.2662  1.7632
13823TIP3   OH262959   3.209   2.639  10.928 -0.2535 -0.3018  0.5822
13823TIP3    H162960   3.288   2.584  10.928  0.3623  0.5599  0.7996
13823TIP3    H262961   3.146   2.590  10.875  0.6649 -0.6844 -0.2001
13824TIP3   OH262962   5.339   1.735  11.199 -0.2049  0.4672 -0.1200
13824TIP3    H162963   5.428   1.700  11.195 -0.3379  0.0620  0.3948
13824TIP3    H262964   5.319   1.761  11.108 -0.0898 -0.7659 -0.5204
13825TIP3   OH262965   1.368   4.059  16.828  0.0010  0.0239  0.1146
13825TIP3    H162966   1.335   4.071  16.918  0.9142  0.8330  0.3539
13825TIP3    H262967   1.442   4.000  16.837  0.0426  0.0404 -0.1191
13826TIP3   OH262968   5.021   5.265   5.776  0.2529 -0.2180 -0.3123
13826TIP3    H162969   5.083   5.297   5.843 -0.7751  1.2755 -0.0039
13826TIP3    H262970   4.939   5.253   5.824 -0.1078 -0.6289 -1.0193
13827TIP3   OH262971   5.628   3.081  13.011 -0.5276  0.1345  0.4268
13827TIP3    H162972   5.586   3.092  13.097 -0.4859  1.7151  0.2686
13827TIP3    H262973   5.659   3.168  12.988 -0.9533 -0.1673 -1.4246
13828TIP3   OH262974   1.259   0.826   4.058 -0.4136 -0.5681  0.6662
13828TIP3    H162975   1.311   0.746   4.065  3.0692  1.5670  2.1539
13828TIP3    H262976   1.225   0.841   4.146  0.3306  0.3380  0.8227
13829TIP3   OH262977   3.265   2.305  11.471 -0.2775 -0.3035  0.7095
13829TIP3    H162978   3.273   2.218  11.508 -0.5255 -1.4016 -1.6404
13829TIP3    H262979   3.189   2.300  11.413  1.2773  0.6324 -1.5659
13830TIP3   OH262980   6.816   5.328   2.299 -0.7271 -0.0337  0.6850
13830TIP3    H162981   6.878   5.271   2.254 -0.1280  1.2389 -0.1756
13830TIP3    H262982   6.780   5.274   2.369 -0.3261 -1.5079 -0.1958
13831TIP3   OH262983   6.271   1.427   0.678 -0.2695  0.3025 -0.2778
13831TIP3    H162984   6.291   1.424   0.772  0.1148 -0.8847 -0.3736
13831TIP3    H262985   6.179   1.399   0.673 -0.7598  1.8207 -0.1547
13832TIP3   OH262986   6.659   1.935  17.097 -0.2114  0.3296 -0.2730
13832TIP3    H162987   6.598   1.970  17.032  0.5463  2.6483  0.1658
13832TIP3    H262988   6.622   1.961  17.181  1.1650  1.4864  0.0074
13833TIP3   OH262989   1.255   0.993   3.419  0.9587  0.1159 -0.3522
13833TIP3    H162990   1.320   1.035   3.364  0.5776 -0.0239 -0.9226
13833TIP3    H262991   1.187   1.060   3.432  0.5266 -0.1940 -0.9594
13834TIP3   OH262992   1.187   6.574  14.645 -0.2732  0.1092 -0.0354
13834TIP3    H162993   1.195   6.484  14.613  2.3080 -0.0644  0.8250
13834TIP3    H262994   1.194   6.566  14.740 -0.7581  1.1697  0.1031
13835TIP3   OH262995   3.507   1.175  12.146 -0.0231  0.2543  0.5476
13835TIP3    H162996   3.564   1.144  12.076 -0.4026 -0.1816  0.4245
13835TIP3    H262997   3.546   1.141  12.226 -0.4365 -0.5722  0.4146
13836TIP3   OH262998   4.668   5.598  13.202  0.2713  0.4851  0.4341
13836TIP3    H162999   4.701   5.542  13.272 -0.5016 -1.5284 -0.7294
13836TIP3    H263000   4.735   5.595  13.134 -0.4892 -0.3954 -0.3045
13837TIP3   OH263001   2.478   0.031   3.972  0.0277  0.4214  0.2644
13837TIP3    H163002   2.507   0.040   4.063 -0.1527  3.0460  0.1542
13837TIP3    H263003   2.384   0.050   3.975  0.2059  1.5351 -0.5555
13838TIP3   OH263004   4.575   2.101   5.585 -0.1007  0.0392 -0.2880
13838TIP3    H163005   4.623   2.177   5.552 -0.0378  1.1437  2.1306
13838TIP3    H263006   4.489   2.107   5.542 -0.6816  2.4929  1.0192
13839TIP3   OH263007   1.976   2.149  15.409 -0.0701 -0.2676  0.0043
13839TIP3    H163008   1.997   2.243  15.402 -1.2810 -0.0426 -0.9492
13839TIP3    H263009   2.002   2.113  15.325 -0.9631 -0.4925 -0.1862
13840TIP3   OH263010   1.447   6.069   1.931  0.0387 -0.0375 -0.1228
13840TIP3    H163011   1.533   6.088   1.894  0.6845 -0.3246  1.1676
13840TIP3    H263012   1.464   6.053   2.024 -1.3885 -0.2708  0.1209
13841TIP3   OH263013   1.301   1.962   1.668 -0.5143 -0.3680  0.2621
13841TIP3    H163014   1.379   1.908   1.684 -0.4596 -1.2808 -2.5462
13841TIP3    H263015   1.334   2.049   1.651 -0.4592  0.1819  2.7657
13842TIP3   OH263016   4.311   0.077   4.529  0.0177 -0.3859  0.1227
13842TIP3    H163017   4.283   0.122   4.609 -0.2412 -1.2288  0.5192
13842TIP3    H263018   4.236   0.086   4.470 -0.0817 -0.4036  0.2448
13843TIP3   OH263019   5.968   0.581  11.720  0.4461  0.2511 -0.2012
13843TIP3    H163020   5.902   0.619  11.662  0.9224  0.7555 -0.4244
13843TIP3    H263021   6.038   0.552  11.661  1.0394  0.9783  0.1153
13844TIP3   OH263022   3.239   1.225  10.748 -0.3016 -0.1623 -0.0108
13844TIP3    H163023   3.204   1.314  10.755  0.0014  0.0733 -1.2756
13844TIP3    H263024   3.295   1.227  10.671 -0.3332 -1.4766 -0.0969
13845TIP3   OH263025   5.985   0.686  14.260  0.1138 -0.8123  0.9630
13845TIP3    H163026   5.923   0.647  14.321  0.8436 -1.7245  1.1559
13845TIP3    H263027   6.071   0.658  14.292  0.6680  0.7724  0.9609
13846TIP3   OH263028   2.350   1.793  15.513 -0.2451  0.4175 -0.1872
13846TIP3    H163029   2.356   1.722  15.576  0.1708  0.0530 -0.6252
13846TIP3    H263030   2.413   1.769  15.444  0.3151  1.4789 -0.0697
13847TIP3   OH263031   4.220   2.883   0.400 -0.5059 -0.6496  0.2896
13847TIP3    H163032   4.270   2.805   0.425 -0.3071 -0.7193 -0.3175
13847TIP3    H263033   4.270   2.956   0.436 -0.0440 -0.7277 -0.1861
13848TIP3   OH263034   6.249   6.318  14.562  0.1783  0.5604 -0.3410
13848TIP3    H163035   6.332   6.365  14.564 -0.6774  2.1358  1.2609
13848TIP3    H263036   6.242   6.278  14.649 -0.6015  0.1810 -0.5703
13849TIP3   OH263037   2.576   6.716  17.049 -0.1426  0.0585 -0.2021
13849TIP3    H163038   2.544   6.802  17.020 -1.2604  0.3113  1.6480
13849TIP3    H263039   2.498   6.660  17.048 -0.1485 -0.0253  1.8077
13850TIP3   OH263040   5.115   4.327  12.235 -0.1114  0.1422 -0.3020
13850TIP3    H163041   5.175   4.303  12.306  1.3839  0.3613 -1.4428
13850TIP3    H263042   5.039   4.270  12.248  1.5635 -2.3354 -0.4919
13851TIP3   OH263043   0.149   0.567   3.877  0.3702  0.0253  0.1821
13851TIP3    H163044   0.162   0.484   3.924 -1.4216 -0.3656  0.0878
13851TIP3    H263045   0.129   0.631   3.946 -1.5077 -0.3835  0.0762
13852TIP3   OH263046   4.710   1.434   0.087  0.0697 -0.6871 -0.3227
13852TIP3    H163047   4.644   1.408   0.151  1.2221  2.2761  2.3583
13852TIP3    H263048   4.793   1.407   0.126  0.7829  0.8063 -0.7304
13853TIP3   OH263049   3.914   4.884  15.337  0.2760 -0.0372  0.1985
13853TIP3    H163050   3.943   4.926  15.256  2.4495 -2.2560 -0.3072
13853TIP3    H263051   3.983   4.904  15.400 -1.0097  1.0043  1.3429
13854TIP3   OH263052   5.766   6.463   2.950  0.0434 -0.2507  0.5569
13854TIP3    H163053   5.842   6.480   2.894 -0.3135  0.6897  0.3397
13854TIP3    H263054   5.717   6.395   2.903  0.2660 -0.1893  0.2291
13855TIP3   OH263055   4.476   4.658   3.814 -0.3616  0.1172  0.2163
13855TIP3    H163056   4.450   4.683   3.903 -0.0460  1.4178 -0.0493
13855TIP3    H263057   4.564   4.623   3.824 -0.8759 -1.1235  0.6148
13856TIP3   OH263058   6.226   1.602  14.267  0.3686  0.0792 -0.4203
13856TIP3    H163059   6.297   1.538  14.259  1.6695  1.1465  1.6714
13856TIP3    H263060   6.168   1.564  14.334  0.8083  0.7391  0.3584
13857TIP3   OH263061   6.174   4.064   0.874 -0.4253  0.2163  0.2623
13857TIP3    H163062   6.258   4.024   0.850  0.9459  3.1569 -0.2937
13857TIP3    H263063   6.131   3.998   0.928  2.0927 -1.5514  0.2894
13858TIP3   OH263064   3.003   0.496  15.355  0.4263 -0.1378 -0.2640
13858TIP3    H163065   3.009   0.404  15.381 -0.3020  0.0759  0.7335
13858TIP3    H263066   3.047   0.543  15.425 -1.1706  0.4218  0.4311
13859TIP3   OH263067   5.081   4.535  10.950 -0.2986  0.3557  0.7175
13859TIP3    H163068   5.062   4.511  10.860 -0.4587 -1.2443  1.1619
13859TIP3    H263069   5.016   4.490  11.002  0.4488  0.3981  1.7246
13860TIP3   OH263070   0.094   3.605   1.450  0.1904 -0.5984 -0.6138
13860TIP3    H163071   0.074   3.591   1.542 -1.3765  1.3735 -0.5949
13860TIP3    H263072   0.090   3.518   1.411 -0.6842 -1.2631  0.8782
13861TIP3   OH263073   5.505   4.004  14.635 -0.0712  0.3018  0.3063
13861TIP3    H163074   5.510   3.938  14.567 -3.7409 -0.2558  0.4113
13861TIP3    H263075   5.446   4.071  14.600 -0.0500  1.2555  1.9663
13862TIP3   OH263076   3.561   3.644   4.218 -0.3574 -0.3550  0.2066
13862TIP3    H163077   3.508   3.722   4.234  0.9978  0.3112  1.6583
13862TIP3    H263078   3.577   3.607   4.304 -1.1982 -2.4464 -0.4689
13863TIP3   OH263079   1.532   4.421  13.952  0.4237 -0.1237 -0.4698
13863TIP3    H163080   1.617   4.450  13.983  1.0198 -0.2877 -1.8434
13863TIP3    H263081   1.491   4.500  13.917 -0.5464  0.2050  1.3279
13864TIP3   OH263082   3.958   0.668  14.223  0.7208  0.1257  0.0988
13864TIP3    H163083   3.977   0.710  14.307 -1.3131  0.8602  0.2330
13864TIP3    H263084   3.927   0.739  14.167  3.1824 -0.0943 -1.7511
13865TIP3   OH263085   5.728   3.207   0.120  0.1415 -0.1793  0.1919
13865TIP3    H163086   5.647   3.243   0.084  1.2219  1.2634 -0.9147
13865TIP3    H263087   5.700   3.152   0.194 -1.7809  0.7531  0.2013
13866TIP3   OH263088   3.924   0.570  15.562  0.1896 -0.6347  0.1539
13866TIP3    H163089   3.947   0.493  15.510  2.2367 -1.1151  1.6602
13866TIP3    H263090   3.991   0.574  15.630 -0.5471  1.8283  0.8249
13867TIP3   OH263091   2.909   2.553  14.033 -0.6198  0.1494 -0.6310
13867TIP3    H163092   2.921   2.620  13.966  1.6304  0.1212 -0.3336
13867TIP3    H263093   2.848   2.592  14.095  1.5835  2.5514  0.1954
13868TIP3   OH263094   6.386   1.152  12.839  0.0445  0.4122  0.2499
13868TIP3    H163095   6.425   1.069  12.866 -0.5411  0.2423  0.5990
13868TIP3    H263096   6.456   1.216  12.848  0.4762 -0.0285  0.0653
13869TIP3   OH263097   1.421   4.091   5.953 -0.1698 -0.4122 -0.6859
13869TIP3    H163098   1.334   4.057   5.975 -0.4027  0.2083 -0.6107
13869TIP3    H263099   1.461   4.112   6.037  0.3419 -1.3753 -0.6841
13870TIP3   OH263100   4.005   3.198  13.090  0.0138 -0.1454 -0.0900
13870TIP3    H163101   3.913   3.225  13.090 -0.0056 -0.2030  0.1851
13870TIP3    H263102   4.013   3.140  13.015 -0.4604 -1.0779  0.5588
13871TIP3   OH263103   6.476   4.184   5.070  0.1708  0.1650  0.1323
13871TIP3    H163104   6.510   4.095   5.076  1.5542  0.6881  0.4078
13871TIP3    H263105   6.390   4.175   5.029  0.9605 -1.1428 -1.2958
13872TIP3   OH263106   1.476   3.183  12.498  0.1960 -0.1119 -0.1370
13872TIP3    H163107   1.391   3.225  12.512  0.0767 -1.1469  2.9781
13872TIP3    H263108   1.487   3.181  12.402 -1.6575  3.1189 -0.5515
13873TIP3   OH263109   3.722   0.099   0.060 -0.5305 -0.1335 -0.2045
13873TIP3    H163110   3.684   0.044   0.129 -1.7069  1.4184  0.4270
13873TIP3    H263111   3.799   0.138   0.101  0.5690 -1.6008 -0.7966
13874TIP3   OH263112   6.563   1.875   1.461  0.5821  0.1779  0.4962
13874TIP3    H163113   6.642   1.852   1.411 -0.5582 -1.2287 -0.7652
13874TIP3    H263114   6.564   1.815   1.535  1.1589  0.8067  1.0149
13875TIP3   OH263115   6.010   2.117   5.431  0.2013 -0.2303 -0.2801
13875TIP3    H163116   6.029   2.146   5.342 -2.9033  0.0926 -0.9620
13875TIP3    H263117   6.013   2.021   5.426  0.5856 -0.2038 -0.5804
13876TIP3   OH263118   6.583   3.991   6.243 -0.4013  0.1784  0.3678
13876TIP3    H163119   6.543   3.936   6.176 -0.0506  0.5557 -0.1642
13876TIP3    H263120   6.581   4.079   6.205 -0.0010  0.3589  0.7617
13877TIP3   OH263121   1.050   6.808  14.722  0.3372 -0.5299 -0.1277
13877TIP3    H163122   1.075   6.719  14.697 -0.1078 -0.5211 -0.6230
13877TIP3    H263123   1.108   6.829  14.796  1.5248 -0.6387 -1.0019
13878TIP3   OH263124   2.608   1.762   3.188  0.0128 -0.1057  0.3569
13878TIP3    H163125   2.534   1.821   3.173  1.5774  2.1476  0.8997
13878TIP3    H263126   2.597   1.733   3.279 -0.5341 -0.3195  0.2287
13879TIP3   OH263127   3.045   6.503   2.197 -0.2378  0.5769  0.9216
13879TIP3    H163128   2.989   6.480   2.123 -0.3974  2.2412  0.4799
13879TIP3    H263129   2.985   6.509   2.271 -0.2423 -0.0728  0.9749
13880TIP3   OH263130   2.098   1.395  16.103  0.6617 -0.1384 -0.2792
13880TIP3    H163131   2.010   1.420  16.076  1.3385 -0.0286 -2.6556
13880TIP3    H263132   2.142   1.477  16.121  1.4480  0.2342 -3.3024
13881TIP3   OH263133   0.362   3.233   1.737  0.3676 -0.4235 -0.1164
13881TIP3    H163134   0.294   3.187   1.687 -0.5926  0.5162  0.3018
13881TIP3    H263135   0.323   3.317   1.760  1.3229 -0.2572  0.9827
13882TIP3   OH263136   4.327   1.839   4.120 -0.0436 -0.0264 -0.1908
13882TIP3    H163137   4.397   1.891   4.080 -1.5048  0.4644 -2.2867
13882TIP3    H263138   4.360   1.817   4.207  1.3405  3.0116  0.1752
13883TIP3   OH263139   4.815   3.434  12.379  0.3603  0.0942  0.2728
13883TIP3    H163140   4.731   3.479  12.365 -0.4133 -0.9678  1.2851
13883TIP3    H263141   4.878   3.485  12.328 -0.8342  1.1204 -0.2454
13884TIP3   OH263142   0.714   0.609   2.927  0.4517  0.1895  0.0142
13884TIP3    H163143   0.757   0.681   2.974  0.1936 -1.2634  2.6706
13884TIP3    H263144   0.786   0.555   2.895  0.6335  0.6614 -0.3784
13885TIP3   OH263145   2.661   1.088   0.261 -0.4492  0.2468 -0.4955
13885TIP3    H163146   2.663   1.175   0.299  0.0434  0.2683 -0.5612
13885TIP3    H263147   2.569   1.073   0.238 -0.3846  1.1451 -1.3981
13886TIP3   OH263148   5.990   6.554   3.211 -0.5388  0.7998 -0.1819
13886TIP3    H163149   5.965   6.610   3.284 -3.5064 -0.7569  0.1769
13886TIP3    H263150   5.940   6.587   3.137 -0.9382 -0.2556 -0.4018
13887TIP3   OH263151   4.828   0.804  13.188 -0.5746 -0.3692 -0.3287
13887TIP3    H163152   4.780   0.850  13.258  1.2894 -0.5338  1.1506
13887TIP3    H263153   4.814   0.712  13.207 -0.0474 -0.4141 -0.1344
13888TIP3   OH263154   2.703   3.428  17.161  0.2509 -0.5722 -0.0831
13888TIP3    H163155   2.680   3.388  17.076 -0.3599 -0.8871  0.2201
13888TIP3    H263156   2.700   3.523  17.144 -0.2374 -0.6272 -0.3246
13889TIP3   OH263157   3.435   6.517   2.594 -0.2645 -0.2380 -0.0677
13889TIP3    H163158   3.361   6.525   2.535 -0.0782  0.3692 -0.2222
13889TIP3    H263159   3.435   6.425   2.620 -1.8954  0.0136  1.0016
13890TIP3   OH263160   4.054   5.539   5.049 -0.4830  0.0423 -0.3122
13890TIP3    H163161   4.122   5.552   5.116  0.9349 -0.2128 -1.6525
13890TIP3    H263162   4.005   5.462   5.079  1.4334 -1.3381 -0.5541
13891TIP3   OH263163   0.345   5.915  15.700  0.3744  0.6936  0.0264
13891TIP3    H163164   0.420   5.969  15.676 -0.0500  1.0665 -0.4983
13891TIP3    H263165   0.362   5.888  15.790  0.6146  1.6760  0.2861
13892TIP3   OH263166   6.418   3.153   3.002  0.3662 -0.7241 -0.2286
13892TIP3    H163167   6.377   3.068   2.982  0.0430 -0.0575 -2.8610
13892TIP3    H263168   6.467   3.138   3.083  0.6919 -3.5563 -0.8361
13893TIP3   OH263169   1.103   3.471   0.746 -0.6015  0.9357  0.4880
13893TIP3    H163170   1.197   3.487   0.740  0.0680 -2.0698  1.2799
13893TIP3    H263171   1.070   3.490   0.658  0.8213  1.5673  0.0638
13894TIP3   OH263172   5.371   5.398   4.290  0.1636 -0.4210 -0.0722
13894TIP3    H163173   5.311   5.460   4.248  0.2622  0.1834  0.6795
13894TIP3    H263174   5.458   5.431   4.269  0.2966  2.0103  3.5510
13895TIP3   OH263175   1.876   2.033  14.082  0.2662  0.4568 -0.0384
13895TIP3    H163176   1.926   1.953  14.100  1.2862  1.3466  1.4123
13895TIP3    H263177   1.908   2.096  14.148 -0.9559  1.8609 -0.7204
13896TIP3   OH263178   4.081   5.587  11.262  0.2560 -0.1998 -0.0338
13896TIP3    H163179   4.058   5.519  11.326 -0.1112 -1.5287 -1.5187
13896TIP3    H263180   4.016   5.577  11.193  1.6925  0.0099 -1.4695
13897TIP3   OH263181   0.754   0.673  12.051 -0.6387 -0.0153  0.1497
13897TIP3    H163182   0.847   0.687  12.065 -0.9809  0.3913  2.4939
13897TIP3    H263183   0.742   0.579  12.061  0.0957 -0.9293 -4.9483
13898TIP3   OH263184   0.163   3.438  12.610 -0.3272  0.0950  0.1135
13898TIP3    H163185   0.231   3.387  12.564  1.5198 -0.5532  3.2749
13898TIP3    H263186   0.202   3.525  12.621 -0.8385  0.2999  0.3296
13899TIP3   OH263187   2.711   3.361   4.018 -0.5982 -0.3825 -0.1553
13899TIP3    H163188   2.678   3.290   4.072  0.9903 -1.6094 -0.7219
13899TIP3    H263189   2.736   3.320   3.935  1.4723  0.5697 -0.0810
13900TIP3   OH263190   3.719   5.563   4.096 -0.2303 -0.3755  0.4529
13900TIP3    H163191   3.771   5.591   4.171 -0.6206  0.4714  0.4276
13900TIP3    H263192   3.769   5.594   4.020 -0.9187  0.7406  0.4381
13901TIP3   OH263193   0.409   6.295   1.646  0.0491 -0.5108  0.2099
13901TIP3    H163194   0.470   6.359   1.610  0.6820 -0.4612  1.3248
13901TIP3    H263195   0.327   6.310   1.598  0.3201  0.8228  0.1209
13902TIP3   OH263196   5.909   3.542   2.023  0.1392  0.6007 -0.0409
13902TIP3    H163197   5.956   3.551   1.940  0.0411  2.3548  0.0584
13902TIP3    H263198   5.971   3.498   2.081  0.7904  0.7679 -0.5952
13903TIP3   OH263199   2.419   1.717  14.891 -0.7859 -0.7754  0.0576
13903TIP3    H163200   2.398   1.706  14.984 -2.2684  0.4346 -0.1000
13903TIP3    H263201   2.483   1.788  14.889 -2.0940  0.4520  0.0725
13904TIP3   OH263202   6.438   2.828   5.362  0.3533 -0.6739 -0.5365
13904TIP3    H163203   6.521   2.795   5.396 -1.3067 -1.7548  2.8833
13904TIP3    H263204   6.450   2.923   5.358  2.1090 -0.8907 -1.4190
13905TIP3   OH263205   2.621   3.991   5.102  0.3012  0.4243  0.1969
13905TIP3    H163206   2.650   3.903   5.079 -1.0668 -0.0187  0.0379
13905TIP3    H263207   2.652   4.005   5.191 -1.7941 -1.3760  1.3109
13906TIP3   OH263208   6.658   0.983   4.524 -0.1948 -0.1203 -0.2496
13906TIP3    H163209   6.611   0.905   4.554 -1.1884  0.4150 -0.3756
13906TIP3    H263210   6.710   1.010   4.600 -0.0777 -0.7207 -0.1089
13907TIP3   OH263211   2.442   1.112  11.714  0.2011 -0.2425  0.1648
13907TIP3    H163212   2.471   1.050  11.780 -1.3202 -0.1511  0.9579
13907TIP3    H263213   2.348   1.122  11.730 -0.2207 -0.2381 -2.0267
13908TIP3   OH263214   1.209   1.739  13.576 -0.1153 -0.4279  0.1413
13908TIP3    H163215   1.139   1.795  13.543 -1.3790 -1.5716  0.7996
13908TIP3    H263216   1.165   1.674  13.630  1.5541 -0.6079  1.3786
13909TIP3   OH263217   4.361   5.694   4.978 -0.7143 -0.4552 -0.0439
13909TIP3    H163218   4.449   5.724   4.998 -0.3660  0.1162 -2.1744
13909TIP3    H263219   4.334   5.644   5.055  1.2448 -0.1951  0.8633
13910TIP3   OH263220   2.714   6.398   4.519 -0.2442  0.0451  0.3510
13910TIP3    H163221   2.695   6.490   4.535 -0.6685  0.0165  0.0259
13910TIP3    H263222   2.644   6.369   4.461  1.3268  0.2035 -1.7593
13911TIP3   OH263223   1.428   3.475  16.038 -0.0262  0.1850 -0.0666
13911TIP3    H163224   1.517   3.485  16.071 -0.3856 -0.5176  1.1460
13911TIP3    H263225   1.428   3.389  15.996 -0.4148 -0.2767  0.8714
13912TIP3   OH263226   3.095   0.363  12.641  0.1867  0.2289 -0.3400
13912TIP3    H163227   3.185   0.394  12.639 -0.0162  0.8309 -0.5521
13912TIP3    H263228   3.070   0.354  12.549  0.1694 -0.3552 -0.2811
13913TIP3   OH263229   5.385   3.863  13.094  0.4046  0.0145 -0.6046
13913TIP3    H163230   5.316   3.812  13.137  0.7555  0.1181  0.0885
13913TIP3    H263231   5.411   3.809  13.020  0.9588 -0.9602  0.2693
13914TIP3   OH263232   0.533   0.863   2.022 -0.3040  0.1095 -0.3446
13914TIP3    H163233   0.550   0.881   1.929 -1.9311  1.6403 -0.3836
13914TIP3    H263234   0.497   0.944   2.056 -2.0271 -1.1676  1.0534
13915TIP3   OH263235   0.180   6.271  14.159 -0.0300  0.2906  0.5782
13915TIP3    H163236   0.184   6.220  14.078 -0.9637 -1.6094  1.6321
13915TIP3    H263237   0.259   6.324  14.159  0.4256 -0.3291 -1.1575
13916TIP3   OH263238   3.471   0.640  16.897 -0.1598 -0.4602  0.9869
13916TIP3    H163239   3.563   0.628  16.872 -0.0956 -1.5697  1.7203
13916TIP3    H263240   3.424   0.636  16.814  0.4077 -0.3397  0.6508
13917TIP3   OH263241   6.602   3.861   5.298 -0.2164  0.1858 -0.4283
13917TIP3    H163242   6.592   3.878   5.205 -1.8802  1.8300 -0.0032
13917TIP3    H263243   6.692   3.887   5.318  0.4774 -1.1052 -1.7105
13918TIP3   OH263244   6.051   1.668  12.566 -0.2756 -0.0445 -0.4697
13918TIP3    H163245   6.071   1.579  12.593 -1.0951 -0.2777 -0.5902
13918TIP3    H263246   5.964   1.662  12.526  0.3033  0.5462 -1.8739
13919TIP3   OH263247   4.714   0.223   2.643 -0.8587 -0.2322 -0.1874
13919TIP3    H163248   4.724   0.316   2.661  2.3127 -0.2774 -1.1226
13919TIP3    H263249   4.744   0.180   2.724  0.2544 -0.3902 -0.6606
13920TIP3   OH263250   3.197   2.772   2.060  0.3349  0.4978  0.2853
13920TIP3    H163251   3.214   2.865   2.072  1.3837  0.4346 -0.5541
13920TIP3    H263252   3.107   2.768   2.028  0.4990  1.2813 -0.3013
13921TIP3   OH263253   1.655   3.295  16.500  0.4103 -0.5114 -0.0152
13921TIP3    H163254   1.665   3.357  16.573 -0.0873 -2.0763  1.4720
13921TIP3    H263255   1.665   3.348  16.422  0.9480  1.2701  1.1897
13922TIP3   OH263256   0.824   5.458   6.352  0.1076 -0.2258 -0.3812
13922TIP3    H163257   0.762   5.400   6.309  0.3383  0.2071 -1.3091
13922TIP3    H263258   0.810   5.544   6.312 -0.0417  0.3215  0.7759
13923TIP3   OH263259   5.687   6.158  12.203  0.2273  0.3488 -0.5251
13923TIP3    H163260   5.595   6.148  12.229 -0.0229  2.0218 -0.6642
13923TIP3    H263261   5.683   6.213  12.125  1.2678 -0.8488 -1.4532
13924TIP3   OH263262   4.233   1.203   0.735 -0.0683  0.6442  0.5796
13924TIP3    H163263   4.169   1.190   0.804  0.1969  0.0356  0.7174
13924TIP3    H263264   4.229   1.123   0.683  2.7855 -0.8627  2.4108
13925TIP3   OH263265   1.134   4.704   3.490  0.2884 -0.4401  0.0996
13925TIP3    H163266   1.069   4.769   3.517  0.2216 -0.8629  0.9820
13925TIP3    H263267   1.206   4.756   3.455 -0.3805  0.0436 -0.5749
13926TIP3   OH263268   5.035   4.102   3.159  0.0685  0.1303 -0.1109
13926TIP3    H163269   5.121   4.088   3.200 -0.6940 -1.7743  0.9818
13926TIP3    H263270   4.985   4.150   3.225 -0.4537 -0.9487  0.3006
13927TIP3   OH263271   6.429   1.449  14.934  0.0489  0.9911  0.1063
13927TIP3    H163272   6.429   1.538  14.970 -2.1029  0.8453  0.6217
13927TIP3    H263273   6.424   1.392  15.011 -2.1655  0.5903 -0.2762
13928TIP3   OH263274   4.356   1.631  14.411  0.4660 -0.9236  0.3878
13928TIP3    H163275   4.448   1.626  14.385  0.6506  0.0106  0.8089
13928TIP3    H263276   4.353   1.706  14.471 -1.0340  0.7479 -1.6180
13929TIP3   OH263277   3.733   1.686  15.490  0.8572 -0.0628  0.0028
13929TIP3    H163278   3.732   1.729  15.575 -1.1816 -0.0619  0.0217
13929TIP3    H263279   3.730   1.592  15.510 -2.6508 -0.0771  0.0554
13930TIP3   OH263280   2.872   5.020  15.793  0.1520 -0.3391 -0.4919
13930TIP3    H163281   2.859   5.096  15.737 -2.6915 -0.4251 -0.0992
13930TIP3    H263282   2.841   5.048  15.880  0.6313 -1.4435  0.0578
13931TIP3   OH263283   4.724   3.825  16.163  0.1507 -0.1373 -0.6706
13931TIP3    H163284   4.733   3.843  16.070  0.5607 -0.6911 -0.7446
13931TIP3    H263285   4.630   3.815  16.177 -0.0190  1.1038 -0.7904
13932TIP3   OH263286   3.393   1.393   5.606  0.2040  0.0643 -0.2142
13932TIP3    H163287   3.445   1.323   5.644  0.0570  0.2074  0.2551
13932TIP3    H263288   3.331   1.349   5.548 -0.4162 -0.2561  0.6875
13933TIP3   OH263289   5.060   4.719   1.007 -0.1317 -0.1579 -0.0295
13933TIP3    H163290   5.043   4.652   1.073 -1.4133 -0.6682 -0.8427
13933TIP3    H263291   5.155   4.731   1.010 -0.2624  0.9041  2.8989
13934TIP3   OH263292   3.278   2.154   3.187 -0.1580  0.0949 -1.1616
13934TIP3    H163293   3.262   2.112   3.102 -1.7440  1.0148 -1.3417
13934TIP3    H263294   3.235   2.239   3.181 -0.1931  0.2357  0.5242
13935TIP3   OH263295   2.308   6.453  15.476  0.0288 -0.5137  0.2189
13935TIP3    H163296   2.366   6.423  15.546 -0.2781 -1.8532 -0.0688
13935TIP3    H263297   2.293   6.546  15.495  0.4946 -0.6851  1.5361
13936TIP3   OH263298   1.229   2.192  17.061 -0.5305  0.2205 -0.6985
13936TIP3    H163299   1.285   2.211  16.985 -1.9841  2.1286 -1.3491
13936TIP3    H263300   1.268   2.241  17.133 -0.3601  0.1078 -0.7127
13937TIP3   OH263301   2.362   2.066  15.456  0.0726  0.2076  0.4380
13937TIP3    H163302   2.328   1.988  15.500  1.2422 -0.8976 -0.5113
13937TIP3    H263303   2.293   2.093  15.396  0.0283 -0.7205  0.0605
13938TIP3   OH263304   6.297   6.822  12.317 -0.2168  0.1524 -0.1935
13938TIP3    H163305   6.273   6.818  12.224 -0.5425 -2.2547 -0.0608
13938TIP3    H263306   6.329   6.911  12.329  0.7999  0.2536 -2.8611
13939TIP3   OH263307   1.203   5.630   3.743  0.0499 -0.3391 -0.0019
13939TIP3    H163308   1.206   5.695   3.672  0.6324  0.6364  0.8838
13939TIP3    H263309   1.212   5.546   3.698  1.5134  0.3070 -1.0115
13940TIP3   OH263310   1.860   5.168  16.910  0.2740 -0.0476 -0.4604
13940TIP3    H163311   1.906   5.141  16.989  1.3851  2.1771 -0.2738
13940TIP3    H263312   1.887   5.258  16.896 -1.7149  0.3730 -2.0872
13941TIP3   OH263313   4.524   1.273   1.127  0.3065  0.0372  0.1392
13941TIP3    H163314   4.576   1.280   1.047  0.7659  1.2497  0.5188
13941TIP3    H263315   4.440   1.312   1.105 -0.2675 -1.3692 -0.2923
13942TIP3   OH263316   1.326   1.144   1.082 -0.1880  0.2472  0.1524
13942TIP3    H163317   1.301   1.108   1.167 -0.8407 -1.8178 -0.8581
13942TIP3    H263318   1.383   1.077   1.044 -2.4104 -0.4166 -2.3051
13943TIP3   OH263319   6.586   1.586  11.918 -0.3215 -0.4299  0.0437
13943TIP3    H163320   6.516   1.574  11.855 -1.4924  2.3115  0.6634
13943TIP3    H263321   6.543   1.579  12.004 -0.0047  1.5601  0.4279
13944TIP3   OH263322   0.531   2.778  11.964 -0.0671 -0.1026  0.4873
13944TIP3    H163323   0.617   2.803  11.932 -0.2826  1.9964  1.3544
13944TIP3    H263324   0.478   2.768  11.885  1.0596 -2.0878 -0.0948
13945TIP3   OH263325   4.646   6.008  16.678  0.4211  0.4133  0.2651
13945TIP3    H163326   4.577   6.066  16.712  0.9346  1.5031 -0.4764
13945TIP3    H263327   4.646   5.933  16.737 -0.6675  0.8978  0.9172
13946TIP3   OH263328   2.828   6.015   2.128  0.0393 -0.1439  0.1192
13946TIP3    H163329   2.870   6.100   2.141  0.8125 -0.5064  0.0436
13946TIP3    H263330   2.878   5.955   2.183 -1.7839 -0.2081  1.8176
13947TIP3   OH263331   6.308   5.514  15.691 -0.1257  0.0257 -0.0063
13947TIP3    H163332   6.395   5.516  15.651  0.1642 -1.0889  0.5212
13947TIP3    H263333   6.267   5.435  15.656 -0.5350  0.0011  0.5144
13948TIP3   OH263334   1.946   2.920  11.867  0.2156 -0.5495  0.2303
13948TIP3    H163335   1.923   2.967  11.787 -0.3181 -0.9668  0.1281
13948TIP3    H263336   2.029   2.958  11.894  0.1805 -0.0907 -0.2737
13949TIP3   OH263337   0.813   2.371   3.898  0.8485 -0.1499  0.4729
13949TIP3    H163338   0.789   2.347   3.987  2.5399  2.1276  1.6418
13949TIP3    H263339   0.854   2.293   3.862 -0.3330 -1.2717  1.4647
13950TIP3   OH263340   3.912   5.212  13.097  0.1271  0.8555 -0.1397
13950TIP3    H163341   3.990   5.182  13.050 -0.5984 -0.5513 -0.4778
13950TIP3    H263342   3.880   5.135  13.143 -0.1421  1.8065  1.3437
13951TIP3   OH263343   5.143   5.077  15.019 -0.1348 -0.9449  0.0059
13951TIP3    H163344   5.211   5.059  14.954  1.3204  1.9652  0.5896
13951TIP3    H263345   5.085   5.140  14.977 -1.1086 -1.5553  0.3912
13952TIP3   OH263346   3.024   4.157   2.289  0.2534  0.3203  0.0840
13952TIP3    H163347   3.024   4.176   2.383  3.6377 -0.4302  0.3301
13952TIP3    H263348   2.997   4.065   2.283 -1.0702  0.6836  0.1807
13953TIP3   OH263349   6.734   5.220  15.607 -0.0117  0.0579  0.5331
13953TIP3    H163350   6.810   5.221  15.549  0.4619 -1.6051  1.0623
13953TIP3    H263351   6.671   5.280  15.566  0.9781  0.2718 -0.7323
13954TIP3   OH263352   0.392   4.257  14.591 -0.4961  0.2453  0.0632
13954TIP3    H163353   0.420   4.234  14.679 -1.7065  0.0640  0.4211
13954TIP3    H263354   0.317   4.315  14.604 -0.4275  0.5616 -0.8488
13955TIP3   OH263355   2.644   2.811   5.646  0.0715  0.1058 -0.7449
13955TIP3    H163356   2.595   2.766   5.577 -0.8480  1.4444 -1.0134
13955TIP3    H263357   2.645   2.903   5.618  3.4412  0.0453 -1.1341
13956TIP3   OH263358   6.351   4.538   1.545  0.0800  0.7026 -0.1728
13956TIP3    H163359   6.258   4.558   1.549 -0.2575 -0.7876  0.3407
13956TIP3    H263360   6.394   4.609   1.592 -0.8122  1.2821 -0.2199
13957TIP3   OH263361   0.013   1.898  10.728 -0.0155  0.3652 -0.2067
13957TIP3    H163362   0.003   1.836  10.655  0.4404 -0.2171  0.2127
13957TIP3    H263363  -0.077   1.919  10.753 -0.1887  1.3110 -1.5332
13958TIP3   OH263364   0.488   0.257  15.334 -0.0968 -0.1023  0.8324
13958TIP3    H163365   0.419   0.210  15.380 -0.6069  1.0514  1.2898
13958TIP3    H263366   0.562   0.197  15.334 -0.5167 -0.6552  1.9760
13959TIP3   OH263367   1.913   3.710   0.967  0.3725 -0.1664 -0.5781
13959TIP3    H163368   2.006   3.730   0.964  0.2149  0.4821 -1.5731
13959TIP3    H263369   1.871   3.793   0.988  0.1000 -0.7959  1.5953
13960TIP3   OH263370   4.907   6.452  14.428 -0.2023  0.8112  0.1794
13960TIP3    H163371   4.898   6.499  14.511 -0.4795  0.5048  0.3284
13960TIP3    H263372   4.963   6.377  14.449 -1.8574 -0.3700  0.5776
13961TIP3   OH263373   3.935   1.987  11.690  0.3226  0.1809 -0.2244
13961TIP3    H163374   3.859   1.940  11.726 -0.8605  1.2314 -1.2495
13961TIP3    H263375   3.989   2.007  11.767 -0.3829 -0.6900  0.5219
13962TIP3   OH263376   0.979   2.151  15.611  0.2237  0.9858  0.2784
13962TIP3    H163377   0.958   2.112  15.696  1.1591 -0.3098 -0.0559
13962TIP3    H263378   1.026   2.232  15.633  2.3680 -0.3873  1.0520
13963TIP3   OH263379   1.222   3.351  15.249  0.2232 -0.3945 -0.4281
13963TIP3    H163380   1.246   3.345  15.157  0.3776 -2.0763 -0.3161
13963TIP3    H263381   1.304   3.368  15.295  0.3622 -0.8580 -0.4993
13964TIP3   OH263382   3.667   4.794   0.421 -0.3966  0.3223  0.1335
13964TIP3    H163383   3.654   4.872   0.475 -0.5486  0.0751  0.4583
13964TIP3    H263384   3.748   4.811   0.373 -0.7555  0.9453 -0.2647
13965TIP3   OH263385   5.117   1.024   3.622 -0.1575  0.3454  0.4082
13965TIP3    H163386   5.187   1.086   3.643  0.1430  0.4129 -0.7084
13965TIP3    H263387   5.057   1.028   3.697  1.3095 -0.1367  1.6689
13966TIP3   OH263388   3.561   0.427  11.818 -0.3369  0.2935 -0.0296
13966TIP3    H163389   3.655   0.441  11.831 -0.0320 -1.1366 -0.5538
13966TIP3    H263390   3.555   0.356  11.754 -1.7871  1.9680 -1.8887
13967TIP3   OH263391   1.028   2.689  12.309 -0.1353  0.4056  0.1521
13967TIP3    H163392   0.977   2.610  12.290 -0.0650  0.7939 -1.8185
13967TIP3    H263393   1.000   2.714  12.397  0.3703 -2.1940  1.1503
13968TIP3   OH263394   0.893   1.454   2.410 -0.0394  0.0296 -0.4384
13968TIP3    H163395   0.838   1.397   2.357  0.1829  0.9956 -1.7780
13968TIP3    H263396   0.945   1.503   2.346  0.5689  0.9362  0.7027
13969TIP3   OH263397   0.062   1.032   0.534  0.1383 -0.6598 -0.2529
13969TIP3    H163398   0.156   1.016   0.525  0.3821  1.2151 -1.6362
13969TIP3    H263399   0.040   1.086   0.458 -2.2363 -1.6818 -0.3734
13970TIP3   OH263400   2.513   5.193   2.523  0.1842  0.2707  0.2070
13970TIP3    H163401   2.547   5.160   2.606 -2.4854 -1.7520  0.6319
13970TIP3    H263402   2.581   5.172   2.459  1.7597  0.7640  1.6478
13971TIP3   OH263403   2.336   2.120   1.702  0.4198 -0.3943  0.5069
13971TIP3    H163404   2.328   2.215   1.714  1.0372 -0.0833 -1.2529
13971TIP3    H263405   2.415   2.109   1.650 -0.4808 -1.7590 -0.6344
13972TIP3   OH263406   2.020   5.726  16.340  0.4429 -0.6777  0.6509
13972TIP3    H163407   1.959   5.667  16.297  1.0805 -0.7356 -0.1963
13972TIP3    H263408   1.964   5.784  16.393 -0.2480 -1.4218  0.7490
13973TIP3   OH263409   4.838   4.555  14.486 -0.5174 -0.8375  0.0514
13973TIP3    H163410   4.825   4.646  14.512  1.8745 -0.2266 -0.6470
13973TIP3    H263411   4.791   4.504  14.553 -3.9638  0.8430 -0.8437
13974TIP3   OH263412   2.956   5.326  12.279  0.1945 -0.6565 -0.4067
13974TIP3    H163413   2.981   5.258  12.216  1.2423 -1.9654  1.3314
13974TIP3    H263414   2.987   5.293  12.363 -1.4239  0.8831  0.8692
13975TIP3   OH263415   2.055   5.564  11.801 -0.3435  0.1097  0.6644
13975TIP3    H163416   2.118   5.593  11.734 -1.1098 -0.0844 -0.1582
13975TIP3    H263417   2.110   5.527  11.870  0.5006  1.0303  0.4994
13976TIP3   OH263418   6.121   0.719  11.015  0.3547  0.0390 -0.3425
13976TIP3    H163419   6.103   0.760  10.930 -0.0857 -1.5096 -1.0412
13976TIP3    H263420   6.045   0.663  11.031  0.6333 -0.0184  0.8704
13977TIP3   OH263421   6.046   2.730  11.252  0.4701 -0.1285 -0.4017
13977TIP3    H163422   6.076   2.771  11.171  1.4727 -0.8000 -0.3922
13977TIP3    H263423   6.061   2.636  11.239  0.9827 -0.2200  0.6716
13978TIP3   OH263424   0.989   2.316   1.220 -0.4989 -0.0425  0.0394
13978TIP3    H163425   0.967   2.245   1.280 -0.0111  0.0201  0.2940
13978TIP3    H263426   0.908   2.331   1.171 -0.3906 -1.2659 -0.5323
13979TIP3   OH263427   2.776   6.682  13.211  0.3401 -0.3470  0.2633
13979TIP3    H163428   2.684   6.705  13.197  0.4336 -0.1661 -0.0640
13979TIP3    H263429   2.820   6.709  13.131  0.4636 -1.6974 -0.1484
13980TIP3   OH263430   4.985   2.250   1.957 -0.9153  0.2048  0.4172
13980TIP3    H163431   4.968   2.207   1.874 -1.0286  0.0293  0.5310
13980TIP3    H263432   4.898   2.272   1.991 -0.8807  0.0006  0.6345
13981TIP3   OH263433   1.705   1.410   3.802  0.3930 -0.5620 -0.0495
13981TIP3    H163434   1.653   1.349   3.854 -0.7956 -0.9345 -1.5986
13981TIP3    H263435   1.669   1.404   3.714  1.8776  0.5607 -0.7928
13982TIP3   OH263436   6.701   4.749  16.068  0.2423 -0.5617 -0.2419
13982TIP3    H163437   6.629   4.686  16.064  0.1268 -0.4565  0.1270
13982TIP3    H263438   6.751   4.734  15.987 -1.2709  0.6574 -1.4467
13983TIP3   OH263439   1.681   2.954   3.178 -0.4849  0.4684 -0.7649
13983TIP3    H163440   1.615   3.023   3.166 -1.1635 -0.1773 -0.8314
13983TIP3    H263441   1.664   2.893   3.106 -1.3040 -0.8816  0.5447
13984TIP3   OH263442   2.605   5.503  11.343  0.3447 -0.1939  0.3632
13984TIP3    H163443   2.612   5.408  11.347 -0.4051 -0.2725 -0.0183
13984TIP3    H263444   2.695   5.534  11.336  0.5400 -0.9306 -0.6167
13985TIP3   OH263445   5.963   0.301  15.589 -0.0919  0.1315  0.2230
13985TIP3    H163446   5.937   0.277  15.679  1.0435  2.0207  1.1163
13985TIP3    H263447   5.881   0.300  15.540 -0.6894 -1.2717  1.1711
13986TIP3   OH263448   6.605   0.466  17.012  0.1699  0.3625 -0.2758
13986TIP3    H163449   6.546   0.527  16.968  0.8823  1.0743 -0.2778
13986TIP3    H263450   6.549   0.415  17.069 -0.2120  2.3858  1.2559
13987TIP3   OH263451   0.266   0.488   4.283  0.2649  0.3929  0.0638
13987TIP3    H163452   0.235   0.499   4.194  1.5876  1.1939 -0.3261
13987TIP3    H263453   0.241   0.398   4.306  0.6117 -0.1079 -1.4049
13988TIP3   OH263454   6.398   5.099  15.285 -0.0908 -0.2284 -0.2008
13988TIP3    H163455   6.312   5.100  15.242 -0.4220  0.1264  0.4536
13988TIP3    H263456   6.418   5.191  15.300  0.8137 -0.2572 -1.1144
13989TIP3   OH263457   6.143   3.088  16.475  0.6823  0.3721 -0.7638
13989TIP3    H163458   6.178   3.123  16.393  2.2655 -2.2130 -1.3131
13989TIP3    H263459   6.205   3.118  16.542  0.2264  1.2584 -0.7365
13990TIP3   OH263460   2.797   6.379   0.866 -0.0120 -0.7289  0.0905
13990TIP3    H163461   2.721   6.373   0.808  0.6160 -2.1153 -0.6444
13990TIP3    H263462   2.789   6.465   0.907 -1.6462 -0.5970 -0.4152
13991TIP3   OH263463   5.860   0.527   0.840 -0.3369 -0.2129 -0.3239
13991TIP3    H163464   5.884   0.620   0.842  1.2585 -0.5709  2.2505
13991TIP3    H263465   5.824   0.513   0.753 -1.3085  2.9757 -0.5467
13992TIP3   OH263466   5.559   2.772   3.353 -0.0961 -0.2551  0.0336
13992TIP3    H163467   5.629   2.708   3.339 -0.2427 -0.3489 -0.2784
13992TIP3    H263468   5.525   2.790   3.265 -0.1484  0.1471  0.1345
13993TIP3   OH263469   5.274   5.885  16.221 -0.4005 -0.7368 -0.3140
13993TIP3    H163470   5.180   5.873  16.207 -0.4306 -2.1108  0.8481
13993TIP3    H263471   5.301   5.806  16.267  1.1613  0.0653  0.1931
13994TIP3   OH263472   5.842   0.757   1.161  0.0311 -0.8036  0.3098
13994TIP3    H163473   5.856   0.665   1.183 -0.3993 -0.2132  3.4786
13994TIP3    H263474   5.759   0.758   1.114 -1.3606 -1.8640  2.5612
13995TIP3   OH263475   1.861   1.067  12.791  0.0851  0.7452  0.5444
13995TIP3    H163476   1.914   1.000  12.835  0.0524 -0.4488 -1.0986
13995TIP3    H263477   1.869   1.045  12.698 -0.2943  2.7976 -0.0191
13996TIP3   OH263478   5.615   2.219  14.014 -0.5705  0.2794  0.0717
13996TIP3    H163479   5.584   2.251  13.929 -2.6343  1.8359  1.3198
13996TIP3    H263480   5.552   2.150  14.038  1.4155 -1.9081 -0.6862
13997TIP3   OH263481   6.017   5.405   4.861 -0.4224 -0.2601 -0.5765
13997TIP3    H163482   6.055   5.489   4.834 -0.7275 -0.0461 -0.3520
13997TIP3    H263483   6.093   5.348   4.876  0.0616  0.9548  2.5806
13998TIP3   OH263484   6.402   2.370  12.550 -0.2395 -0.2570 -0.1581
13998TIP3    H163485   6.360   2.379  12.465  0.7243  0.6000 -0.5594
13998TIP3    H263486   6.449   2.287  12.545  1.4928  0.7332 -1.2472
13999TIP3   OH263487   1.613   5.074   2.603 -0.3407  0.1844 -0.1679
13999TIP3    H163488   1.532   5.093   2.651 -0.1422 -0.5762  0.4929
13999TIP3    H263489   1.615   4.979   2.597 -1.2655  0.2412 -3.2927
14000TIP3   OH263490   3.084   5.918  12.455  0.5718  0.3327 -0.3357
14000TIP3    H163491   3.030   5.892  12.380 -1.9968  2.1398  0.7501
14000TIP3    H263492   3.117   6.004  12.432  0.1679  0.6899  0.3809
14001TIP3   OH263493   5.090   2.184  13.052 -0.0075  0.0299 -0.4102
14001TIP3    H163494   5.037   2.143  12.984 -0.8416 -1.3923  1.0129
14001TIP3    H263495   5.077   2.278  13.039 -2.5091 -0.2518 -0.4546
14002TIP3   OH263496   5.145   2.959  15.269  0.4909  0.2661 -0.0398
14002TIP3    H163497   5.240   2.959  15.278  0.5280 -0.9895 -0.3396
14002TIP3    H263498   5.118   3.043  15.307  1.6990  0.5826  0.1630
14003TIP3   OH263499   0.205   1.850   0.945 -0.3035 -0.1659  0.7617
14003TIP3    H163500   0.283   1.861   0.891 -0.5842 -0.1153  0.3596
14003TIP3    H263501   0.167   1.938   0.952 -0.6466 -0.2863  0.4567
14004TIP3   OH263502   2.124   2.896   5.252 -0.0123  0.3994  0.4745
14004TIP3    H163503   2.132   2.959   5.324  1.5281 -0.4482  1.0736
14004TIP3    H263504   2.029   2.884   5.241 -0.2803  0.0665  2.7890
14005TIP3   OH263505   1.723   5.672  12.870 -0.3432  0.0959 -0.0044
14005TIP3    H163506   1.776   5.682  12.791 -0.5941 -0.6766 -0.2768
14005TIP3    H263507   1.784   5.690  12.942  0.3189 -0.8303 -0.3116
14006TIP3   OH263508   6.548   6.597  13.067  0.1305  0.0737 -0.3791
14006TIP3    H163509   6.593   6.536  13.125  1.6308 -0.4986 -2.0738
14006TIP3    H263510   6.591   6.681  13.081 -2.2584  1.0200  2.3235
14007TIP3   OH263511   2.066   3.742  15.201  0.0967  0.0087 -0.1882
14007TIP3    H163512   2.083   3.741  15.295 -1.3903  1.6296  0.1581
14007TIP3    H263513   1.972   3.725  15.194  0.4578 -1.7694 -1.5269
14008TIP3   OH263514   2.056   4.328  13.517 -0.5598 -0.2972 -0.3242
14008TIP3    H163515   1.994   4.362  13.581 -0.1930 -2.6596  1.4253
14008TIP3    H263516   2.139   4.370  13.539 -0.9565  0.8615 -0.9707
14009TIP3   OH263517   3.468   2.080   4.891 -0.1079 -0.3503  0.1493
14009TIP3    H163518   3.485   2.019   4.819 -0.7078 -2.2867  1.5433
14009TIP3    H263519   3.555   2.107   4.921  0.2239 -1.5551  0.3161
14010TIP3   OH263520   2.531   2.768  16.750 -0.3821 -0.1198  0.2414
14010TIP3    H163521   2.476   2.798  16.823  0.8705 -1.6340  1.8980
14010TIP3    H263522   2.604   2.830  16.747 -1.1241  0.7355 -0.6555
14011TIP3   OH263523   2.933   0.098   2.699  0.2773  0.2532  0.7762
14011TIP3    H163524   2.979   0.125   2.619 -0.5667  0.3107  0.3018
14011TIP3    H263525   2.917   0.179   2.747 -1.3399  0.5198 -0.1558
14012TIP3   OH263526   6.164   2.856   6.043  0.5517 -0.5384 -0.6857
14012TIP3    H163527   6.132   2.897   6.123 -1.4373 -1.7571 -0.7999
14012TIP3    H263528   6.236   2.912   6.014  0.6063  0.5155  1.3598
14013TIP3   OH263529   6.754   5.701   1.365  0.1751 -0.1536  0.3441
14013TIP3    H163530   6.732   5.624   1.417  1.3394  0.0683  1.2062
14013TIP3    H263531   6.718   5.775   1.414  0.0034 -0.0595  0.0787
14014TIP3   OH263532   6.452   4.952  10.884  0.3221  0.5918  0.6550
14014TIP3    H163533   6.512   4.909  10.823  0.5868 -0.1512  1.4188
14014TIP3    H263534   6.391   5.001  10.828  1.0038  0.5145 -0.1669
14015TIP3   OH263535   1.383   5.635  16.641  0.4037 -0.0891 -0.5047
14015TIP3    H163536   1.472   5.602  16.630 -0.0624 -1.8051  0.4825
14015TIP3    H263537   1.365   5.626  16.735 -0.7137  0.4564 -0.6494
14016TIP3   OH263538   5.871   1.020   0.972  0.6482 -0.2308  0.0823
14016TIP3    H163539   5.844   0.941   0.924  0.7550  0.1821 -0.6813
14016TIP3    H263540   5.870   0.994   1.064  1.7047 -1.4480 -0.2140
14017TIP3   OH263541   2.297   4.731  14.218  0.1822 -0.2032 -0.7177
14017TIP3    H163542   2.252   4.668  14.274  0.9526  0.3658  0.5794
14017TIP3    H263543   2.336   4.794  14.278 -1.6625  2.3367 -1.9831
14018TIP3   OH263544   4.122   6.120  13.653 -0.0572 -0.4374  0.1038
14018TIP3    H163545   4.031   6.149  13.660 -0.7162 -1.5577 -2.5664
14018TIP3    H263546   4.140   6.077  13.737 -1.9437 -0.0939  0.7294
14019TIP3   OH263547   3.398   3.568   2.504  0.5724 -0.1149 -0.6552
14019TIP3    H163548   3.427   3.643   2.556  0.8986 -1.4192  1.1277
14019TIP3    H263549   3.412   3.596   2.413  0.9636  1.8543 -0.0515
14020TIP3   OH263550   4.325   3.352  16.671 -0.2328  0.0826  0.0582
14020TIP3    H163551   4.382   3.405  16.727 -2.2986  1.5139  0.9179
14020TIP3    H263552   4.346   3.262  16.694  2.3170  0.5014 -0.3623
14021TIP3   OH263553   0.705   2.260  14.873 -0.2186 -0.0604 -0.9169
14021TIP3    H163554   0.634   2.227  14.819  0.1472 -3.1561  0.2663
14021TIP3    H263555   0.661   2.298  14.950 -0.7124 -2.5802  0.1462
14022TIP3   OH263556   3.405   0.493   4.784 -0.2246  0.2709 -0.4196
14022TIP3    H163557   3.411   0.569   4.842 -2.5538  0.4900 -0.3980
14022TIP3    H263558   3.363   0.526   4.705  0.5210 -0.6092 -1.2193
14023TIP3   OH263559   0.501   1.135   6.529 -0.0006  0.4845 -0.0014
14023TIP3    H163560   0.422   1.190   6.530  1.4775  2.8230  2.0998
14023TIP3    H263561   0.572   1.196   6.509  1.4449 -1.2479 -0.3574
14024TIP3   OH263562   0.932   5.270   0.884  0.2076 -0.0088 -0.2496
14024TIP3    H163563   0.915   5.331   0.955 -0.1658 -0.6867  0.2540
14024TIP3    H263564   1.027   5.273   0.871  0.5877 -1.5438  1.8107
14025TIP3   OH263565   3.466   2.345  11.806  0.6833  0.4689  0.0552
14025TIP3    H163566   3.517   2.325  11.885  0.3391 -1.7102 -0.2402
14025TIP3    H263567   3.389   2.288  11.811  1.2168 -0.5866 -2.3992
14026TIP3   OH263568   6.006   4.918   2.361 -0.3359 -0.4788 -0.7744
14026TIP3    H163569   5.998   4.994   2.304  0.8860 -0.0004 -0.3579
14026TIP3    H263570   5.970   4.947   2.445 -0.2243 -0.4802 -0.7252
14027TIP3   OH263571   3.030   0.606   4.057  0.4848 -0.2789 -0.0452
14027TIP3    H163572   3.055   0.556   3.979  0.5916 -2.5887  1.3838
14027TIP3    H263573   2.947   0.647   4.032  0.8624 -0.3880 -1.6017
14028TIP3   OH263574   2.292   1.868  11.852 -0.4993  0.4209  0.5191
14028TIP3    H163575   2.270   1.935  11.916  0.7842  0.6028  0.8103
14028TIP3    H263576   2.387   1.856  11.862 -0.5647 -0.8152 -0.1236
14029TIP3   OH263577   3.944   2.327  12.824 -0.3875 -0.8418  0.0906
14029TIP3    H163578   3.876   2.383  12.861 -0.3633  0.1759 -1.3355
14029TIP3    H263579   4.010   2.320  12.893 -1.6612 -1.3885  1.2889
14030TIP3   OH263580   4.389   0.129  15.152 -0.7125 -0.3803  0.5030
14030TIP3    H163581   4.454   0.088  15.095 -2.9719 -0.6233 -2.0856
14030TIP3    H263582   4.353   0.057  15.203 -0.4647 -0.5967  0.3773
14031TIP3   OH263583   6.532   0.781  15.937 -0.3374  0.1577  0.0664
14031TIP3    H163584   6.540   0.696  15.894  1.1875  1.1869 -1.8658
14031TIP3    H263585   6.615   0.793  15.983 -0.0945  1.0113 -0.5617
14032TIP3   OH263586   3.489   4.747   0.880  0.4119  0.2173 -0.3888
14032TIP3    H163587   3.577   4.777   0.858  0.6160  0.4269  0.6657
14032TIP3    H263588   3.440   4.828   0.897 -0.3129  0.1734 -2.0657
14033TIP3   OH263589   5.776   2.905   0.612  0.1851  0.4602 -0.7335
14033TIP3    H163590   5.769   2.810   0.620 -1.9252  0.5432 -0.9033
14033TIP3    H263591   5.832   2.918   0.536 -0.1527 -0.6731 -1.2080
14034TIP3   OH263592   3.005   4.465   4.674 -0.4138 -0.3997 -0.1451
14034TIP3    H163593   2.967   4.380   4.696 -0.5469  0.1206  1.8833
14034TIP3    H263594   2.930   4.522   4.659 -0.3392 -0.4191 -0.6107
14035TIP3   OH263595   0.974   6.544   0.864  0.0377 -0.1737  0.1805
14035TIP3    H163596   0.935   6.458   0.876 -3.7614  1.1263 -1.4470
14035TIP3    H263597   0.966   6.561   0.770  2.4280  1.2908  0.1399
14036TIP3   OH263598   1.411   0.447  10.742 -0.1399 -0.3600  0.2961
14036TIP3    H163599   1.415   0.460  10.647 -0.3512  1.5759  0.5187
14036TIP3    H263600   1.443   0.357  10.755 -1.3577 -1.1422 -1.6955
14037TIP3   OH263601   6.110   3.525  11.441 -0.0240 -0.1701 -0.1343
14037TIP3    H163602   6.068   3.522  11.527  0.0519  0.6133 -0.0625
14037TIP3    H263603   6.188   3.580  11.454  0.7570 -1.1852 -0.3828
14038TIP3   OH263604   2.559   0.334  13.155  0.2421  0.4015  0.7210
14038TIP3    H163605   2.563   0.376  13.068 -2.5659 -2.2908 -0.9097
14038TIP3    H263606   2.649   0.305  13.171  1.3021  2.9051 -0.1749
14039TIP3   OH263607   3.515   5.589  14.184  0.5137 -0.2802  0.6629
14039TIP3    H163608   3.570   5.664  14.208 -0.6010  0.8464 -0.2363
14039TIP3    H263609   3.510   5.593  14.089  2.3503 -2.9037  0.3436
14040TIP3   OH263610   6.349   4.199  13.059  0.1522 -0.2568  0.0475
14040TIP3    H163611   6.377   4.108  13.058  0.8520 -0.0463  0.4236
14040TIP3    H263612   6.274   4.201  13.119 -0.2362 -0.6817 -0.4080
14041TIP3   OH263613   3.567   2.817  15.129 -0.5161  0.0374  0.2734
14041TIP3    H163614   3.471   2.810  15.129 -0.6519  1.5027  0.1910
14041TIP3    H263615   3.584   2.902  15.170  0.7076  0.3095 -0.7513
14042TIP3   OH263616   2.302   0.191  15.160 -0.3004 -0.3952  0.0113
14042TIP3    H163617   2.346   0.241  15.229 -1.4190  0.0924  0.3874
14042TIP3    H263618   2.358   0.202  15.083 -0.4288  1.2956  0.1341
14043TIP3   OH263619   6.183   6.427   5.606 -0.3361 -0.3915  0.2244
14043TIP3    H163620   6.178   6.519   5.629  1.5413 -0.5668  1.5594
14043TIP3    H263621   6.113   6.414   5.542 -0.1760  2.0971 -0.5388
14044TIP3   OH263622   6.647   0.166  12.569  0.6812 -0.0079  0.1277
14044TIP3    H163623   6.699   0.243  12.546  1.1237 -1.0233 -2.5974
14044TIP3    H263624   6.558   0.188  12.540  0.2686  0.3333  1.5330
14045TIP3   OH263625   0.089   2.306  13.637 -0.7361  0.7158 -0.4867
14045TIP3    H163626   0.072   2.290  13.729  0.1487 -0.4118 -0.4923
14045TIP3    H263627   0.042   2.236  13.591 -0.3972  0.7031 -0.8238
14046TIP3   OH263628   1.433   6.300  13.332  0.3214 -0.0513  0.2543
14046TIP3    H163629   1.442   6.306  13.427 -1.1764  2.5787  0.3207
14046TIP3    H263630   1.429   6.391  13.302 -0.3811 -0.8159 -2.2043
14047TIP3   OH263631   0.039   3.697  12.261  0.5497  0.2160 -0.4344
14047TIP3    H163632   0.001   3.785  12.259  2.0387  0.8925 -1.6391
14047TIP3    H263633   0.128   3.711  12.294 -0.0012 -1.2497  1.8764
14048TIP3   OH263634   5.683   2.650   2.337 -0.4070 -0.4020 -0.0836
14048TIP3    H163635   5.622   2.720   2.357 -0.0681  0.4940 -1.9015
14048TIP3    H263636   5.646   2.608   2.259 -0.2594 -1.8328  0.5931
14049TIP3   OH263637   0.823   1.304  15.831 -0.0409  0.4003 -0.6128
14049TIP3    H163638   0.776   1.319  15.913  3.5261 -2.6225  2.3235
14049TIP3    H263639   0.871   1.386  15.816  0.0737  0.6526  0.9530
14050TIP3   OH263640   3.192   3.902  15.129  0.2509 -0.5895 -0.0914
14050TIP3    H163641   3.175   3.973  15.191 -0.6291 -1.3619  0.5936
14050TIP3    H263642   3.285   3.883  15.139  0.7235  1.0917 -0.9911
14051TIP3   OH263643   5.843   6.582   3.524 -0.3530 -0.5181 -1.1541
14051TIP3    H163644   5.871   6.597   3.615  0.9486 -0.4171 -1.5457
14051TIP3    H263645   5.748   6.595   3.525 -0.3908 -0.7710  0.2403
14052TIP3   OH263646   5.575   2.179   3.335  0.0780  0.0254  0.2115
14052TIP3    H163647   5.497   2.125   3.350 -0.7691  1.0249 -0.5174
14052TIP3    H263648   5.567   2.208   3.245  1.2541  0.2330  0.1615
14053TIP3   OH263649   2.255   0.343   3.780  0.6443  0.2497 -0.4915
14053TIP3    H163650   2.220   0.432   3.778 -0.7674 -0.2666 -0.3249
14053TIP3    H263651   2.237   0.307   3.693 -0.0069 -0.2924 -0.1469
14054TIP3   OH263652   0.604   2.530   2.086 -0.0852  0.3163 -0.0788
14054TIP3    H163653   0.647   2.564   2.165 -0.7196  0.6777  0.1255
14054TIP3    H263654   0.530   2.590   2.073 -1.4813 -1.2035  0.5156
14055TIP3   OH263655   5.958   3.048  15.889  0.1323  0.0727  0.1011
14055TIP3    H163656   5.880   3.069  15.838  0.9573  1.2601 -0.7361
14055TIP3    H263657   5.951   3.104  15.966  0.8449  1.2877 -0.6806
14056TIP3   OH263658   0.749   4.991  15.163 -0.0412  0.0615 -0.2849
14056TIP3    H163659   0.707   5.074  15.141 -2.6724 -1.1188 -0.1255
14056TIP3    H263660   0.826   5.016  15.215 -0.9387  2.3696  0.0559
14057TIP3   OH263661   6.086   3.001  14.854  0.5035 -0.4551  0.3529
14057TIP3    H163662   6.099   2.995  14.948 -1.0291  0.5159  0.6595
14057TIP3    H263663   6.001   3.044  14.844  1.1707  0.5642 -1.4711
14058TIP3   OH263664   5.134   5.211   4.710  0.1413 -0.3998  0.3725
14058TIP3    H163665   5.111   5.293   4.755 -2.1830  0.0216 -1.4212
14058TIP3    H263666   5.217   5.230   4.668  0.2779  0.6159  1.0472
14059TIP3   OH263667   1.943   4.750   2.145  0.3533 -0.4261  0.0255
14059TIP3    H163668   1.927   4.826   2.200  2.2252 -0.0046  0.0585
14059TIP3    H263669   2.033   4.761   2.114 -0.1378 -1.3800 -1.9540
14060TIP3   OH263670   4.242   6.325  14.787  0.1073 -0.3316 -0.3090
14060TIP3    H163671   4.155   6.321  14.829 -1.2238 -1.3643 -2.9339
14060TIP3    H263672   4.269   6.416  14.798 -0.8851 -0.1827  1.3250
14061TIP3   OH263673   1.124   0.484   2.574 -0.0067 -0.3295 -0.4894
14061TIP3    H163674   1.217   0.472   2.559 -0.2004 -1.1139 -1.1923
14061TIP3    H263675   1.099   0.559   2.520  0.8788  2.4143  2.5603
14062TIP3   OH263676   5.256   1.720   0.314 -0.0182 -0.3188  0.1116
14062TIP3    H163677   5.310   1.650   0.351  1.4170  0.3709 -0.6315
14062TIP3    H263678   5.288   1.800   0.355 -0.9347  0.0441  0.1511
14063TIP3   OH263679   4.122   3.952  15.630 -0.3082  0.0920  0.0772
14063TIP3    H163680   4.194   3.890  15.616  0.1759  0.5932  0.3117
14063TIP3    H263681   4.144   3.996  15.712 -1.8040 -0.9983  1.1069
14064TIP3   OH263682   3.787   2.357   2.175 -0.3837  0.4583  0.1173
14064TIP3    H163683   3.762   2.343   2.084 -0.1024 -0.1802  0.1289
14064TIP3    H263684   3.731   2.295   2.224  2.4785 -2.5059 -0.0193
14065TIP3   OH263685   5.504   3.878   4.026 -0.1906 -0.0338  0.1191
14065TIP3    H163686   5.461   3.811   3.973 -0.1689  0.7995 -0.9839
14065TIP3    H263687   5.521   3.835   4.110 -0.1008 -1.4179 -0.5899
14066TIP3   OH263688   4.175   2.059  16.443  0.3844  0.2408  0.3060
14066TIP3    H163689   4.184   2.050  16.538 -1.6967 -0.5955  0.4728
14066TIP3    H263690   4.243   2.121  16.418  0.9463  0.5053  2.3404
14067TIP3   OH263691   2.531   6.065  11.678  0.0514 -0.3032  0.4761
14067TIP3    H163692   2.566   5.982  11.647  1.9565  0.4239  0.5787
14067TIP3    H263693   2.594   6.095  11.744 -1.2826  0.6103  1.3897
14068TIP3   OH263694   4.597   1.894  12.548  0.5303  0.1559  0.1874
14068TIP3    H163695   4.507   1.915  12.574  0.2115 -2.0872  1.0916
14068TIP3    H263696   4.615   1.809  12.588  2.4439 -0.2942 -1.4541
14069TIP3   OH263697   6.208   0.673   5.348  0.4352 -0.7673 -0.1960
14069TIP3    H163698   6.161   0.624   5.416 -0.3625  1.2292  0.7824
14069TIP3    H263699   6.155   0.751   5.334  2.9789  1.1731  0.3229
14070TIP3   OH263700   3.815   6.462   6.177 -0.7670 -0.2589 -0.3871
14070TIP3    H163701   3.795   6.521   6.249 -2.2559  0.5156 -1.3821
14070TIP3    H263702   3.813   6.518   6.099  2.0899 -0.7929 -0.9824
14071TIP3   OH263703   3.702   0.786  15.335 -0.0185  0.2305 -0.2670
14071TIP3    H163704   3.641   0.797  15.263 -0.0109 -0.2000 -0.3425
14071TIP3    H263705   3.768   0.725  15.301 -0.2763 -0.3526  0.2643
14072TIP3   OH263706   2.489   0.063   0.510 -0.0650  0.0556 -0.0484
14072TIP3    H163707   2.437   0.042   0.587 -2.0398 -0.6633 -1.5046
14072TIP3    H263708   2.579   0.044   0.536 -0.7015 -0.3996  1.9857
14073TIP3   OH263709   1.165   4.738   1.488  0.2395 -0.8200 -0.3817
14073TIP3    H163710   1.207   4.823   1.484 -0.1270 -0.6892 -2.9084
14073TIP3    H263711   1.236   4.676   1.501  0.4927 -0.1799  1.6514
14074TIP3   OH263712   3.195   1.175  13.146 -0.1175 -0.1674 -0.7195
14074TIP3    H163713   3.196   1.185  13.051 -1.1207 -1.8036 -0.9494
14074TIP3    H263714   3.192   1.080  13.160  0.9782  0.0000  0.9760
14075TIP3   OH263715   3.496   2.469   5.749 -0.5556 -0.6151  0.1928
14075TIP3    H163716   3.591   2.478   5.754 -0.4686 -0.9440 -0.6899
14075TIP3    H263717   3.477   2.386   5.792 -0.3495 -0.9702 -0.3939
14076TIP3   OH263718   1.543   6.336  12.109 -0.0923  0.2990  0.2310
14076TIP3    H163719   1.505   6.303  12.190 -1.2831  1.1068  0.0236
14076TIP3    H263720   1.637   6.320  12.118 -0.4914 -2.2711  0.5187
14077TIP3   OH263721   5.397   0.284  13.944  0.6013 -0.6749  0.0877
14077TIP3    H163722   5.433   0.240  14.022 -1.7165  0.7165  2.0948
14077TIP3    H263723   5.324   0.229  13.917 -0.7279  0.5158  1.0708
14078TIP3   OH263724   3.891   1.394  11.795 -0.6449  0.5314 -0.4585
14078TIP3    H163725   3.918   1.482  11.770  0.1511  0.6137  0.6433
14078TIP3    H263726   3.871   1.400  11.888 -0.9170 -0.3764 -0.4476
14079TIP3   OH263727   6.369   2.432  17.064  0.3002 -0.4255 -0.0101
14079TIP3    H163728   6.390   2.447  17.157  1.2767 -0.4449 -0.2145
14079TIP3    H263729   6.411   2.349  17.043  1.7905  0.5161 -0.9634
14080TIP3   OH263730   3.026   6.377  16.043  0.1635 -0.5730 -0.3879
14080TIP3    H163731   2.985   6.360  15.959 -0.9919 -0.1712  0.0631
14080TIP3    H263732   2.970   6.332  16.107  1.0123 -0.8695  0.1728
14081TIP3   OH263733   0.903   4.520  17.176  0.1684 -0.1719 -0.1875
14081TIP3    H163734   0.827   4.543  17.122 -0.2381  0.5857  0.6879
14081TIP3    H263735   0.973   4.506  17.113 -0.7999 -1.3645 -1.0564
14082TIP3   OH263736   6.455   1.131   2.988  0.7154 -0.4997 -0.1760
14082TIP3    H163737   6.370   1.152   3.026  0.0071 -0.0166 -1.9223
14082TIP3    H263738   6.502   1.084   3.057 -1.2919 -1.5679  0.5300
14083TIP3   OH263739   1.468   5.436   4.952 -0.0427  0.4528 -0.6874
14083TIP3    H163740   1.416   5.475   5.022 -0.4706  0.5617 -1.0618
14083TIP3    H263741   1.541   5.394   4.997 -0.5822  0.0936 -0.1400
14084TIP3   OH263742   4.060   0.996  14.653  0.1612  0.2546 -0.1148
14084TIP3    H163743   4.023   1.069  14.604  0.0663  0.1210 -0.2430
14084TIP3    H263744   4.149   0.987  14.620 -0.1242 -0.2810 -0.7656
14085TIP3   OH263745   1.608   6.816  12.626 -0.1469  0.8212  0.2168
14085TIP3    H163746   1.677   6.881  12.639  1.4106 -0.8574  0.5892
14085TIP3    H263747   1.650   6.745  12.577 -1.8263  0.1119 -0.2700
14086TIP3   OH263748   0.747   1.013   5.988  0.0007 -0.3180 -0.1090
14086TIP3    H163749   0.734   0.994   5.895 -2.0839  0.0910  0.0602
14086TIP3    H263750   0.692   0.949   6.033 -1.0894  1.1758  0.7349
14087TIP3   OH263751   2.264   1.148  10.663 -0.6014  0.1046 -0.0933
14087TIP3    H163752   2.325   1.164  10.591  0.3586  2.4496  1.1518
14087TIP3    H263753   2.190   1.206  10.645 -1.2065 -0.6518 -0.1086
14088TIP3   OH263754   1.790   1.523  14.705 -0.1773 -0.0514 -0.3236
14088TIP3    H163755   1.829   1.526  14.618  0.6481 -1.1252 -0.0128
14088TIP3    H263756   1.864   1.509  14.764 -0.6588  1.1408  0.6217
14089TIP3   OH263757   4.883   3.867  14.471  0.4641  0.2603 -0.7848
14089TIP3    H163758   4.845   3.846  14.557 -1.8496  1.8609 -1.3250
14089TIP3    H263759   4.949   3.934  14.489 -1.6906  2.4166 -0.3834
14090TIP3   OH263760   5.835   3.163   4.004 -0.3236 -0.6127  0.0649
14090TIP3    H163761   5.779   3.232   4.040  0.3101 -0.6659  1.1961
14090TIP3    H263762   5.810   3.085   4.052  0.0757 -0.8334 -0.0834
14091TIP3   OH263763   4.101   0.261   6.507  0.0320  0.3750 -0.4299
14091TIP3    H163764   4.050   0.335   6.542  0.4505  0.2367  0.5156
14091TIP3    H263765   4.083   0.189   6.568 -1.4972 -0.7646 -2.1125
14092TIP3   OH263766   3.590   6.062  13.454 -0.0505  0.4494  0.1782
14092TIP3    H163767   3.601   6.031  13.544  0.9776  1.2710  0.3507
14092TIP3    H263768   3.498   6.044  13.434 -0.0141 -0.7718  0.9933
14093TIP3   OH263769   0.529   2.627  16.871 -0.1217 -0.3346  0.2633
14093TIP3    H163770   0.567   2.622  16.959  2.0023  3.6721 -0.2060
14093TIP3    H263771   0.587   2.573  16.817  1.3751  0.8143  0.6408
14094TIP3   OH263772   4.482   0.292  14.156 -0.2820  0.0434 -0.1711
14094TIP3    H163773   4.463   0.201  14.132 -0.5005  0.1690 -0.4723
14094TIP3    H263774   4.547   0.321  14.092 -1.0769  0.4692 -0.8053
14095TIP3   OH263775   1.346   6.185  10.997  0.6291 -0.0573  0.0374
14095TIP3    H163776   1.303   6.253  11.048 -0.3128  0.0791 -0.9179
14095TIP3    H263777   1.411   6.148  11.057  0.2096  0.7428  1.0113
14096TIP3   OH263778   1.281   0.215   3.681  0.1544 -0.1389 -0.1330
14096TIP3    H163779   1.356   0.204   3.623  2.9326 -1.2265  3.3293
14096TIP3    H263780   1.300   0.295   3.730 -1.0596 -0.3034  0.6458
14097TIP3   OH263781   5.618   5.603  10.907  0.3796 -0.3604  0.2852
14097TIP3    H163782   5.688   5.568  10.961 -1.1671 -0.8374  2.0840
14097TIP3    H263783   5.663   5.645  10.833  2.4848 -1.3361  0.9419
14098TIP3   OH263784   5.122   3.760   1.909 -0.2864  0.4622 -0.0912
14098TIP3    H163785   5.184   3.826   1.939  0.0183  0.7045 -1.1906
14098TIP3    H263786   5.158   3.729   1.826 -1.5331  0.4738 -0.6664
14099TIP3   OH263787   4.702   1.469  11.374 -0.1113  0.1973 -0.0619
14099TIP3    H163788   4.708   1.405  11.445  1.6186 -0.6182 -0.8759
14099TIP3    H263789   4.608   1.488  11.366 -0.4309 -0.4608  1.7335
14100TIP3   OH263790   6.757   6.194  13.012  0.7132 -0.5288  0.0559
14100TIP3    H163791   6.749   6.099  13.018 -0.2480 -0.7347 -2.7000
14100TIP3    H263792   6.678   6.221  12.964  1.6460  1.4753 -0.4468
14101TIP3   OH263793   1.334   5.875  11.157  0.1609 -0.0129 -0.2045
14101TIP3    H163794   1.290   5.944  11.206  2.7568  0.7008  1.3639
14101TIP3    H263795   1.280   5.797  11.170 -2.9844  1.6441 -2.2375
14102TIP3   OH263796   4.562   2.274   1.163 -0.2430  0.2837 -0.0571
14102TIP3    H163797   4.575   2.368   1.149  0.7991  0.3870  1.4156
14102TIP3    H263798   4.649   2.240   1.183 -0.6824 -0.9287 -0.1276
14103TIP3   OH263799   1.611   0.253  14.088  1.1608  0.1580  0.0732
14103TIP3    H163800   1.612   0.312  14.013  3.4224  1.1536  0.8036
14103TIP3    H263801   1.570   0.303  14.158 -1.2574 -0.8881 -0.5105
14104TIP3   OH263802   4.934   5.533   1.361 -0.0322  0.3345  0.1106
14104TIP3    H163803   4.971   5.510   1.276 -1.4071 -0.6276 -0.2493
14104TIP3    H263804   4.889   5.454   1.390 -0.7039  1.0640  1.1332
14105TIP3   OH263805   1.365   1.602  12.219  0.0138 -0.4767  0.0762
14105TIP3    H163806   1.381   1.555  12.301  0.6522 -1.5328 -0.6169
14105TIP3    H263807   1.353   1.693  12.245  2.4096 -0.3860  1.1847
14106TIP3   OH263808   6.726   5.853   3.011  0.1497 -0.0068  0.0165
14106TIP3    H163809   6.802   5.905   2.987 -0.1389  0.5906  0.3858
14106TIP3    H263810   6.658   5.917   3.034 -0.3863 -0.5306 -0.0638
14107TIP3   OH263811   5.927   3.206  14.348 -0.4564 -0.2740 -0.1622
14107TIP3    H163812   5.935   3.232  14.256  0.1591  0.1859  0.0148
14107TIP3    H263813   6.016   3.208  14.382 -0.6059 -1.0115  0.3003
14108TIP3   OH263814   4.274   2.160  11.472 -0.3120  0.2728  0.1584
14108TIP3    H163815   4.268   2.136  11.379  0.3030  2.5484 -0.5325
14108TIP3    H263816   4.324   2.088  11.511 -1.8445 -1.4913 -0.9154
14109TIP3   OH263817   3.892   3.653   5.839 -0.2935 -0.4097 -0.0565
14109TIP3    H163818   3.798   3.660   5.820 -0.8875 -0.3026  2.5363
14109TIP3    H263819   3.917   3.740   5.870  0.0569 -1.0147  1.4805
14110TIP3   OH263820   2.433   6.688   4.721  0.3072  0.2380  0.1104
14110TIP3    H163821   2.342   6.717   4.717  0.1799  0.0939 -5.1901
14110TIP3    H263822   2.428   6.593   4.732 -0.3682  0.0244 -1.7372
14111TIP3   OH263823   1.537   2.447   4.734  0.1002  0.2152 -0.2269
14111TIP3    H163824   1.487   2.384   4.787 -0.4413  0.9224  0.1113
14111TIP3    H263825   1.512   2.427   4.644 -1.0980  0.8001 -0.0430
14112TIP3   OH263826   3.106   5.503   6.773 -0.1786 -0.0618 -0.3605
14112TIP3    H163827   3.186   5.550   6.794  0.1531 -0.9970  0.5597
14112TIP3    H263828   3.047   5.570   6.740  1.2129  0.5329 -1.7594
14113TIP3   OH263829   5.831   4.387  13.299 -0.0126 -0.0335  0.2096
14113TIP3    H163830   5.874   4.339  13.228 -1.1585 -2.4069  1.0472
14113TIP3    H263831   5.888   4.373  13.375 -0.8170 -0.8547  0.6707
14114TIP3   OH263832   3.160   5.156  13.244  0.3572  0.3512 -0.0249
14114TIP3    H163833   3.203   5.087  13.295 -1.2414 -1.1870 -0.6493
14114TIP3    H263834   3.076   5.168  13.287 -1.2974 -1.4230 -2.4964
14115TIP3   OH263835   5.950   6.305  15.732 -0.3660 -0.0520 -0.0399
14115TIP3    H163836   6.009   6.365  15.687 -0.7987  0.9766  0.7286
14115TIP3    H263837   5.962   6.221  15.687 -0.1223  0.7141 -1.4587
14116TIP3   OH263838   6.727   2.454   6.051  0.3134 -0.4280 -0.0192
14116TIP3    H163839   6.735   2.546   6.023 -0.1062 -0.4603 -0.2492
14116TIP3    H263840   6.654   2.420   6.000 -0.3070 -0.5619  0.9451
14117TIP3   OH263841   2.819   0.718  11.771  0.4467 -0.0125 -0.1268
14117TIP3    H163842   2.757   0.744  11.839  1.3242  0.3530  0.5491
14117TIP3    H263843   2.905   0.722  11.813  1.0834  0.8697 -1.4204
14118TIP3   OH263844   3.373   1.810  13.216 -0.6036 -0.1525  0.1997
14118TIP3    H163845   3.371   1.715  13.226  1.3793 -0.2573  0.1061
14118TIP3    H263846   3.354   1.843  13.304  0.3411 -0.7127  0.6435
14119TIP3   OH263847   4.264   1.793   4.399 -0.2772 -0.2427  0.9854
14119TIP3    H163848   4.278   1.838   4.482 -0.8824  2.1345 -0.0795
14119TIP3    H263849   4.332   1.727   4.395  1.9843  1.8677  1.9045
14120TIP3   OH263850   1.360   2.339   3.539 -0.0636 -0.0800 -0.2363
14120TIP3    H163851   1.416   2.274   3.496  1.1374  0.0846  1.0153
14120TIP3    H263852   1.278   2.336   3.490  0.0610 -2.3248 -0.4037
14121TIP3   OH263853   4.851   5.923  12.661  0.0460  0.4045 -0.6346
14121TIP3    H163854   4.930   5.977  12.655  0.4301 -0.2302 -1.5677
14121TIP3    H263855   4.803   5.942  12.580 -0.7665  0.7716 -0.0837
14122TIP3   OH263856   1.985   0.414  14.540  0.6437  0.3862 -0.3091
14122TIP3    H163857   2.043   0.391  14.467  1.4069  0.8998  0.1221
14122TIP3    H263858   1.897   0.410  14.502  0.7467 -2.4633 -0.4484
14123TIP3   OH263859   5.176   4.685  12.708  0.3167  0.5509 -0.3753
14123TIP3    H163860   5.167   4.598  12.670  0.7817  0.6746 -0.7783
14123TIP3    H263861   5.215   4.670  12.794 -1.3074  0.2221  0.3388
14124TIP3   OH263862   2.493   3.409  16.156  0.2489  0.3358 -0.0507
14124TIP3    H163863   2.563   3.395  16.092  0.2862 -0.4770  0.1589
14124TIP3    H263864   2.533   3.462  16.225  0.6166  0.0074 -0.0098
14125TIP3   OH263865   1.772   2.899   4.220  0.0864  0.3284 -0.4107
14125TIP3    H163866   1.728   2.868   4.141  0.0557 -0.8860  0.0745
14125TIP3    H263867   1.702   2.932   4.276 -0.0290  0.0074 -0.3636
14126TIP3   OH263868   6.730   4.843  12.633 -0.1087 -0.1939  0.0865
14126TIP3    H163869   6.636   4.857  12.618 -0.1381 -1.4967 -1.1891
14126TIP3    H263870   6.736   4.753  12.663  0.7215 -0.0438  0.3980
14127TIP3   OH263871   0.179   6.274  11.556 -0.4423  0.5064  0.1759
14127TIP3    H163872   0.208   6.212  11.489 -1.0932  0.0696  0.2765
14127TIP3    H263873   0.101   6.316  11.518 -1.5972 -0.6746  1.1169
14128TIP3   OH263874   1.882   1.227   1.234  0.3325 -0.3815  0.2124
14128TIP3    H163875   1.804   1.173   1.249  2.2853 -3.1904  1.1114
14128TIP3    H263876   1.903   1.212   1.142 -0.1044  0.3095 -0.0076
14129TIP3   OH263877   2.681   5.170   2.315 -0.2552  0.0684 -0.2496
14129TIP3    H163878   2.647   5.158   2.227  0.5277 -0.8352 -0.4423
14129TIP3    H263879   2.770   5.202   2.303 -0.5227  1.0440  0.2379
14130TIP3   OH263880   0.149   6.087   3.751 -0.8263  0.2351  0.5316
14130TIP3    H163881   0.193   6.172   3.748 -0.2743  0.0162  1.9965
14130TIP3    H263882   0.218   6.025   3.772 -1.5907 -0.2952  1.5516
14131TIP3   OH263883   6.676   1.154  12.742  0.5186  0.0800  0.0488
14131TIP3    H163884   6.733   1.215  12.694  0.4591 -0.4468 -0.7128
14131TIP3    H263885   6.599   1.144  12.686 -0.3056  0.7322  1.0442
14132TIP3   OH263886   6.588   1.983  16.755  0.2182 -0.6144  0.4509
14132TIP3    H163887   6.527   1.961  16.685 -0.8253 -0.3788  1.2674
14132TIP3    H263888   6.580   2.078  16.764  2.8895 -0.1082 -1.4079
14133TIP3   OH263889   5.253   6.049  15.974 -0.4188  0.0945 -0.5071
14133TIP3    H163890   5.278   6.002  16.054 -1.3653  1.8467  0.8830
14133TIP3    H263891   5.319   6.116  15.963 -0.5562  0.1647 -0.9415
14134TIP3   OH263892   0.346   0.242   0.925 -0.1739  0.1975  0.1526
14134TIP3    H163893   0.281   0.262   0.992  0.8764  0.3477  1.1710
14134TIP3    H263894   0.355   0.147   0.927  1.8806  0.3525  2.2887
14135TIP3   OH263895   4.344   4.903  14.329 -0.3461  0.6550 -0.1183
14135TIP3    H163896   4.427   4.948  14.316 -0.5655  1.2824  0.5745
14135TIP3    H263897   4.343   4.834  14.263  0.9730  0.2865  0.2239
14136TIP3   OH263898   2.018   0.406   3.315  0.6870 -0.3250 -0.1852
14136TIP3    H163899   2.056   0.457   3.243 -1.5419 -0.8290 -1.8322
14136TIP3    H263900   1.968   0.470   3.366  2.5110  0.0877  1.1646
14137TIP3   OH263901   4.423   0.788   5.146 -0.0867 -0.0657  0.3236
14137TIP3    H163902   4.370   0.743   5.080 -3.3596  1.6175  1.6011
14137TIP3    H263903   4.496   0.728   5.163 -1.4546 -2.4890 -1.6672
14138TIP3   OH263904   3.081   0.398  15.868 -0.1406 -0.1544 -0.5996
14138TIP3    H163905   3.139   0.472  15.884  0.7726 -0.8859 -0.4364
14138TIP3    H263906   3.129   0.343  15.805 -1.0563 -0.3190 -1.1746
14139TIP3   OH263907   5.090   2.433  12.933 -0.4482 -0.4279 -0.4490
14139TIP3    H163908   5.150   2.506  12.916  1.2431 -1.4127  0.9627
14139TIP3    H263909   5.005   2.474  12.945  0.2234  1.1754 -0.9417
14140TIP3   OH263910   5.334   6.575  13.582 -0.6481  0.1409  0.3473
14140TIP3    H163911   5.330   6.492  13.630  2.1129  1.4601  3.2832
14140TIP3    H263912   5.420   6.574  13.540 -1.3331  0.8138 -1.1459
14141TIP3   OH263913   2.493   3.308   0.863 -0.0020  0.1234  0.0499
14141TIP3    H163914   2.455   3.342   0.944 -0.3890  1.7079 -0.7502
14141TIP3    H263915   2.417   3.289   0.808  0.2713 -0.5038 -0.1155
14142TIP3   OH263916   1.041   3.409  12.998 -0.6962 -0.1785 -0.3257
14142TIP3    H163917   0.999   3.325  13.020 -0.9379  0.1694  0.5811
14142TIP3    H263918   1.020   3.466  13.071  0.8825  0.1903 -0.1312
14143TIP3   OH263919   2.592   3.589  12.044  0.7110  0.3441 -0.3177
14143TIP3    H163920   2.607   3.496  12.022  2.4469  0.8382 -1.4391
14143TIP3    H263921   2.518   3.615  11.989  0.6750 -0.1943 -0.5299
14144TIP3   OH263922   1.437   3.149  12.150 -0.0747  0.1906  0.0436
14144TIP3    H163923   1.487   3.075  12.118  0.2257 -0.4539  1.8945
14144TIP3    H263924   1.503   3.217  12.166 -0.0122 -0.0160  0.7010
14145TIP3   OH263925   3.286   1.020   0.574 -0.2337 -0.1058 -0.1748
14145TIP3    H163926   3.207   0.977   0.607  0.3001 -2.4448 -1.7228
14145TIP3    H263927   3.278   1.014   0.479  0.4127  2.3477 -0.4410
14146TIP3   OH263928   2.715   1.016   5.978  0.0265  0.5229 -0.1791
14146TIP3    H163929   2.792   1.050   6.024  0.4788 -0.6098 -0.0562
14146TIP3    H263930   2.652   1.088   5.980  0.8776  1.2808  0.2098
14147TIP3   OH263931   0.158   3.405   0.428  0.7485 -0.1107  0.0107
14147TIP3    H163932   0.106   3.338   0.473  4.4701 -2.8832  0.7226
14147TIP3    H263933   0.149   3.384   0.335 -2.7582  2.3456 -0.4062
14148TIP3   OH263934   0.133   4.763   4.736  0.3749 -0.1048  0.7739
14148TIP3    H163935   0.212   4.713   4.754  1.7407  1.6190 -0.1155
14148TIP3    H263936   0.089   4.770   4.820  1.8207 -0.0279  1.5528
14149TIP3   OH263937   3.458   6.608   5.123 -0.2107 -0.1130  0.1617
14149TIP3    H163938   3.443   6.684   5.179 -1.8365 -0.2052 -0.1015
14149TIP3    H263939   3.536   6.566   5.159  0.3689  1.3505  0.6587
14150TIP3   OH263940   6.768   6.198   1.571  0.0176 -0.1863 -0.1891
14150TIP3    H163941   6.681   6.164   1.550 -0.8926  1.5063  0.6132
14150TIP3    H263942   6.752   6.287   1.601  2.0809  0.2675 -0.2913
14151TIP3   OH263943   2.150   0.981  14.199 -0.2363 -0.1769 -0.6855
14151TIP3    H163944   2.207   0.982  14.123 -0.2113  0.8210 -0.6714
14151TIP3    H263945   2.096   0.903  14.188 -0.4736  0.1328 -1.9153
14152TIP3   OH263946   6.398   1.347   2.443  0.0032 -0.2506 -0.2374
14152TIP3    H163947   6.448   1.272   2.412  0.6718 -0.1441  0.5553
14152TIP3    H263948   6.358   1.317   2.525 -2.5578 -0.8715 -1.5863
14153TIP3   OH263949   4.254   3.448   4.244  0.2194  0.2984  0.3117
14153TIP3    H163950   4.180   3.390   4.260  0.0356  0.0799 -1.1695
14153TIP3    H263951   4.325   3.389   4.217  0.6730  0.5771  0.8844
14154TIP3   OH263952   5.621   5.025  11.312 -0.2995 -0.3776  0.2388
14154TIP3    H163953   5.557   4.956  11.297 -0.7493  0.5089 -2.3221
14154TIP3    H263954   5.690   5.010  11.247  0.0280  1.0677  0.2054
14155TIP3   OH263955   2.118   4.389   0.385  0.5042 -0.1694 -0.1000
14155TIP3    H163956   2.157   4.476   0.396 -2.1516  0.9912  0.9455
14155TIP3    H263957   2.098   4.382   0.292  0.1269  0.6248 -0.0789
14156TIP3   OH263958   2.942   5.355  16.150  0.0026  0.2726  0.4352
14156TIP3    H163959   3.032   5.342  16.120 -0.2626  0.8494 -0.6467
14156TIP3    H263960   2.947   5.432  16.207 -0.0112  1.1715 -0.7304
14157TIP3   OH263961   0.899   2.043   2.190 -0.1741  0.2108  0.3811
14157TIP3    H163962   0.921   2.051   2.097  1.7754  2.7225  0.9192
14157TIP3    H263963   0.955   1.971   2.221 -1.3901 -1.1573 -0.4686
14158TIP3   OH263964   2.244   6.556  13.396  0.1900 -0.3500  0.4222
14158TIP3    H163965   2.240   6.629  13.459  1.9215 -1.0366  1.3889
14158TIP3    H263966   2.162   6.562  13.348 -0.1816  1.6051  1.1911
14159TIP3   OH263967   2.765   2.904  16.225 -0.0450 -0.2331 -0.5873
14159TIP3    H163968   2.781   2.820  16.267 -1.9513 -1.2605 -1.7939
14159TIP3    H263969   2.772   2.886  16.131  1.1520  1.3466 -0.8536
14160TIP3   OH263970   3.516   1.821  13.916  0.0416 -0.0685 -0.0029
14160TIP3    H163971   3.547   1.767  13.844 -0.8210  0.9073 -1.1465
14160TIP3    H263972   3.546   1.775  13.995 -0.7341 -2.2398 -0.8946
14161TIP3   OH263973   1.046   4.277  15.095 -0.5342 -0.2776 -0.6220
14161TIP3    H163974   0.978   4.292  15.160 -0.3057 -1.0499 -0.1951
14161TIP3    H263975   1.004   4.298  15.011 -1.3396 -0.8640 -0.3793
14162TIP3   OH263976   4.408   5.194  11.571  0.2862  0.1611 -0.4582
14162TIP3    H163977   4.441   5.278  11.539  1.5252 -0.1397 -0.0006
14162TIP3    H263978   4.380   5.147  11.492  1.8994  0.0257 -0.9800
14163TIP3   OH263979   4.842   1.985  13.844 -0.2730  0.9974  0.0836
14163TIP3    H163980   4.775   2.044  13.810  0.5809  1.4970 -0.7664
14163TIP3    H263981   4.849   2.007  13.937 -3.1698 -0.8863  0.9146
14164TIP3   OH263982   1.577   2.017  10.395  0.4803 -0.8527  0.3822
14164TIP3    H163983   1.602   2.100  10.437 -0.7806 -0.2813  0.0698
14164TIP3    H263984   1.521   1.974  10.460  0.0723 -0.8405  0.0450
14165TIP3   OH263985   4.279   2.954   1.200 -0.3159  0.1088  0.3722
14165TIP3    H163986   4.197   2.922   1.162 -0.0510  2.6320 -2.7568
14165TIP3    H263987   4.343   2.885   1.181 -0.8192  0.0781 -1.4810
14166TIP3   OH263988   3.490   0.717  11.491 -0.1825  0.2783  0.0655
14166TIP3    H163989   3.575   0.677  11.474  0.8367  2.6398 -0.8322
14166TIP3    H263990   3.461   0.748  11.406 -0.8139  1.6008  0.7364
14167TIP3   OH263991   5.707   3.642   3.991  0.5735 -0.1967 -1.0567
14167TIP3    H163992   5.707   3.554   4.031  0.4846 -0.0006 -0.6171
14167TIP3    H263993   5.615   3.658   3.969  0.8250 -0.9503 -2.8109
14168TIP3   OH263994   2.485   0.843  13.131 -0.1436  0.3431 -0.2363
14168TIP3    H163995   2.535   0.891  13.066 -0.2796 -0.4548 -0.9418
14168TIP3    H263996   2.457   0.763  13.087  0.1757 -0.4485  0.9464
14169TIP3   OH263997   2.194   5.945   5.445  0.1963 -0.1488  0.1726
14169TIP3    H163998   2.240   5.928   5.363  0.5841  1.9792 -0.1144
14169TIP3    H263999   2.260   5.933   5.513  0.0943 -1.0918  0.1085
14170TIP3   OH264000   0.213   0.957  10.234 -0.1799  0.1870 -0.2331
14170TIP3    H164001   0.267   0.961  10.313 -1.0087 -2.1524  0.5551
14170TIP3    H264002   0.270   0.916  10.168 -0.3522 -0.5147  0.0379
14171TIP3   OH264003   3.506   3.289   5.190  0.4650 -0.0645  0.3227
14171TIP3    H164004   3.581   3.252   5.237  1.7552 -1.4205 -2.6011
14171TIP3    H264005   3.439   3.220   5.195  0.6924 -0.3138 -0.0212
14172TIP3   OH264006   1.474   1.376  10.646 -0.3229 -0.2703 -0.4247
14172TIP3    H164007   1.512   1.345  10.565  1.8910  0.1891  0.3717
14172TIP3    H264008   1.494   1.470  10.648 -1.1645 -0.0832  0.2385
14173TIP3   OH264009   1.232   4.782  11.597  1.1210  0.3942 -0.1801
14173TIP3    H164010   1.261   4.691  11.588  0.7505  0.3668 -1.2386
14173TIP3    H264011   1.139   4.780  11.572  0.4179  0.6555  2.1581
14174TIP3   OH264012   3.866   4.617   5.083  0.5555 -0.1682 -0.0362
14174TIP3    H164013   3.855   4.548   5.148  0.9439  0.0874  0.3101
14174TIP3    H264014   3.778   4.634   5.051  0.4079 -0.5485  0.1634
14175TIP3   OH264015   0.481   3.797  13.811 -0.5103 -0.4837 -0.2998
14175TIP3    H164016   0.430   3.875  13.789  0.1022 -0.0273 -0.1170
14175TIP3    H264017   0.572   3.822  13.798 -0.3498 -1.5892 -1.5291
14176TIP3   OH264018   2.738   1.997  11.271 -0.2103  0.6248 -0.6170
14176TIP3    H164019   2.757   1.922  11.215 -1.1385  1.0116 -1.4797
14176TIP3    H264020   2.642   2.003  11.272 -0.1869  1.0382  0.4623
14177TIP3   OH264021   0.367   3.007   6.171 -0.1417 -0.0097  0.1603
14177TIP3    H164022   0.302   2.944   6.203  0.5545 -0.6748  0.2935
14177TIP3    H264023   0.369   3.075   6.239  1.7578 -1.7060  1.9831
14178TIP3   OH264024   3.144   4.960   0.088  0.0946 -0.4290  0.3985
14178TIP3    H164025   3.236   4.934   0.079 -0.0693 -0.8453 -0.1083
14178TIP3    H264026   3.101   4.883   0.127  0.4153  0.6312  3.0526
14179TIP3   OH264027   0.481   5.951  13.092  0.0434  0.8954  0.0490
14179TIP3    H164028   0.543   5.985  13.028 -1.1825  1.0213 -1.1219
14179TIP3    H264029   0.503   5.858  13.100 -0.0602  0.7771 -0.9089
14180TIP3   OH264030   3.342   1.803   2.044  0.2287 -0.3972  0.8990
14180TIP3    H164031   3.387   1.879   2.079  1.0656 -0.6402  0.3654
14180TIP3    H264032   3.409   1.735   2.039 -0.2976 -0.9038  0.5306
14181TIP3   OH264033   1.102   5.357  14.591  0.3014  0.2138 -0.0037
14181TIP3    H164034   1.165   5.428  14.581 -0.1849  0.5657 -0.6439
14181TIP3    H264035   1.083   5.329  14.502 -1.7001  1.2248  0.0595
14182TIP3   OH264036   6.116   1.511   1.299  0.4285  0.0998  0.6030
14182TIP3    H164037   6.036   1.459   1.290  0.2249  0.3428  0.9603
14182TIP3    H264038   6.186   1.447   1.311  0.1770 -0.0921  1.0584
14183TIP3   OH264039   2.702   4.828  11.824  0.3224  0.4141 -0.3677
14183TIP3    H164040   2.777   4.816  11.883 -1.1594  1.4289  1.8690
14183TIP3    H264041   2.658   4.743  11.824 -1.0069  0.9969  2.0923
14184TIP3   OH264042   6.060   4.537   3.349 -0.0232 -0.1343  0.3761
14184TIP3    H164043   6.152   4.532   3.375  0.5265 -1.4141 -1.5887
14184TIP3    H264044   6.024   4.610   3.401  2.4694  1.4308  0.0647
14185TIP3   OH264045   3.054   6.189  13.966  0.0848 -0.6313 -0.0776
14185TIP3    H164046   2.971   6.184  13.919 -0.4097  0.4513  0.6495
14185TIP3    H264047   3.029   6.198  14.058  1.0064 -0.2515  0.1456
14186TIP3   OH264048   0.749   2.632  14.988  0.1462  0.2904  0.0577
14186TIP3    H164049   0.664   2.650  14.948  0.1743  2.2246  0.7883
14186TIP3    H264050   0.812   2.673  14.929  0.3525  1.1957  0.8898
14187TIP3   OH264051   6.035   4.613  14.938  0.1317  0.0121 -0.5927
14187TIP3    H164052   5.995   4.614  14.852 -0.6905  0.1932 -0.2157
14187TIP3    H264053   6.089   4.533  14.938 -1.1119 -0.8509 -0.7196
14188TIP3   OH264054   2.817   3.913   4.760  0.4126 -0.2889  0.1250
14188TIP3    H164055   2.749   3.981   4.762  1.5090  0.8201  1.4285
14188TIP3    H264056   2.893   3.953   4.802  0.9864 -2.4385  1.3181
14189TIP3   OH264057   1.711   4.778  13.343  0.1790 -0.2359 -0.2734
14189TIP3    H164058   1.695   4.828  13.262 -1.0028 -1.0821 -0.5928
14189TIP3    H264059   1.783   4.719  13.321  1.6464  1.3144  0.1301
14190TIP3   OH264060   6.167   3.118  15.629 -0.1475  0.3225  0.0690
14190TIP3    H164061   6.170   3.157  15.717 -1.5644  1.0458 -0.1699
14190TIP3    H264062   6.089   3.063  15.631  0.5604 -0.7208 -0.3365
14191TIP3   OH264063   5.668   4.636  13.216 -0.7291  0.6880 -0.1281
14191TIP3    H164064   5.733   4.566  13.224 -0.8684  0.4025 -1.2324
14191TIP3    H264065   5.674   4.685  13.298 -1.9431 -1.7420  1.5493
14192TIP3   OH264066   2.535   0.893   2.126  0.1132 -0.1824 -0.9348
14192TIP3    H164067   2.622   0.864   2.101  0.2286 -1.0942  0.4212
14192TIP3    H264068   2.518   0.849   2.209 -1.0666  1.0832 -0.4668
14193TIP3   OH264069   1.530   5.815  11.958  0.0397  0.2446 -0.3522
14193TIP3    H164070   1.551   5.888  11.899 -0.3866 -0.2346 -1.1052
14193TIP3    H264071   1.565   5.843  12.043 -2.1964  2.3998 -0.0268
14194TIP3   OH264072   2.590   6.700  12.371  0.2103  0.2424 -0.8595
14194TIP3    H164073   2.595   6.637  12.299  2.5773 -1.3230  0.5470
14194TIP3    H264074   2.668   6.755  12.361  0.7643 -0.2150  0.6633
14195TIP3   OH264075   1.466   2.307   5.237  0.1391 -0.0299  0.4834
14195TIP3    H164076   1.438   2.392   5.203  1.1184 -0.5356 -1.7705
14195TIP3    H264077   1.524   2.273   5.170 -2.1283 -3.5981  0.0748
14196TIP3   OH264078   4.967   2.338  15.474  0.7327 -0.0024  1.2155
14196TIP3    H164079   4.948   2.310  15.384  0.2760  0.7446  1.0683
14196TIP3    H264080   4.900   2.296  15.527  0.4482  0.2809  1.0841
14197TIP3   OH264081   2.078   3.968   4.734  0.0309  0.2621 -0.2507
14197TIP3    H164082   2.033   4.022   4.798 -0.6631  0.5594 -0.9686
14197TIP3    H264083   2.057   3.878   4.759  0.3977  0.3476  0.3803
14198TIP3   OH264084   6.006   5.234  16.365  0.3944 -0.2894 -0.3096
14198TIP3    H164085   6.061   5.156  16.371  0.6876 -0.1777 -1.4369
14198TIP3    H264086   6.067   5.305  16.343 -0.0006  0.0939 -0.1855
14199TIP3   OH264087   1.167   2.803  16.513 -0.2575  0.1160 -0.1217
14199TIP3    H164088   1.147   2.725  16.461 -2.9833 -0.3801  1.5089
14199TIP3    H264089   1.252   2.785  16.553 -0.1045 -1.2961 -1.0439
14200TIP3   OH264090   0.313   0.014  12.730 -0.3837 -0.0065  0.2432
14200TIP3    H164091   0.366  -0.065  12.715 -0.3692 -0.4307  2.2188
14200TIP3    H264092   0.375   0.086  12.717  0.0437 -0.3956  0.0681
14201TIP3   OH264093   1.279   5.186   6.294 -0.2645 -0.7349  0.1356
14201TIP3    H164094   1.190   5.212   6.319  0.4742 -0.4649  2.8363
14201TIP3    H264095   1.329   5.191   6.376  1.9410 -2.1877 -1.0211
14202TIP3   OH264096   6.280   6.208   2.090 -0.1500 -0.2378 -0.1382
14202TIP3    H164097   6.241   6.295   2.098  0.2354 -0.1680  1.0921
14202TIP3    H264098   6.240   6.171   2.011  0.3093  1.3671 -1.1756
14203TIP3   OH264099   0.476   6.679   2.483  0.6716 -0.1363 -0.3994
14203TIP3    H164100   0.396   6.701   2.530  1.1339  0.6240  0.0566
14203TIP3    H264101   0.525   6.623   2.544  0.2494 -1.0592 -0.8946
14204TIP3   OH264102   3.612   2.389  14.422 -0.6756  0.2077  0.1298
14204TIP3    H164103   3.591   2.451  14.493  1.9127  1.3452 -0.0125
14204TIP3    H264104   3.638   2.309  14.468  0.3908  0.7419  0.4957
14205TIP3   OH264105   6.679   6.491   3.861  0.0431 -0.1233 -0.3134
14205TIP3    H164106   6.603   6.452   3.903  0.3156  0.1804  0.4761
14205TIP3    H264107   6.684   6.448   3.776 -1.3971  0.3363 -0.6464
14206TIP3   OH264108   3.773   5.276   6.076 -0.0786 -0.1100 -0.1784
14206TIP3    H164109   3.702   5.268   6.012 -0.1764  0.2947 -0.1219
14206TIP3    H264110   3.797   5.186   6.097  0.3421 -0.2537 -1.2204
14207TIP3   OH264111   1.088   3.630   3.607  0.0845  0.2669  0.0549
14207TIP3    H164112   1.145   3.557   3.629 -1.2074 -1.0648 -0.8159
14207TIP3    H264113   1.070   3.619   3.514 -0.6347  1.3396  0.0501
14208TIP3   OH264114   6.796   6.263  14.577  0.4986 -0.1795  1.0611
14208TIP3    H164115   6.813   6.187  14.633  0.0709 -0.4173  0.8777
14208TIP3    H264116   6.792   6.227  14.489 -2.1325 -0.3850  1.1738
14209TIP3   OH264117   0.600   2.383  15.111  0.1324  0.0432  0.7257
14209TIP3    H164118   0.514   2.410  15.080 -0.0929 -2.4083 -1.0618
14209TIP3    H264119   0.654   2.462  15.102 -1.5472  1.2019  0.4011
14210TIP3   OH264120   3.987   2.417  13.260 -0.2805  0.2992 -0.0876
14210TIP3    H164121   3.915   2.471  13.290 -0.3322  0.6609 -0.8496
14210TIP3    H264122   4.010   2.363  13.336 -0.2477  1.3596  0.6791
14211TIP3   OH264123   4.599   2.586   4.539  0.9146  0.8172 -1.0346
14211TIP3    H164124   4.605   2.680   4.557  1.5649  0.2324  2.3141
14211TIP3    H264125   4.511   2.561   4.567  1.3530  0.1373 -0.2262
14212TIP3   OH264126   5.955   3.389  15.221  0.7566  0.0662 -0.0813
14212TIP3    H164127   5.935   3.373  15.129 -0.9743 -2.0944  0.5963
14212TIP3    H264128   6.046   3.358  15.231  0.8981  0.1580 -1.0025
14213TIP3   OH264129   2.180   2.160   2.467  0.4044  0.2689 -0.0967
14213TIP3    H164130   2.128   2.082   2.449  0.6016  0.0935  0.0974
14213TIP3    H264131   2.215   2.147   2.555  0.8289  0.3566 -0.2498
14214TIP3   OH264132   1.179   1.693   1.439 -0.0213  0.5104  0.4015
14214TIP3    H164133   1.196   1.668   1.530  0.4110 -0.4707  0.0588
14214TIP3    H264134   1.266   1.711   1.403 -0.2642  1.9848  0.4658
14215TIP3   OH264135   2.202   0.720   1.773 -0.2416  0.2581  0.2393
14215TIP3    H164136   2.220   0.636   1.815 -2.0867 -0.3510 -0.0910
14215TIP3    H264137   2.131   0.758   1.825 -2.1295 -0.2171 -1.8170
14216TIP3   OH264138   1.119   4.997  13.170 -0.0647 -0.4290  0.1299
14216TIP3    H164139   1.142   4.999  13.077  0.0691  1.4321  0.1658
14216TIP3    H264140   1.189   5.047  13.212 -0.3860 -0.8440  1.1811
14217TIP3   OH264141   3.513   0.707   0.675 -0.2093 -0.6997 -0.1858
14217TIP3    H164142   3.583   0.643   0.662  0.1956  0.1835 -2.8108
14217TIP3    H264143   3.447   0.684   0.610 -0.4158  1.0326 -0.6293
14218TIP3   OH264144   2.789   6.207   0.472  0.3052 -0.3585  0.3070
14218TIP3    H164145   2.745   6.206   0.387 -1.0381 -0.6836  0.9705
14218TIP3    H264146   2.882   6.195   0.452 -0.1135 -1.6849 -1.0478
14219TIP3   OH264147   0.070   5.634  11.413 -0.2114  0.1879  0.3266
14219TIP3    H164148   0.042   5.716  11.452 -2.5164 -0.9578  1.2894
14219TIP3    H264149  -0.011   5.588  11.391  0.9931 -1.6101 -0.6856
14220TIP3   OH264150   3.433   4.879  16.422 -0.2096  0.6180  0.3177
14220TIP3    H164151   3.350   4.835  16.406 -0.2990  1.1707 -0.8202
14220TIP3    H264152   3.454   4.857  16.513 -0.6287 -1.1120  0.0428
14221TIP3   OH264153   2.431   2.684   5.496  0.5260  0.2042  0.2604
14221TIP3    H164154   2.418   2.632   5.576 -0.9620  0.6367  0.3306
14221TIP3    H264155   2.479   2.625   5.438 -0.2462 -0.9178  0.7022
14222TIP3   OH264156   1.645   2.166  16.644 -0.0914 -0.0468 -0.5244
14222TIP3    H164157   1.734   2.153  16.614 -0.0791  0.5774 -0.7723
14222TIP3    H264158   1.649   2.245  16.699 -0.2531 -0.7430  0.5155
14223TIP3   OH264159   1.977   0.041   6.445  0.2157  0.2123 -0.9421
14223TIP3    H164160   1.970   0.134   6.463  0.0273  0.1888 -0.8922
14223TIP3    H264161   1.890   0.006   6.464  0.3409 -0.0074 -0.7626
14224TIP3   OH264162   2.058   1.308  15.578  0.0932 -0.5332 -0.4236
14224TIP3    H164163   2.077   1.232  15.524  2.4325 -0.8212  0.6525
14224TIP3    H264164   2.082   1.383  15.523  1.0974 -0.7600 -0.3212
14225TIP3   OH264165   6.423   2.971   5.643 -0.2949  0.0426  0.0902
14225TIP3    H164166   6.504   2.998   5.686  0.2556  1.3855 -1.6389
14225TIP3    H264167   6.354   3.018   5.688  0.1259  0.4829  0.2795
14226TIP3   OH264168   6.228   4.746  13.934 -0.6062 -0.6826  0.4792
14226TIP3    H164169   6.171   4.810  13.892 -2.3664 -2.2247  0.4027
14226TIP3    H264170   6.191   4.736  14.022  0.9897  0.0116  1.2562
14227TIP3   OH264171   1.086   3.181   4.878  0.3729 -0.3506  0.0246
14227TIP3    H164172   1.179   3.179   4.854  1.5171 -0.2386  3.7280
14227TIP3    H264173   1.058   3.090   4.870  1.4121 -0.7581  0.6978
14228TIP3   OH264174   1.056   4.317   3.364  0.6900 -0.0754 -0.2184
14228TIP3    H164175   0.966   4.289   3.377  1.0106 -0.8501  0.3420
14228TIP3    H264176   1.058   4.348   3.273 -0.2251  0.3135 -0.1187
14229TIP3   OH264177   2.908   6.148   4.148  0.3181 -0.0683  0.2015
14229TIP3    H164178   2.907   6.211   4.075  1.0358  1.2397  1.2941
14229TIP3    H264179   2.997   6.152   4.182  0.2200 -1.3112  0.6338
14230TIP3   OH264180   6.208   2.627   3.624 -0.1180  0.6286  0.3557
14230TIP3    H164181   6.169   2.633   3.711 -0.9190  1.7777 -0.0474
14230TIP3    H264182   6.145   2.672   3.567 -0.3206 -1.3237 -1.0648
14231TIP3   OH264183   3.616   2.456  12.001 -0.6482  0.0248 -0.3181
14231TIP3    H164184   3.548   2.503  12.049 -0.2777 -1.9564  2.3612
14231TIP3    H264185   3.682   2.522  11.982 -0.9475  0.9950  1.7153
14232TIP3   OH264186   1.887   0.707  11.083  0.3784 -0.3811 -0.0805
14232TIP3    H164187   1.956   0.765  11.115 -0.4416  1.3881 -1.3397
14232TIP3    H264188   1.828   0.765  11.033 -0.0218 -2.4319 -2.1617
14233TIP3   OH264189   0.796   3.174   1.316  0.3473  0.1624  0.3258
14233TIP3    H164190   0.726   3.190   1.253  0.9997  0.3335 -0.3702
14233TIP3    H264191   0.765   3.214   1.397  1.0844  3.4917 -0.8661
14234TIP3   OH264192   0.010   0.597   5.171  0.2853 -1.2631 -0.2435
14234TIP3    H164193  -0.012   0.505   5.185 -1.2475 -0.8911 -0.0571
14234TIP3    H264194  -0.063   0.633   5.120  1.2781 -0.3439 -1.0920
14235TIP3   OH264195   6.292   0.435   0.875 -0.0084 -0.2990 -0.3898
14235TIP3    H164196   6.265   0.356   0.921  3.1051 -1.8188 -0.9319
14235TIP3    H264197   6.309   0.406   0.785  1.5024  0.8833 -0.5189
14236TIP3   OH264198   2.915   2.684   2.939 -0.0922 -0.3818  0.3884
14236TIP3    H164199   2.959   2.626   2.877 -0.5106 -0.6201  0.3137
14236TIP3    H264200   2.946   2.655   3.025 -2.2190 -2.4162  0.5560
14237TIP3   OH264201   4.456   3.027   0.464  0.5139 -0.2247 -0.2614
14237TIP3    H164202   4.465   3.121   0.452 -0.2819 -0.1212 -0.1277
14237TIP3    H264203   4.531   3.001   0.516 -0.0771  0.5981  1.0452
14238TIP3   OH264204   4.238   5.328  13.231  0.0561 -0.0347 -0.4858
14238TIP3    H164205   4.266   5.310  13.141  0.0649 -1.3311 -0.2381
14238TIP3    H264206   4.152   5.288  13.238  0.9563 -1.9315  0.7059
14239TIP3   OH264207   5.860   3.541  14.499 -0.4943  0.3746 -0.0071
14239TIP3    H164208   5.822   3.457  14.522 -0.5599 -0.0956 -1.6900
14239TIP3    H264209   5.815   3.604  14.555 -2.6246 -0.3600 -0.7859
14240TIP3   OH264210   3.212   6.056   1.227 -0.4060 -0.0148  0.5069
14240TIP3    H164211   3.262   6.038   1.147 -0.8067  0.5179  0.1296
14240TIP3    H264212   3.123   6.027   1.206 -0.7977  1.2747  0.2994
14241TIP3   OH264213   1.505   0.612  14.051  0.2237 -0.1779  0.1873
14241TIP3    H164214   1.472   0.552  14.117  2.0151 -1.5324 -0.0729
14241TIP3    H264215   1.531   0.556  13.978 -1.0313  1.2181 -1.4144
14242TIP3   OH264216   5.364   4.444   1.901  0.5556 -0.3365  0.4868
14242TIP3    H164217   5.422   4.382   1.857 -0.4580 -1.3354  0.5220
14242TIP3    H264218   5.280   4.398   1.908 -1.1359  2.0236 -2.0557
14243TIP3   OH264219   3.750   6.785  15.711 -0.0530 -0.4532 -0.2930
14243TIP3    H164220   3.662   6.758  15.687 -0.2663 -0.0841  0.0653
14243TIP3    H264221   3.805   6.757  15.638 -0.5667 -0.0553 -0.8379
14244TIP3   OH264222   4.610   2.674  12.148 -0.0868 -0.5830 -0.2319
14244TIP3    H164223   4.572   2.758  12.122 -0.7833  0.2628  3.0832
14244TIP3    H264224   4.684   2.662  12.089  0.9007  3.0899  0.0015
14245TIP3   OH264225   0.683   4.352  11.326 -0.2312  0.1093  0.6406
14245TIP3    H164226   0.698   4.368  11.420  0.2143  0.9051  0.4438
14245TIP3    H264227   0.597   4.308  11.323 -1.6113  2.5996  1.2251
14246TIP3   OH264228   6.122   2.176   1.994 -0.1420 -0.4693 -0.6601
14246TIP3    H164229   6.123   2.261   1.949 -0.2912 -0.0737  0.0697
14246TIP3    H264230   6.032   2.145   1.986  0.1291 -1.0052 -1.7383
14247TIP3   OH264231   6.280   6.007   3.327  0.2108  0.4766 -0.4672
14247TIP3    H164232   6.216   5.936   3.322  0.5446  0.2491 -1.8014
14247TIP3    H264233   6.341   5.980   3.396 -0.1482 -0.1121 -0.3730
14248TIP3   OH264234   2.796   2.025  14.323  0.5671  0.0378  0.0369
14248TIP3    H164235   2.889   2.020  14.304  0.8475  2.0433  0.5951
14248TIP3    H264236   2.791   2.041  14.417 -0.5293 -3.3278  0.6882
14249TIP3   OH264237   5.004   4.322  14.962  0.1331  0.0504  0.1097
14249TIP3    H164238   5.064   4.367  15.022 -1.6428  3.1438 -0.2179
14249TIP3    H264239   4.939   4.282  15.019 -0.2854  1.0494  0.3553
14250TIP3   OH264240   5.501   1.301   4.552 -0.3376 -0.1641  0.5063
14250TIP3    H164241   5.429   1.238   4.556 -1.3895  0.7178 -2.0184
14250TIP3    H264242   5.473   1.372   4.609 -1.5289  0.1609 -0.4350
14251TIP3   OH264243   4.555   1.721  12.888 -0.0991 -0.0868 -0.1685
14251TIP3    H164244   4.642   1.760  12.881  0.2354 -0.7150  0.3969
14251TIP3    H264245   4.529   1.705  12.797  0.6474 -0.4778 -0.3186
14252TIP3   OH264246   4.822   5.617   2.629  0.1754  0.0607 -0.1037
14252TIP3    H164247   4.879   5.666   2.689  1.7546 -0.4705 -1.1190
14252TIP3    H264248   4.870   5.614   2.547 -1.6041  0.0882 -1.1964
14253TIP3   OH264249   1.765   4.589   1.457 -0.1242  0.2537 -0.5081
14253TIP3    H164250   1.690   4.643   1.431 -1.2424 -0.8014  0.3778
14253TIP3    H264251   1.841   4.645   1.444 -1.1943  1.8718 -0.0519
14254TIP3   OH264252   2.471   4.279  11.105 -0.3627 -0.1804  0.1742
14254TIP3    H164253   2.514   4.351  11.060  1.2832 -0.5946  1.0027
14254TIP3    H264254   2.421   4.234  11.037  0.7120  0.1872 -0.8911
14255TIP3   OH264255   3.311   5.444   6.396  0.3201 -0.1383 -0.3001
14255TIP3    H164256   3.311   5.518   6.335  0.7260  0.2416  0.1564
14255TIP3    H264257   3.396   5.403   6.384  0.8138  0.5524  0.7434
14256TIP3   OH264258   0.387   1.126   5.874 -0.3069 -0.2161  0.1046
14256TIP3    H164259   0.358   1.122   5.965  1.7432 -0.8516  0.7903
14256TIP3    H264260   0.446   1.202   5.872 -0.7800  0.1304 -0.8362
14257TIP3   OH264261   1.478   6.283  13.591  0.2717 -0.0275 -0.1151
14257TIP3    H164262   1.452   6.363  13.637  0.1849 -0.1475  0.0471
14257TIP3    H264263   1.407   6.221  13.610  0.8647 -0.4907  0.6685
14258TIP3   OH264264   0.379   1.980  12.247  0.0513 -0.1503  0.3647
14258TIP3    H164265   0.288   2.006  12.263 -0.2394 -1.0713  0.2437
14258TIP3    H264266   0.427   2.015  12.322 -0.6246 -0.7965  1.1216
14259TIP3   OH264267   0.194   2.442   5.342  0.2200  0.3379  0.6140
14259TIP3    H164268   0.260   2.392   5.391  0.5652  1.0980  0.9363
14259TIP3    H264269   0.125   2.378   5.324  2.1359 -1.2082 -1.9885
14260TIP3   OH264270   0.037   2.677  14.160  0.5654  0.3469 -0.1726
14260TIP3    H164271   0.025   2.598  14.213  2.7985 -1.5687 -2.2568
14260TIP3    H264272  -0.009   2.658  14.078  1.3005  1.1031 -0.7763
14261TIP3   OH264273   3.824   1.251   0.200 -0.4127  0.5565 -0.2175
14261TIP3    H164274   3.786   1.335   0.226 -0.6366  0.4241 -0.1168
14261TIP3    H264275   3.887   1.273   0.131  1.3438  1.1092  1.4888
14262TIP3   OH264276   2.241   1.377   3.832 -0.1961  0.0327  0.3013
14262TIP3    H164277   2.147   1.394   3.821 -0.1070 -0.1308 -0.8906
14262TIP3    H264278   2.247   1.329   3.914 -1.3909 -1.6047 -0.4916
14263TIP3   OH264279   6.361   5.794   0.867  0.0565  0.1399 -0.2760
14263TIP3    H164280   6.306   5.857   0.820 -1.0689 -0.6663 -0.0936
14263TIP3    H264281   6.312   5.712   0.863  0.7545 -0.3568  0.8309
14264TIP3   OH264282   3.958   3.508  16.876  0.1330 -0.3233  0.0512
14264TIP3    H164283   3.939   3.443  16.943 -0.1474 -0.4676 -0.1672
14264TIP3    H264284   4.052   3.522  16.882 -0.2751  2.1296  2.7452
14265TIP3   OH264285   5.906   2.433   0.802 -0.2812 -0.4896  0.1198
14265TIP3    H164286   5.988   2.399   0.767  0.9863  1.4944  0.9973
14265TIP3    H264287   5.907   2.411   0.895 -0.3730  0.1835  0.2878
14266TIP3   OH264288   2.677   1.687  14.729  0.1646 -0.3852  0.3380
14266TIP3    H164289   2.656   1.757  14.667  2.0307 -0.0904 -0.0228
14266TIP3    H264290   2.673   1.607  14.676  3.3589 -0.0012 -0.7319
14267TIP3   OH264291   5.022   3.421  13.069  0.3675 -0.6403  0.5980
14267TIP3    H164292   4.966   3.364  13.017  0.6503  0.0305 -0.4670
14267TIP3    H264293   4.964   3.492  13.098  0.3330 -0.7385  0.7755
14268TIP3   OH264294   2.589   6.354  11.641 -0.2269 -0.2730 -0.4927
14268TIP3    H164295   2.550   6.276  11.603  0.2744 -1.2833  0.9874
14268TIP3    H264296   2.673   6.364  11.595  0.2405 -1.3041  0.1073
14269TIP3   OH264297   5.325   3.968   4.915  0.2391  0.3727 -0.1430
14269TIP3    H164298   5.301   3.924   4.834  0.1718 -0.6507  0.4209
14269TIP3    H264299   5.271   3.927   4.982  1.1475  0.3658  0.6098
14270TIP3   OH264300   5.984   1.101   0.698  0.0440 -0.2007 -0.4189
14270TIP3    H164301   5.952   1.065   0.780 -2.1617  1.2035 -0.5633
14270TIP3    H264302   5.987   1.026   0.638 -3.3587 -0.5011 -0.4223
14271TIP3   OH264303   5.794   6.252   2.420 -0.2202  0.2654 -0.3629
14271TIP3    H164304   5.800   6.163   2.455  0.8431 -0.6865 -2.8160
14271TIP3    H264305   5.721   6.291   2.469 -0.8766 -2.0088  0.6162
14272TIP3   OH264306   1.150   2.561  13.605  0.5487  0.0163 -0.6122
14272TIP3    H164307   1.163   2.656  13.604 -0.7139  0.2066 -1.2447
14272TIP3    H264308   1.208   2.529  13.675 -0.7309  1.5008  1.2115
14273TIP3   OH264309   4.221   0.138  10.702 -0.6299  0.3350 -0.0235
14273TIP3    H164310   4.153   0.188  10.748  0.8936  0.7134  1.9877
14273TIP3    H264311   4.197   0.047  10.716 -1.7968  0.4618 -1.0926
14274TIP3   OH264312   1.694   5.163  15.697  0.4229 -0.1225 -0.0238
14274TIP3    H164313   1.668   5.130  15.611 -2.5688 -2.4756  1.5601
14274TIP3    H264314   1.765   5.104  15.725 -0.8921 -1.5972  0.3835
14275TIP3   OH264315   0.835   5.415  15.072  0.3570  0.3034  0.0608
14275TIP3    H164316   0.854   5.425  15.165  0.6854  0.0321  0.0259
14275TIP3    H264317   0.830   5.504  15.039 -1.0636  0.4443  0.5881
14276TIP3   OH264318   6.374   4.179  12.209  0.4063  0.2807 -0.3081
14276TIP3    H164319   6.401   4.099  12.165  0.0150 -0.3001  0.4685
14276TIP3    H264320   6.294   4.154  12.256  0.8831  0.8195  0.8338
14277TIP3   OH264321   1.266   0.354  12.855 -0.0731  0.2688 -0.3671
14277TIP3    H164322   1.337   0.299  12.822 -0.3474  0.7668 -1.8382
14277TIP3    H264323   1.309   0.425  12.902  0.3869  0.3169 -0.8617
14278TIP3   OH264324   2.520   5.536  14.617 -0.3663  0.2058 -0.5645
14278TIP3    H164325   2.523   5.584  14.535 -0.7377 -2.1642 -2.0512
14278TIP3    H264326   2.427   5.523  14.635 -0.2751 -0.8923 -0.8053
14279TIP3   OH264327   5.691   5.632  15.129 -0.0723  0.2207 -0.3735
14279TIP3    H164328   5.642   5.642  15.211  0.4603 -2.0074  0.2677
14279TIP3    H264329   5.623   5.618  15.063 -0.4266 -2.3672  0.4307
14280TIP3   OH264330   4.885   5.056  11.213 -0.5724  0.6737 -0.7399
14280TIP3    H164331   4.852   5.112  11.144 -1.1335 -0.9725 -1.8677
14280TIP3    H264332   4.821   5.064  11.284 -0.3658  1.8145 -0.6592
14281TIP3   OH264333   5.266   0.187   4.421  0.1949 -0.3560 -0.0563
14281TIP3    H164334   5.195   0.250   4.431  0.2423 -0.1879 -0.6779
14281TIP3    H264335   5.261   0.160   4.329  0.2044 -1.2332  0.1880
14282TIP3   OH264336   1.557   4.254   0.573 -0.2557 -0.0092 -0.4486
14282TIP3    H164337   1.480   4.211   0.612 -0.2600 -1.2824 -1.7601
14282TIP3    H264338   1.630   4.196   0.592  0.0974  0.3799 -0.5920
14283TIP3   OH264339   2.908   6.752  11.781 -0.0553  0.1194 -0.3155
14283TIP3    H164340   2.921   6.699  11.860  0.6276  1.1860  0.3135
14283TIP3    H264341   2.988   6.803  11.773 -1.3779  2.3893  0.1346
14284TIP3   OH264342   0.742   5.929  12.256 -0.0832 -0.4340 -0.1718
14284TIP3    H164343   0.783   5.865  12.197  0.6348 -1.2672  1.1592
14284TIP3    H264344   0.727   5.879  12.337 -0.8416  0.7203  0.4118
14285TIP3   OH264345   0.396   2.952   3.532 -0.0241  0.3244  0.2875
14285TIP3    H164346   0.423   2.908   3.612 -0.2883  0.7872  0.6319
14285TIP3    H264347   0.398   3.045   3.553  1.1141  0.5297 -0.6172
14286TIP3   OH264348   1.038   2.800   2.404  0.5144  0.0153  0.4579
14286TIP3    H164349   0.977   2.729   2.387 -1.1512  1.0339  1.8333
14286TIP3    H264350   1.125   2.760   2.394 -0.3570 -1.8550 -0.0626
14287TIP3   OH264351   6.447   1.494   5.434 -0.4525  0.1349 -0.3531
14287TIP3    H164352   6.375   1.511   5.373  0.6954  0.9664 -1.5401
14287TIP3    H264353   6.462   1.577   5.477 -0.8767 -0.3069  0.6688
14288TIP3   OH264354   4.864   1.458  10.518  0.3355  0.2693 -0.6352
14288TIP3    H164355   4.783   1.487  10.560 -0.6984 -2.1975 -0.7284
14288TIP3    H264356   4.844   1.457  10.424  0.9563  0.9450 -0.7861
14289TIP3   OH264357   6.251   5.958  12.111  0.1756  0.3693 -0.2937
14289TIP3    H164358   6.185   5.925  12.172  1.1616 -0.8106  0.1720
14289TIP3    H264359   6.311   5.885  12.099  0.2866  0.7502 -2.2986
14290TIP3   OH264360   5.636   4.296   3.421  0.2625  0.0195 -0.3262
14290TIP3    H164361   5.729   4.308   3.404  0.5003 -0.0077  0.8351
14290TIP3    H264362   5.612   4.216   3.373  1.2945 -1.0469  0.8691
14291TIP3   OH264363   4.833   5.148   3.443  0.1530 -0.0924  0.0411
14291TIP3    H164364   4.923   5.123   3.466  0.0690 -0.9597 -0.5245
14291TIP3    H264365   4.778   5.084   3.489 -0.1015 -0.6021 -0.9630
14292TIP3   OH264366   4.891   5.067  15.982  0.2183  0.1839 -0.4295
14292TIP3    H164367   4.966   5.082  15.925  0.1285 -1.5610 -1.0854
14292TIP3    H264368   4.866   4.976  15.964 -0.4426 -0.0994  1.6641
14293TIP3   OH264369   3.559   2.013  16.351  0.7027  0.1664  0.1924
14293TIP3    H164370   3.514   2.044  16.273  0.1930  1.5567  1.0088
14293TIP3    H264371   3.544   1.918  16.350  0.2884  0.2200 -1.1182
14294TIP3   OH264372   6.806   2.716  17.052  0.2947 -0.8250 -0.1125
14294TIP3    H164373   6.818   2.700  16.958 -0.4715 -1.7991 -0.0643
14294TIP3    H264374   6.894   2.725  17.087  0.5837 -0.3642 -0.9432
14295TIP3   OH264375   2.559   0.255   1.048 -0.4110 -0.5948 -0.8028
14295TIP3    H164376   2.508   0.173   1.045  1.5707 -1.8558 -2.4472
14295TIP3    H264377   2.533   0.302   0.969  0.0501 -0.6674 -0.9994
14296TIP3   OH264378   5.710   0.648   0.537 -0.2963  0.1228 -0.3549
14296TIP3    H164379   5.663   0.723   0.573 -0.2151  0.1911 -0.3917
14296TIP3    H264380   5.755   0.683   0.460  0.6341  0.2895  0.2478
14297TIP3   OH264381   4.497   4.975  16.313 -0.4479 -0.2040 -0.5977
14297TIP3    H164382   4.501   5.068  16.293  1.4354 -0.1513 -0.1275
14297TIP3    H264383   4.499   4.932  16.227  0.8051  0.1549 -0.7603
14298TIP3   OH264384   2.204   6.786   5.562  0.3737 -0.2678  0.5975
14298TIP3    H164385   2.259   6.744   5.628  0.1373  0.2990  1.1682
14298TIP3    H264386   2.156   6.853   5.610  1.4047  1.2803 -0.4411
14299TIP3   OH264387   5.734   1.625  13.589  0.1585 -0.0424 -0.5170
14299TIP3    H164388   5.646   1.639  13.554 -0.8024  0.7134  1.9148
14299TIP3    H264389   5.770   1.714  13.597  0.4925 -0.2217 -0.0055
14300TIP3   OH264390   1.972   0.404   3.978  0.4448 -0.0604  0.1643
14300TIP3    H164391   1.973   0.309   3.980  2.3554 -0.0774  0.6735
14300TIP3    H264392   2.047   0.430   4.032  1.2066  1.6745 -1.5886
14301TIP3   OH264393   5.984   1.202  14.400  0.1980  0.6856  0.8739
14301TIP3    H164394   5.963   1.111  14.379  0.2730  0.4862  1.6113
14301TIP3    H264395   5.912   1.230  14.457  0.5361  0.8567  1.2245
14302TIP3   OH264396   3.578   2.948  12.587 -0.1433  0.3791  0.1393
14302TIP3    H164397   3.581   2.862  12.631 -0.5391 -0.4676 -1.4161
14302TIP3    H264398   3.510   2.996  12.634  0.1023 -0.1372  1.0596
14303TIP3   OH264399   3.135   1.839  15.235 -0.1216 -0.2873 -0.2125
14303TIP3    H164400   3.059   1.895  15.243 -1.2266 -1.6699 -0.5765
14303TIP3    H264401   3.146   1.799  15.322 -0.8937 -1.3827 -0.5922
14304TIP3   OH264402   4.092   2.099  15.483  0.1699 -0.4347  0.1088
14304TIP3    H164403   4.127   2.175  15.438 -0.3835 -1.0579 -1.4486
14304TIP3    H264404   4.135   2.024  15.441  1.1151 -0.9964  1.9771
14305TIP3   OH264405   3.998   4.847  11.886 -0.3581  0.1462  1.1067
14305TIP3    H164406   3.926   4.902  11.853 -0.7450 -1.4125 -0.7948
14305TIP3    H264407   3.955   4.785  11.944 -0.9127 -1.7742 -1.2010
14306TIP3   OH264408   3.488   4.868  14.192  0.1325  0.6383 -0.3830
14306TIP3    H164409   3.401   4.836  14.168  0.6733 -3.2514  1.8705
14306TIP3    H264410   3.481   4.890  14.285  1.2816  1.5349 -0.4863
14307TIP3   OH264411   0.406   5.008   5.266 -0.3414  0.0715 -0.1385
14307TIP3    H164412   0.496   4.979   5.281 -0.2291 -0.5225 -1.7627
14307TIP3    H264413   0.368   4.941   5.209 -1.6337  0.6228  0.0279
14308TIP3   OH264414   0.438   4.658  12.177 -0.2519 -0.3734  0.2669
14308TIP3    H164415   0.491   4.713  12.235  1.0655 -0.8177 -0.4838
14308TIP3    H264416   0.491   4.648  12.098 -0.9571 -1.7942 -0.0554
14309TIP3   OH264417   1.095   1.830   4.174 -0.0579 -0.2641 -0.7027
14309TIP3    H164418   1.183   1.797   4.152  0.8198  1.8869 -0.7140
14309TIP3    H264419   1.100   1.849   4.268 -1.3110 -2.2819 -0.1811
14310TIP3   OH264420   5.069   2.692  13.235  0.2780  0.3129 -0.5143
14310TIP3    H164421   5.109   2.779  13.232 -0.0761  0.5860  1.5927
14310TIP3    H264422   5.009   2.696  13.309  1.2620 -2.1456  0.4851
14311TIP3   OH264423   5.234   3.900  11.021 -0.3971 -0.1331 -0.0686
14311TIP3    H164424   5.284   3.823  11.047 -0.0223 -1.3868 -3.8620
14311TIP3    H264425   5.157   3.864  10.977 -2.4294  1.7654  1.7281
14312TIP3   OH264426   3.257   1.946   5.888 -0.2340 -0.2724  0.0050
14312TIP3    H164427   3.275   1.889   5.962  2.0136  0.4329  0.0901
14312TIP3    H264428   3.273   1.892   5.811  0.0830 -0.2773  0.0726
14313TIP3   OH264429   4.022   6.532  13.391  0.0451 -0.0282 -0.2683
14313TIP3    H164430   4.096   6.580  13.353  0.8497  0.8493  2.1972
14313TIP3    H264431   3.959   6.599  13.414  0.7287 -0.1413  2.2590
14314TIP3   OH264432   6.142   6.292  15.030  0.3002  0.4725 -0.0293
14314TIP3    H164433   6.065   6.321  15.079  0.3598  3.3303 -1.3753
14314TIP3    H264434   6.207   6.361  15.045  0.8877  0.6052 -2.6587
14315TIP3   OH264435   4.848   0.430  14.301  0.8943  0.2758  0.4341
14315TIP3    H164436   4.869   0.492  14.232  2.7178  0.7972  1.3952
14315TIP3    H264437   4.762   0.458  14.333  0.1494  0.1950 -1.3729
14316TIP3   OH264438   0.125   0.658   0.325  0.4091 -0.2158 -0.0673
14316TIP3    H164439   0.161   0.646   0.413  0.1669  0.2334  0.0984
14316TIP3    H264440   0.164   0.588   0.273  0.9971 -0.1388  0.2651
14317TIP3   OH264441   0.906   1.778  13.062 -0.0770 -0.4219 -0.0629
14317TIP3    H164442   0.948   1.753  12.979  0.7294  0.4721  0.0565
14317TIP3    H264443   0.964   1.845  13.099  0.5349 -1.9976  2.0687
14318TIP3   OH264444   2.038   3.930  14.756  0.0489  0.6828  0.2050
14318TIP3    H164445   2.092   3.987  14.810  2.2770 -1.6428  0.6253
14318TIP3    H264446   1.968   3.901  14.815  1.9662 -1.1462  1.7560
14319TIP3   OH264447   5.866   1.094  15.725  0.7571 -0.5808  0.3188
14319TIP3    H164448   5.815   1.161  15.773 -0.6571 -1.8425  0.6542
14319TIP3    H264449   5.802   1.052  15.667  1.6170 -1.6339  0.1057
14320TIP3   OH264450   4.462   3.162   1.255 -0.2985 -0.3387 -0.0051
14320TIP3    H164451   4.547   3.123   1.274 -0.8821 -0.8285  1.8372
14320TIP3    H264452   4.401   3.088   1.251 -1.2040  0.1778  2.2930
14321TIP3   OH264453   0.929   1.704   3.401  0.4470 -0.4101 -0.5132
14321TIP3    H164454   0.912   1.714   3.495  1.6657 -0.8619 -0.2395
14321TIP3    H264455   0.850   1.662   3.368  0.3342 -1.0066  0.4569
14322TIP3   OH264456   1.725   2.158  12.319  0.1464 -0.0256 -0.2540
14322TIP3    H164457   1.670   2.176  12.243  0.7073  0.5707 -0.5312
14322TIP3    H264458   1.688   2.213  12.389 -1.4525 -1.8631  0.4355
14323TIP3   OH264459   1.385   4.638  12.279  0.3022 -0.4125  0.2592
14323TIP3    H164460   1.378   4.547  12.306  0.5102 -0.7188 -0.7032
14323TIP3    H264461   1.315   4.683  12.327 -1.1671 -1.4483 -0.8365
14324TIP3   OH264462   6.674   3.244   6.233 -0.2593 -0.4166  1.2424
14324TIP3    H164463   6.689   3.280   6.320  0.6767  0.5008  0.7328
14324TIP3    H264464   6.743   3.178   6.222  0.7771  0.7453  0.5356
14325TIP3   OH264465   2.959   3.183   2.046 -0.4850 -0.1623 -0.3173
14325TIP3    H164466   2.895   3.115   2.070 -0.7986  0.6248  1.2305
14325TIP3    H264467   2.911   3.241   1.988 -0.5130 -0.7224 -0.8666
14326TIP3   OH264468   4.656   0.660   3.149  0.4810  0.0821 -0.3747
14326TIP3    H164469   4.604   0.693   3.075  0.5978  0.2269 -0.3913
14326TIP3    H264470   4.605   0.686   3.226  0.4536  0.0952 -0.3969
14327TIP3   OH264471   4.173   4.328   2.386  0.2928  0.1225  0.5279
14327TIP3    H164472   4.252   4.357   2.340 -0.3983 -0.9410 -1.4470
14327TIP3    H264473   4.204   4.265   2.450  0.9853 -1.2783 -1.1131
14328TIP3   OH264474   4.943   1.728  16.836 -0.1570  0.3297 -0.0173
14328TIP3    H164475   4.864   1.678  16.814  0.9388 -1.6633  0.3794
14328TIP3    H264476   4.971   1.692  16.921  2.1233 -0.2409 -0.9509
14329TIP3   OH264477   0.234   1.265   4.479 -0.1806 -0.0088  0.0646
14329TIP3    H164478   0.279   1.239   4.559  0.0089  0.0158 -0.0335
14329TIP3    H264479   0.165   1.198   4.467 -1.0656  0.7185  0.9507
14330TIP3   OH264480   4.460   3.973   5.598 -0.2786 -0.2332  0.1783
14330TIP3    H164481   4.495   4.061   5.593  2.4461 -1.3024 -2.5675
14330TIP3    H264482   4.497   3.937   5.679  1.2147  0.1615 -0.3119
14331TIP3   OH264483   0.158   3.943  15.961  0.2889  0.2579  0.3335
14331TIP3    H164484   0.232   3.985  16.005  1.2568 -2.1682  1.2233
14331TIP3    H264485   0.106   3.905  16.031 -1.3092  1.1067 -0.3460
14332TIP3   OH264486   0.466   5.745   1.888  0.1545  0.1563 -0.6675
14332TIP3    H164487   0.514   5.685   1.831 -1.4069  0.0016 -1.8869
14332TIP3    H264488   0.410   5.794   1.829 -0.1222  1.3674  0.5511
14333TIP3   OH264489   6.105   4.097   5.362  0.0425  0.0219 -0.8110
14333TIP3    H164490   6.195   4.075   5.337  0.2401 -0.6844  0.4429
14333TIP3    H264491   6.062   4.118   5.279  0.8486 -1.5212 -1.6722
14334TIP3   OH264492   1.870   2.919  16.373 -0.6497 -0.4057  0.2596
14334TIP3    H164493   1.800   2.962  16.324  0.1306  0.9579  0.2949
14334TIP3    H264494   1.889   2.978  16.445 -0.0797 -1.2064  0.7908
14335TIP3   OH264495   6.051   4.231   1.200 -0.7235  0.5092 -0.2721
14335TIP3    H164496   5.967   4.226   1.154 -0.5731 -0.4319 -0.4559
14335TIP3    H264497   6.030   4.275   1.283 -1.5973 -0.5996  0.1200
14336TIP3   OH264498   4.768   1.521  16.847 -0.4688 -0.0774  0.2395
14336TIP3    H164499   4.751   1.452  16.911 -0.2187 -0.6385 -0.2944
14336TIP3    H264500   4.720   1.493  16.769  1.4983 -0.8389 -0.7474
14337TIP3   OH264501   1.671   3.459  15.170  0.0470 -0.4515  0.1535
14337TIP3    H164502   1.652   3.451  15.076  1.3911  0.2417 -0.2022
14337TIP3    H264503   1.720   3.379  15.191 -2.1258 -1.6900  0.8121
14338TIP3   OH264504   4.088   6.136  13.077 -0.5853  0.2476  0.0378
14338TIP3    H164505   4.128   6.131  13.163 -1.0009 -3.7295  0.1943
14338TIP3    H264506   4.149   6.091  13.019 -1.3417  0.8487 -1.2859
14339TIP3   OH264507   5.360   2.785  13.545  0.3517 -0.0334  0.3357
14339TIP3    H164508   5.336   2.698  13.513  0.3898 -0.1235  0.5487
14339TIP3    H264509   5.353   2.778  13.640  1.1909 -0.0473  0.4012
14340TIP3   OH264510   0.360   4.914  11.822 -0.0477 -0.2834 -0.2484
14340TIP3    H164511   0.424   4.919  11.893  0.3246 -1.0869 -0.5113
14340TIP3    H264512   0.283   4.960  11.856  0.1320 -0.6265  0.6704
14341TIP3   OH264513   2.003   3.152   2.691  0.3898  0.4114 -0.0683
14341TIP3    H164514   2.068   3.100   2.645  2.1809  3.0869 -0.7848
14341TIP3    H264515   1.921   3.134   2.644  0.9355 -1.5879 -0.3507
14342TIP3   OH264516   4.479   3.756  13.602  0.1092  0.3222 -0.3763
14342TIP3    H164517   4.434   3.824  13.551 -1.0692  0.1197  0.3612
14342TIP3    H264518   4.458   3.674  13.557 -1.8205  0.0203  0.9782
14343TIP3   OH264519   5.577   4.430   4.022  0.3319 -0.1373  0.1739
14343TIP3    H164520   5.644   4.484   3.979 -1.2577  0.6053 -1.4902
14343TIP3    H264521   5.627   4.362   4.067  2.3031  1.4882  0.6052
14344TIP3   OH264522   6.504   0.380   4.524 -0.1387 -1.0851  0.2661
14344TIP3    H164523   6.448   0.409   4.453 -1.0665 -1.8507  0.6538
14344TIP3    H264524   6.504   0.285   4.517 -0.0378 -1.1588  1.1187
14345TIP3   OH264525   5.016   6.085   5.974  0.4274  0.2889  0.1329
14345TIP3    H164526   4.973   6.156   6.022  3.7144  2.4876  0.0951
14345TIP3    H264527   5.058   6.033   6.042 -1.6251 -1.5361  0.1223
14346TIP3   OH264528   3.749   3.381  11.709  0.6682  0.2916  0.3875
14346TIP3    H164529   3.662   3.341  11.717  2.6029 -4.5066  0.9237
14346TIP3    H264530   3.773   3.405  11.799 -0.0238  1.5785  0.2457
14347TIP3   OH264531   1.001   0.511  16.484  0.2434  0.1014 -0.4156
14347TIP3    H164532   0.976   0.493  16.575 -0.2520 -2.1177 -0.9385
14347TIP3    H264533   0.938   0.577  16.455 -1.5807 -1.3975 -0.0380
14348TIP3   OH264534   5.167   6.757  13.697 -0.1665 -0.0190  0.2742
14348TIP3    H164535   5.244   6.715  13.659  0.6433  1.0671  0.6652
14348TIP3    H264536   5.107   6.768  13.623 -0.3511 -1.6758  0.1275
14349TIP3   OH264537   1.129   2.858   0.793  0.0727  0.5700 -0.3753
14349TIP3    H164538   1.084   2.925   0.843  2.5456  1.7762  0.4109
14349TIP3    H264539   1.085   2.776   0.816 -3.0073  1.8019 -1.3338
14350TIP3   OH264540   5.132   2.637   1.083  0.3470 -0.2033  0.0238
14350TIP3    H164541   5.045   2.663   1.115 -0.9519 -3.2657 -0.6873
14350TIP3    H264542   5.187   2.637   1.161 -0.4125  1.1471  0.6068
14351TIP3   OH264543   3.357   6.103  15.350  0.1379 -0.3974 -0.0395
14351TIP3    H164544   3.262   6.114  15.349  0.1570 -0.1800  0.4403
14351TIP3    H264545   3.373   6.025  15.402  0.3646  1.2236  2.4682
14352TIP3   OH264546   5.060   2.534   5.382  0.9778 -0.0646 -0.0618
14352TIP3    H164547   5.047   2.441   5.362  0.8931 -0.0147 -0.2284
14352TIP3    H264548   5.013   2.547   5.465 -0.1549  0.1523 -0.7227
14353TIP3   OH264549   1.261   1.720   2.697 -0.3308 -0.0637  0.2716
14353TIP3    H164550   1.340   1.774   2.692  0.4801 -1.2751 -0.4999
14353TIP3    H264551   1.254   1.679   2.611 -2.6708  1.1539 -0.2156
14354TIP3   OH264552   1.023   6.140   0.144  0.0297 -0.4451 -0.2278
14354TIP3    H164553   1.035   6.147   0.239 -2.1652 -1.7056  0.2186
14354TIP3    H264554   1.109   6.160   0.107  1.0471 -0.3156  2.0345
14355TIP3   OH264555   5.843   2.946   5.465  0.2457  0.1426 -0.4979
14355TIP3    H164556   5.939   2.950   5.472  0.2490 -0.8880  0.2901
14355TIP3    H264557   5.826   2.955   5.371  1.1909 -0.6982 -0.7703
14356TIP3   OH264558   0.904   5.196  12.563 -0.5011 -0.4538  0.6602
14356TIP3    H164559   0.944   5.282  12.567  2.0308 -1.4617 -0.3101
14356TIP3    H264560   0.946   5.146  12.633 -1.6631 -1.0082  0.9844
14357TIP3   OH264561   4.619   0.975  16.905  0.0020  0.2769  0.1219
14357TIP3    H164562   4.658   0.889  16.890  0.4406  0.4085  0.4744
14357TIP3    H264563   4.557   0.962  16.976 -0.2375  0.1671 -0.1061
14358TIP3   OH264564   3.679   0.355  15.164 -0.2434  0.3204 -0.3687
14358TIP3    H164565   3.584   0.343  15.168 -0.8788  3.9446 -0.9552
14358TIP3    H264566   3.710   0.284  15.107 -2.3902 -1.5145  0.5794
14359TIP3   OH264567   2.553   6.423   3.052 -0.0730 -0.5565  0.2185
14359TIP3    H164568   2.535   6.355   2.987 -0.2745 -0.6080  0.3257
14359TIP3    H264569   2.475   6.478   3.050  1.0281  1.0615 -1.5540
14360TIP3   OH264570   5.736   5.458  14.806 -0.0410  0.1097 -0.7315
14360TIP3    H164571   5.820   5.429  14.840  0.6930  1.5616 -1.2582
14360TIP3    H264572   5.757   5.518  14.735 -1.5204  0.5945 -0.8008
14361TIP3   OH264573   1.290   6.479   3.681 -0.2669  0.4276 -0.4114
14361TIP3    H164574   1.351   6.551   3.695 -0.2104  0.8941 -2.6316
14361TIP3    H264575   1.222   6.492   3.747  0.9554  1.1227  0.7464
14362TIP3   OH264576   0.411   4.961   4.807  0.3927  0.1075  0.0528
14362TIP3    H164577   0.357   5.020   4.860 -1.2788 -0.8223 -0.5311
14362TIP3    H264578   0.374   4.970   4.719 -0.3304 -2.2348  0.0596
14363TIP3   OH264579   2.397   0.227   2.683  0.5472  0.2851  0.1510
14363TIP3    H164580   2.450   0.161   2.638  0.0617 -0.1901  0.2684
14363TIP3    H264581   2.451   0.306   2.680  2.2184 -0.6758  2.0984
14364TIP3   OH264582   6.618   1.154  15.717  0.2487 -0.0436 -0.1052
14364TIP3    H164583   6.557   1.088  15.749 -0.3988 -1.1284 -3.2370
14364TIP3    H264584   6.566   1.234  15.710 -0.2308 -0.3933 -0.6194
14365TIP3   OH264585   2.390   6.427   2.600 -0.0632  0.0441 -0.4172
14365TIP3    H164586   2.320   6.463   2.547 -0.0186  0.3715 -0.2542
14365TIP3    H264587   2.452   6.499   2.611 -1.0977  0.6556  1.8907
14366TIP3   OH264588   6.771   1.411  11.306  0.2355  0.3726  0.0413
14366TIP3    H164589   6.767   1.316  11.290 -0.0326  0.3193  0.4189
14366TIP3    H264590   6.698   1.447  11.255 -1.1384  0.1133  1.7427
14367TIP3   OH264591   1.162   0.634   4.515  0.0164  0.7351  0.3581
14367TIP3    H164592   1.196   0.559   4.467  1.1925  1.9469 -0.7974
14367TIP3    H264593   1.109   0.681   4.450 -0.0634  1.3057  0.8324
14368TIP3   OH264594   2.921   3.548   2.947  0.2510 -0.6516  0.3676
14368TIP3    H164595   2.953   3.458   2.946 -1.2410 -1.2084  0.0276
14368TIP3    H264596   2.983   3.596   2.891  1.6883 -1.2057  1.4212
14369TIP3   OH264597   5.362   0.765  15.809  0.3171  0.1884  0.4866
14369TIP3    H164598   5.456   0.746  15.802  0.1977 -0.1312 -0.3385
14369TIP3    H264599   5.344   0.825  15.737 -0.3216 -0.6118 -0.0323
14370TIP3   OH264600   0.603   0.468  15.749 -0.8010 -0.0750  0.4892
14370TIP3    H164601   0.617   0.423  15.666  1.0538 -0.9306  1.2118
14370TIP3    H264602   0.582   0.558  15.725 -2.4059 -0.7884 -0.9284
14371TIP3   OH264603   2.523   3.083   0.394  0.0907 -0.0415 -0.0117
14371TIP3    H164604   2.471   3.158   0.425  0.9367  0.4355  0.2872
14371TIP3    H264605   2.490   3.066   0.305 -0.0619  0.7355 -0.1116
14372TIP3   OH264606   0.718   4.767   3.205 -0.4236 -0.0371 -0.5311
14372TIP3    H164607   0.730   4.785   3.112  2.4740  0.7491 -0.1097
14372TIP3    H264608   0.654   4.831   3.234  0.0525  0.9807 -1.6301
14373TIP3   OH264609   2.316   1.906   0.502 -0.4501 -0.4814  0.2942
14373TIP3    H164610   2.222   1.902   0.518 -0.6193 -0.7572 -0.7000
14373TIP3    H264611   2.340   1.997   0.519 -0.7019 -0.6288  1.5127
14374TIP3   OH264612   0.214   3.904  11.340  0.4544  0.0523 -0.2792
14374TIP3    H164613   0.155   3.855  11.281  0.7186 -0.2042 -0.3333
14374TIP3    H264614   0.244   3.977  11.287  2.1662 -1.1938 -1.1235
14375TIP3   OH264615   2.749   4.390   1.184  0.0735 -0.1575  0.0942
14375TIP3    H164616   2.696   4.386   1.264 -0.6084 -1.4990 -0.4076
14375TIP3    H264617   2.834   4.422   1.214 -0.8451  1.5774  0.9851
14376TIP3   OH264618   6.165   6.185   2.363  0.0895  0.1948 -0.6189
14376TIP3    H164619   6.183   6.249   2.295 -0.5246  0.6480 -0.3590
14376TIP3    H264620   6.161   6.101   2.317 -1.8470  0.6691 -1.4070
14377TIP3   OH264621   6.618   2.520  14.262 -0.1682  0.1866  1.0503
14377TIP3    H164622   6.561   2.574  14.208  1.5923  0.2423 -0.8619
14377TIP3    H264623   6.569   2.508  14.344 -2.9339  0.1451 -0.4797
14378TIP3   OH264624   4.641   5.004   3.563  0.1344 -0.6816  0.2828
14378TIP3    H164625   4.610   4.940   3.499  0.5280 -0.6581  0.0602
14378TIP3    H264626   4.562   5.047   3.596 -0.0021  0.4151 -1.3455
14379TIP3   OH264627   3.402   3.357   3.813  0.2217 -0.1163 -0.3928
14379TIP3    H164628   3.442   3.434   3.854 -0.7974 -0.9923  2.4753
14379TIP3    H264629   3.312   3.383   3.796  0.2541 -0.2267 -0.7354
14380TIP3   OH264630   1.542   2.931  12.677 -0.0849 -0.1495 -0.6105
14380TIP3    H164631   1.522   3.022  12.656 -1.4282 -0.0491  0.8335
14380TIP3    H264632   1.466   2.901  12.727  2.1313 -0.7241  2.7492
14381TIP3   OH264633   6.448   0.837   5.535  0.5121  0.1800 -0.2878
14381TIP3    H164634   6.489   0.886   5.464  0.6500 -0.2380 -0.4995
14381TIP3    H264635   6.408   0.761   5.492  2.4721 -1.2961  0.3192
14382TIP3   OH264636   2.621   6.760   6.067 -0.6651 -0.1308 -0.3564
14382TIP3    H164637   2.554   6.742   6.002 -0.1223 -2.0770 -0.4349
14382TIP3    H264638   2.579   6.738   6.151 -0.2560 -1.0592 -0.3812
14383TIP3   OH264639   2.586   4.101   5.682  0.0484 -0.0941 -0.0573
14383TIP3    H164640   2.516   4.165   5.666  0.2637 -0.4040 -2.8193
14383TIP3    H264641   2.547   4.037   5.741 -0.0283  2.6785  3.2060
14384TIP3   OH264642   5.667   1.678  17.184  0.4772 -0.3399 -0.1116
14384TIP3    H164643   5.587   1.729  17.199  0.0875 -0.8428 -0.4449
14384TIP3    H264644   5.737   1.744  17.179 -0.0300  0.1735 -0.6045
14385TIP3   OH264645   5.389   2.190  13.289  0.5511  0.2519 -0.1036
14385TIP3    H164646   5.417   2.180  13.198 -1.2033  0.3603 -0.6977
14385TIP3    H264647   5.297   2.215  13.283  0.5059  0.6758  1.7035
14386TIP3   OH264648   5.195   2.740   5.644 -0.0612  0.0358 -0.1179
14386TIP3    H164649   5.226   2.803   5.709 -1.9018  0.9908 -0.1091
14386TIP3    H264650   5.137   2.790   5.587 -1.0300 -1.4914 -0.5447
14387TIP3   OH264651   5.234   0.008   4.209 -0.2425 -0.3263  0.5427
14387TIP3    H164652   5.220  -0.047   4.286 -0.9958 -2.1318 -0.8035
14387TIP3    H264653   5.170  -0.024   4.145  2.4613 -1.1482 -1.9879
14388TIP3   OH264654   3.606   1.580   4.100  0.1764  0.0984  0.0206
14388TIP3    H164655   3.625   1.664   4.059  0.0412 -0.4601 -1.2476
14388TIP3    H264656   3.674   1.521   4.067 -1.0517 -0.8322 -0.9805
14389TIP3   OH264657   0.453   5.741  13.799 -0.0183 -0.2228 -0.2731
14389TIP3    H164658   0.464   5.835  13.813  1.5202  0.0765 -2.8432
14389TIP3    H264659   0.358   5.729  13.788 -0.1578  1.2183 -0.8220
14390TIP3   OH264660   2.122   6.506  10.051  0.3120 -0.4377 -0.1724
14390TIP3    H164661   2.112   6.558  10.131  2.4426  0.5332 -0.4620
14390TIP3    H264662   2.037   6.462  10.040  0.3564 -1.7748  3.3959
14391TIP3   OH264663   1.877   0.033   0.806  0.5515  0.2980 -0.4347
14391TIP3    H164664   1.857  -0.058   0.780 -0.1513  0.3086  0.0295
14391TIP3    H264665   1.805   0.056   0.865  0.1405  1.5198 -1.3740
14392TIP3   OH264666   2.042   5.862   3.446  0.4159  0.1813 -0.2009
14392TIP3    H164667   1.947   5.872   3.442  0.3480 -0.5394 -0.6041
14392TIP3    H264668   2.076   5.937   3.398  0.1821  2.2640  2.6150
14393TIP3   OH264669   3.711   6.680  13.841 -0.4575 -0.1104 -0.2586
14393TIP3    H164670   3.646   6.723  13.897 -0.1548  0.9171 -0.6730
14393TIP3    H264671   3.709   6.730  13.760  0.9624  0.0524 -0.2221
14394TIP3   OH264672   0.866   0.743  13.099  0.7392  0.1884 -0.8168
14394TIP3    H164673   0.773   0.755  13.081  0.4266 -0.1144  0.4891
14394TIP3    H264674   0.900   0.832  13.111  0.4140  0.2456 -0.3317
14395TIP3   OH264675   0.146   4.791   0.921  0.4461 -0.1228 -0.0011
14395TIP3    H164676   0.152   4.770   1.014 -0.6621  1.0170  0.3640
14395TIP3    H264677   0.164   4.708   0.876  0.1456 -0.8930  1.2471
14396TIP3   OH264678   4.894   3.978   1.908  0.3262  0.2914  0.4980
14396TIP3    H164679   4.808   3.961   1.946  0.8016  0.6000  1.7659
14396TIP3    H264680   4.937   3.892   1.906 -0.6270 -0.2064 -1.8474
14397TIP3   OH264681   0.918   5.438   3.957  0.1443 -0.1215 -0.1427
14397TIP3    H164682   1.012   5.416   3.960  0.3178  0.6940  0.9036
14397TIP3    H264683   0.893   5.423   3.866  1.2603 -0.4901 -0.4047
14398TIP3   OH264684   4.012   1.135  14.959 -0.0874 -0.9444 -0.5386
14398TIP3    H164685   4.048   1.055  14.920 -0.5574 -0.7925 -1.3003
14398TIP3    H264686   3.956   1.104  15.030  0.3772 -1.2491 -0.2998
14399TIP3   OH264687   5.120   5.818   5.375 -0.0133 -0.0815 -0.3024
14399TIP3    H164688   5.201   5.769   5.365  0.3448  0.7604 -1.7528
14399TIP3    H264689   5.070   5.800   5.296 -0.5568  0.6308 -0.1343
14400TIP3   OH264690   5.511   6.429   5.305 -0.3919  0.2964  0.7434
14400TIP3    H164691   5.577   6.406   5.370 -1.0581  0.6871  1.5769
14400TIP3    H264692   5.501   6.524   5.314 -0.1986  0.4212 -0.2209
14401TIP3   OH264693   0.235   6.515  12.241  0.0440  0.1408  0.0336
14401TIP3    H164694   0.269   6.594  12.283 -1.7697  0.9380  0.1285
14401TIP3    H264695   0.253   6.527  12.148 -3.1002  2.3760 -0.4476
14402TIP3   OH264696   3.559   6.329   5.201  0.1452  0.2619 -0.2078
14402TIP3    H164697   3.476   6.334   5.249  0.6178 -0.2742  0.6991
14402TIP3    H264698   3.538   6.360   5.113 -0.8699  0.7522  0.1913
14403TIP3   OH264699   0.490   6.703   0.124 -0.0830 -0.1720 -0.4165
14403TIP3    H164700   0.467   6.652   0.047  1.2924 -0.7217 -0.4788
14403TIP3    H264701   0.434   6.781   0.118  1.7366  1.0844 -3.3797
14404TIP3   OH264702   6.504   3.924  14.333  0.6222 -0.2902 -0.1140
14404TIP3    H164703   6.452   4.001  14.310 -2.5559 -1.8092  1.3082
14404TIP3    H264704   6.492   3.863  14.260 -1.1643 -1.2712  0.9028
14405TIP3   OH264705   6.045   1.281   0.986 -0.3435 -0.8327 -0.4366
14405TIP3    H164706   5.987   1.319   1.053  2.0968 -2.1641  2.7240
14405TIP3    H264707   6.002   1.201   0.959 -1.5655 -0.0836 -0.7751
14406TIP3   OH264708   5.261   3.582   2.587 -0.2000  0.0727  0.1518
14406TIP3    H164709   5.192   3.611   2.647 -1.5689 -1.3930 -0.6083
14406TIP3    H264710   5.306   3.512   2.634  1.6076  1.7816  1.1001
14407TIP3   OH264711   0.706   5.244  16.150  0.9556  0.4841 -0.2747
14407TIP3    H164712   0.791   5.208  16.176  1.4113  3.2116  2.6130
14407TIP3    H264713   0.659   5.257  16.232 -0.6227  2.8121 -1.4228
14408TIP3   OH264714   2.079   1.840  16.632 -0.1189 -0.1066  0.2029
14408TIP3    H164715   2.112   1.787  16.559 -2.8674  1.4389 -2.3920
14408TIP3    H264716   2.044   1.777  16.694 -0.4011 -1.4637 -1.2626
14409TIP3   OH264717   2.604   3.146  11.181  0.0205  0.0602 -0.4058
14409TIP3    H164718   2.618   3.205  11.107 -0.0327  0.8873  0.2267
14409TIP3    H264719   2.541   3.192  11.237  0.7094 -0.1411  0.5735
14410TIP3   OH264720   4.941   0.066  12.191 -0.5353 -0.0721  0.1372
14410TIP3    H164721   4.929   0.161  12.189  1.4378  0.2276 -1.3228
14410TIP3    H264722   4.944   0.044  12.283  0.6183  1.5663  0.5407
14411TIP3   OH264723   2.392   2.749  13.410  0.8897 -0.2560  0.4823
14411TIP3    H164724   2.463   2.739  13.347  0.1202 -2.3288 -0.1469
14411TIP3    H264725   2.320   2.698  13.374 -0.5939  0.9097  1.6267
14412TIP3   OH264726   2.300   4.562   1.282  0.2046  0.0172  0.0896
14412TIP3    H164727   2.334   4.495   1.223  0.0520  0.3442 -0.3739
14412TIP3    H264728   2.234   4.609   1.231  1.3798  1.5312 -0.1375
14413TIP3   OH264729   4.646   3.750   2.080  0.1837  0.6461  0.4055
14413TIP3    H164730   4.647   3.659   2.053 -1.5745  0.3847  1.0909
14413TIP3    H264731   4.615   3.798   2.003 -4.0582 -0.0084  1.4172
14414TIP3   OH264732   1.780   6.217  11.461 -0.5331 -0.2586 -0.1855
14414TIP3    H164733   1.851   6.157  11.440 -0.1656  0.7802 -2.0894
14414TIP3    H264734   1.700   6.167  11.443 -0.2866 -0.9771  0.6520
14415TIP3   OH264735   0.958   3.057   0.086 -0.1374 -0.0987 -0.0246
14415TIP3    H164736   1.005   3.136   0.112 -0.6701  0.6232 -1.1604
14415TIP3    H264737   1.027   2.993   0.068  0.2986  0.1251  0.8519
14416TIP3   OH264738   2.070   0.768  15.086  0.1866 -0.2301 -0.2414
14416TIP3    H164739   2.045   0.728  15.003 -1.2771  0.1143  0.0025
14416TIP3    H264740   2.074   0.862  15.067  0.5649 -0.2143 -0.0921
14417TIP3   OH264741   6.488   4.964  13.946  0.1224 -0.6186 -0.0034
14417TIP3    H164742   6.410   4.909  13.950 -1.6893  1.8175  0.4145
14417TIP3    H264743   6.502   4.993  14.036  0.6792  0.0501 -0.2897
14418TIP3   OH264744   4.409   0.001  14.073 -0.7001  0.2006  0.0008
14418TIP3    H164745   4.481  -0.049  14.034 -1.4930 -0.2314 -0.9497
14418TIP3    H264746   4.333  -0.021  14.019 -1.4773  0.9072  0.7867
14419TIP3   OH264747   5.144   5.824  14.993 -0.3024  0.1723  0.1627
14419TIP3    H164748   5.227   5.871  14.999 -0.4763  0.3434  1.8575
14419TIP3    H264749   5.169   5.734  14.973  0.2645  0.3351  0.1119
14420TIP3   OH264750   3.190   0.802  11.671  0.2632 -0.1775  0.3048
14420TIP3    H164751   3.158   0.753  11.746 -0.1538 -1.2327 -0.5350
14420TIP3    H264752   3.273   0.761  11.649  0.1385 -0.2088 -0.1179
14421TIP3   OH264753   3.472   2.131   6.566 -0.1839  0.1331  0.6926
14421TIP3    H164754   3.424   2.188   6.627  0.8548  2.2954 -0.3842
14421TIP3    H264755   3.561   2.168   6.564  0.0643 -0.4400 -1.3924
14422TIP3   OH264756   1.459   4.845  13.469  0.5001 -0.5942 -0.0897
14422TIP3    H164757   1.534   4.837  13.410  0.9000 -0.4106  0.3853
14422TIP3    H264758   1.415   4.760  13.462 -0.7569  0.1543 -2.3342
14423TIP3   OH264759   1.759   4.999  12.091 -0.4133 -0.5059 -0.4919
14423TIP3    H164760   1.762   4.977  12.185 -1.7009 -0.5837 -0.4547
14423TIP3    H264761   1.724   5.088  12.089 -0.1107 -0.3961 -0.8883
14424TIP3   OH264762   6.222   4.984  11.347 -0.1233  0.1360 -0.1207
14424TIP3    H164763   6.156   5.011  11.283 -0.0992  0.5676  0.0333
14424TIP3    H264764   6.303   5.022  11.315 -0.4009  1.7867  1.0452
14425TIP3   OH264765   5.822   2.383  15.017 -0.0352 -0.8059 -0.5738
14425TIP3    H164766   5.767   2.401  15.093  2.2394 -2.5858  1.6678
14425TIP3    H264767   5.912   2.393  15.049  1.2306  3.2868 -4.3596
14426TIP3   OH264768   5.372   4.296  15.559 -0.8264 -0.1978  0.3118
14426TIP3    H164769   5.345   4.325  15.472 -1.7057 -0.4895  0.4768
14426TIP3    H264770   5.317   4.346  15.619  1.3091  1.7110  0.8505
14427TIP3   OH264771   3.087   0.540   2.511 -0.0813 -0.6858 -0.2454
14427TIP3    H164772   3.111   0.608   2.573  1.7579 -2.0273  0.6011
14427TIP3    H264773   3.146   0.553   2.437 -2.8512  1.4758 -2.3049
14428TIP3   OH264774   0.426   0.157   1.445  0.0575 -0.3271  0.1565
14428TIP3    H164775   0.369   0.168   1.521  2.0230  3.0476  1.3538
14428TIP3    H264776   0.406   0.232   1.389  1.4234 -0.5556 -0.6751
14429TIP3   OH264777   5.905   4.051   3.798 -0.0350 -0.3664  0.5070
14429TIP3    H164778   5.900   3.968   3.845 -0.2188 -1.3764 -1.2551
14429TIP3    H264779   5.845   4.041   3.724 -0.0553  1.3345  0.2565
14430TIP3   OH264780   4.888   6.394   0.063  0.9283 -0.6641  0.4884
14430TIP3    H164781   4.969   6.446   0.062  0.8319 -0.2102  3.9071
14430TIP3    H264782   4.892   6.346   0.146 -2.4210 -0.4094  0.9302
14431TIP3   OH264783   5.834   5.349   0.283  0.2226  0.1232 -0.4371
14431TIP3    H164784   5.858   5.320   0.196 -2.2197  0.5403 -1.3327
14431TIP3    H264785   5.856   5.275   0.340 -1.1626 -1.5190 -1.9038
14432TIP3   OH264786   0.340   3.097  11.969 -0.1034 -0.4541  0.7331
14432TIP3    H164787   0.301   3.028  11.914 -0.2718 -0.3272  0.6937
14432TIP3    H264788   0.333   3.176  11.917 -0.6076 -0.2589  1.0850
14433TIP3   OH264789   1.358   0.209   5.039  0.0358 -0.3822 -0.6377
14433TIP3    H164790   1.359   0.223   4.944  0.5256 -1.4676 -0.8021
14433TIP3    H264791   1.288   0.145   5.054 -0.0590 -0.1951 -0.2631
14434TIP3   OH264792   2.890   5.268   0.462  0.1616 -0.1752 -0.1762
14434TIP3    H164793   2.933   5.247   0.379 -1.5167  0.9236 -1.3819
14434TIP3    H264794   2.808   5.219   0.460 -0.8638  1.4869 -0.1485
14435TIP3   OH264795   0.078   4.550  14.429 -0.1394  0.1426 -0.4116
14435TIP3    H164796  -0.002   4.597  14.405 -0.1452  0.4639  0.2073
14435TIP3    H264797   0.149   4.604  14.396 -0.1739 -0.2254 -1.1069
14436TIP3   OH264798   0.995   2.493  16.171  0.3000 -0.2220  0.6288
14436TIP3    H164799   1.059   2.452  16.113  1.4683  0.6351  1.2728
14436TIP3    H264800   0.976   2.426  16.237  0.4822 -0.4965  0.4035
14437TIP3   OH264801   6.474   6.301  15.614  0.0019 -0.5575  0.7879
14437TIP3    H164802   6.412   6.279  15.684 -1.1540  3.0615  1.1289
14437TIP3    H264803   6.554   6.326  15.660 -0.4602  0.9496  0.8138
14438TIP3   OH264804   1.217   5.529  13.570 -0.1243  0.1299  0.1542
14438TIP3    H164805   1.171   5.462  13.621 -3.1012  2.3583  0.6509
14438TIP3    H264806   1.187   5.515  13.480  0.5300 -0.1699 -0.0240
14439TIP3   OH264807   0.353   2.072  17.162  0.6942  0.2902 -0.1959
14439TIP3    H164808   0.286   2.085  17.229  1.6214 -1.1454  1.0618
14439TIP3    H264809   0.377   1.979  17.170  0.7395  0.0349 -2.6122
14440TIP3   OH264810   5.241   2.542  13.375  0.0987  0.2369 -0.1341
14440TIP3    H164811   5.171   2.593  13.335  1.8577  1.2123 -2.1847
14440TIP3    H264812   5.214   2.451  13.363  0.7952  0.3897 -4.4716
14441TIP3   OH264813   0.036   2.947   0.224 -0.0847 -0.3557 -0.2144
14441TIP3    H164814  -0.050   2.958   0.183 -0.7663  0.2515  1.2991
14441TIP3    H264815   0.021   2.967   0.316  1.6426 -0.4878  0.1252
14442TIP3   OH264816   5.625   2.485   1.068 -0.3097 -0.3206  0.2149
14442TIP3    H164817   5.641   2.390   1.070 -0.2514 -0.4359 -2.2883
14442TIP3    H264818   5.532   2.493   1.048  0.0811  0.0425 -1.7380
14443TIP3   OH264819   2.866   0.867  16.524  0.6008 -0.1345  0.8737
14443TIP3    H164820   2.792   0.928  16.522  0.3746 -0.3643  1.6944
14443TIP3    H264821   2.853   0.816  16.604  1.2290 -0.7098  0.6236
14444TIP3   OH264822   4.255   6.782  12.224  0.1501 -0.0807  0.5474
14444TIP3    H164823   4.317   6.854  12.235  0.0156 -0.2022  2.2469
14444TIP3    H264824   4.176   6.810  12.269 -0.4682 -0.6441 -0.1450
14445TIP3   OH264825   1.673   3.504   0.550 -0.4192 -0.0832  0.0318
14445TIP3    H164826   1.737   3.570   0.522 -1.6075  1.2426  0.3216
14445TIP3    H264827   1.704   3.475   0.636  0.4722 -0.4162 -0.3860
14446TIP3   OH264828   6.549   3.363  11.735 -0.3909  0.6508  0.1946
14446TIP3    H164829   6.476   3.374  11.674 -1.0692  1.4175  1.1104
14446TIP3    H264830   6.507   3.354  11.820  0.4786 -1.6302  0.4384
14447TIP3   OH264831   2.618   2.269   4.122  0.4575 -0.4369  0.1213
14447TIP3    H164832   2.590   2.196   4.065 -1.1502  0.8146 -0.7733
14447TIP3    H264833   2.688   2.312   4.072  0.4924 -0.5851  0.0416
14448TIP3   OH264834   1.811   6.450   3.693 -0.4826 -0.2745 -0.1645
14448TIP3    H164835   1.903   6.452   3.665 -0.9703 -0.1613 -1.8573
14448TIP3    H264836   1.806   6.515   3.763  0.4550  0.6562 -0.9341
14449TIP3   OH264837   6.127   1.435  14.615 -0.5674  0.4886  0.1173
14449TIP3    H164838   6.098   1.523  14.638 -0.1573  0.4346  0.8811
14449TIP3    H264839   6.064   1.405  14.550 -1.3643  0.9240  0.6690
14450TIP3   OH264840   5.545   3.342   4.642 -0.0628 -0.3929  0.2358
14450TIP3    H164841   5.467   3.396   4.634  0.1890 -0.1189 -0.5187
14450TIP3    H264842   5.512   3.254   4.661 -0.5354 -0.2210  0.2185
14451TIP3   OH264843   6.313   2.919   2.948  0.8407 -0.2156  0.3403
14451TIP3    H164844   6.374   2.845   2.959  0.6792 -0.3211  0.5214
14451TIP3    H264845   6.227   2.878   2.943  0.7393 -0.0284  0.5572
14452TIP3   OH264846   1.992   3.831   2.675 -0.1168 -0.7790 -0.1809
14452TIP3    H164847   2.030   3.884   2.746  0.4143 -0.6978 -0.5142
14452TIP3    H264848   1.982   3.744   2.713 -0.7390 -0.5100  0.2889
14453TIP3   OH264849   3.344   0.735  15.224 -0.4623  0.1731  0.1010
14453TIP3    H164850   3.304   0.649  15.233  1.2845 -0.7065 -0.0993
14453TIP3    H264851   3.369   0.760  15.313  1.2268 -0.6835 -0.0843
14454TIP3   OH264852   3.870   2.398   4.460  0.0582  0.0997 -0.7470
14454TIP3    H164853   3.813   2.416   4.534 -0.2640  0.6407 -1.1252
14454TIP3    H264854   3.953   2.441   4.481  0.2124 -0.3736 -0.3686
14455TIP3   OH264855   6.556   0.383  11.868 -0.1535 -0.6328 -0.2029
14455TIP3    H164856   6.499   0.446  11.911  0.3238  0.2163 -0.7707
14455TIP3    H264857   6.497   0.319  11.829 -0.6952 -0.0287 -0.3838
14456TIP3   OH264858   4.926   3.331  14.458  0.1625 -0.9597 -0.4772
14456TIP3    H164859   4.866   3.260  14.438 -1.5079  0.3582 -0.3988
14456TIP3    H264860   4.933   3.381  14.376 -1.3507  0.6198  0.2754
14457TIP3   OH264861   2.412   3.052   4.635 -0.1679 -0.2010 -0.0392
14457TIP3    H164862   2.459   3.134   4.644  0.3706 -0.5539  0.3911
14457TIP3    H264863   2.472   2.985   4.668 -0.2549 -0.8778 -1.1670
14458TIP3   OH264864   2.679   2.872   5.048 -0.2581  0.7488 -0.0169
14458TIP3    H164865   2.774   2.863   5.046 -0.3250 -0.1226  0.3856
14458TIP3    H264866   2.646   2.785   5.069 -1.1453  1.0640 -0.0256
14459TIP3   OH264867   6.696   6.593   1.512 -0.5170 -0.0518 -0.3962
14459TIP3    H164868   6.725   6.545   1.434  0.6187 -0.1975  0.1006
14459TIP3    H264869   6.602   6.601   1.501 -0.3521  0.1520 -1.9238
14460TIP3   OH264870   4.224   0.982  15.748  0.0354 -0.2849  0.1486
14460TIP3    H164871   4.133   0.977  15.775 -0.3851 -1.8000 -1.3812
14460TIP3    H264872   4.221   1.016  15.659  0.9861 -0.1567  0.1513
14461TIP3   OH264873   6.639   1.621  12.681 -0.3281 -0.5240  0.1118
14461TIP3    H164874   6.576   1.687  12.709  1.2434  1.4239 -0.6826
14461TIP3    H264875   6.635   1.623  12.586  1.5494  0.3672  0.0032
14462TIP3   OH264876   4.678   5.759  10.775 -0.5223 -0.0658  0.0941
14462TIP3    H164877   4.651   5.738  10.686 -0.0414 -0.4894  0.0465
14462TIP3    H264878   4.766   5.795  10.766  0.1570 -1.5332  0.5218
14463TIP3   OH264879   4.643   2.065   0.222 -0.0682  0.5091  0.1367
14463TIP3    H164880   4.710   2.132   0.205  2.1626 -1.2914  1.2711
14463TIP3    H264881   4.685   1.982   0.199 -1.8405 -0.7440  1.1362
14464TIP3   OH264882   2.403   4.076  16.329  0.6095  0.6023 -0.4484
14464TIP3    H164883   2.393   3.992  16.284 -1.6572 -1.1547  2.8485
14464TIP3    H264884   2.347   4.136  16.282 -0.6650 -0.7806 -0.7588
14465TIP3   OH264885   6.516   3.822  14.769 -0.5445  0.3000  0.3164
14465TIP3    H164886   6.472   3.743  14.740 -1.1910  0.8283 -0.1803
14465TIP3    H264887   6.498   3.826  14.863  0.1507 -0.5431  0.4968
14466TIP3   OH264888   3.444   0.853   4.423  0.0300  0.3202  0.0147
14466TIP3    H164889   3.496   0.800   4.362  0.2451  0.8191 -0.2377
14466TIP3    H264890   3.404   0.789   4.481  1.7065 -0.0359  0.8465
14467TIP3   OH264891   4.694   0.395   1.179  0.1498  0.3308 -0.1069
14467TIP3    H164892   4.625   0.437   1.231  1.9939 -0.0648  2.9017
14467TIP3    H264893   4.652   0.317   1.143 -1.1187  0.3656  1.1901
14468TIP3   OH264894   5.607   6.431  16.396  0.1444 -0.1089 -0.2177
14468TIP3    H164895   5.587   6.379  16.474 -0.3441 -1.7993 -1.3960
14468TIP3    H264896   5.557   6.512  16.407  0.9809  0.1880  1.7171
14469TIP3   OH264897   6.249   5.881  12.753  0.5207  0.0021  0.2167
14469TIP3    H164898   6.180   5.815  12.755  1.0942 -0.6432 -0.8473
14469TIP3    H264899   6.293   5.868  12.669  1.0024  1.3721  0.2352
14470TIP3   OH264900   1.011   0.442  15.624 -0.1449  0.3564 -0.0190
14470TIP3    H164901   1.082   0.506  15.613 -0.0483 -0.0659 -2.3951
14470TIP3    H264902   1.028   0.401  15.708  3.7786 -1.2657 -1.3657
14471TIP3   OH264903   3.162   4.496   5.692 -0.0879 -0.2032 -0.2306
14471TIP3    H164904   3.190   4.434   5.626  0.4656 -0.6372  0.3917
14471TIP3    H264905   3.096   4.450   5.743 -0.2324 -0.0069 -0.2365
14472TIP3   OH264906   4.865   2.601   5.618  0.2598  0.4531 -0.3216
14472TIP3    H164907   4.876   2.695   5.600  1.0731  0.9115  2.2241
14472TIP3    H264908   4.772   2.585   5.605  0.0886  1.6205 -0.6920
14473TIP3   OH264909   5.021   3.729  11.197  0.1826 -0.1776  0.5957
14473TIP3    H164910   5.020   3.760  11.106  0.1390 -1.6433  0.0628
14473TIP3    H264911   4.951   3.663  11.200 -1.2518  1.3404  2.2736
14474TIP3   OH264912   1.572   1.459   2.236 -0.2605 -0.4124 -0.5932
14474TIP3    H164913   1.594   1.390   2.174 -1.6091 -1.2723 -0.1538
14474TIP3    H264914   1.613   1.538   2.199  0.5190 -1.2490 -1.5868
14475TIP3   OH264915   5.415   4.450  12.793 -0.4429 -0.5165 -0.3519
14475TIP3    H164916   5.439   4.466  12.884  0.3462 -1.4773 -0.3655
14475TIP3    H264917   5.485   4.492  12.742  0.0876 -1.4665 -0.4483
14476TIP3   OH264918   6.428   3.092  11.835  0.0642 -0.3308 -0.3995
14476TIP3    H164919   6.355   3.147  11.806  1.2410  2.0392  0.8318
14476TIP3    H264920   6.393   3.044  11.910 -0.8914 -1.0782 -1.2889
14477TIP3   OH264921   2.582   0.530  14.449  0.3633  1.4127  0.0551
14477TIP3    H164922   2.607   0.574  14.367  0.8160  1.5024  0.2386
14477TIP3    H264923   2.663   0.488  14.479  0.2613  1.5982  0.5941
14478TIP3   OH264924   5.349   4.570   0.044  0.3917  0.6886  0.1700
14478TIP3    H164925   5.316   4.522   0.120  0.5398  1.3715  0.6693
14478TIP3    H264926   5.390   4.502  -0.011 -1.5182 -0.1340 -0.3132
14479TIP3   OH264927   2.955   3.693   2.454 -0.5077 -0.4730  0.0017
14479TIP3    H164928   2.938   3.621   2.394  0.7428  0.2814 -1.3199
14479TIP3    H264929   3.026   3.742   2.414  0.0687  0.3413  1.8807
14480TIP3   OH264930   5.869   0.952  14.439 -0.0966 -0.7193  0.1799
14480TIP3    H164931   5.787   0.929  14.483  0.1779  0.6286  1.4910
14480TIP3    H264932   5.933   0.892  14.476 -0.1036 -0.3846  0.7531
14481TIP3   OH264933   3.647   5.036  12.197  0.4515  0.1502 -0.1389
14481TIP3    H164934   3.741   5.021  12.209  0.1645 -1.8665 -0.1230
14481TIP3    H264935   3.639   5.066  12.106  1.2053  1.5475  0.2285
14482TIP3   OH264936   0.707   2.485  16.137  0.1387 -0.1624  0.1824
14482TIP3    H164937   0.788   2.498  16.184  0.2887 -0.4327  0.0030
14482TIP3    H264938   0.647   2.447  16.202  0.3623 -0.5901  0.1458
14483TIP3   OH264939   5.722   4.117  16.163  0.4497  0.5522  0.1949
14483TIP3    H164940   5.729   4.144  16.071  1.2548  0.3634  0.1872
14483TIP3    H264941   5.812   4.122  16.196  0.3446 -0.4445  0.6676
14484TIP3   OH264942   3.673   1.149   1.225 -0.2092 -0.3915 -0.0443
14484TIP3    H164943   3.684   1.141   1.320 -2.7789  0.2908  0.3756
14484TIP3    H264944   3.619   1.074   1.201 -0.6521  0.1575 -0.7659
14485TIP3   OH264945   4.770   3.412  15.677  0.9946  0.2506 -0.2683
14485TIP3    H164946   4.796   3.337  15.732 -1.6536 -1.1800 -0.7918
14485TIP3    H264947   4.707   3.460  15.731 -0.3243 -0.1949 -1.3729
14486TIP3   OH264948   3.797   1.533   0.337 -0.1565 -0.6010  0.3881
14486TIP3    H164949   3.772   1.584   0.259 -1.1396  0.3180  1.2777
14486TIP3    H264950   3.851   1.593   0.388  1.4721 -1.5879 -0.0869
14487TIP3   OH264951   4.281   3.827  11.474 -0.0830  0.0796 -0.5094
14487TIP3    H164952   4.209   3.873  11.516  1.2818  1.0612  0.8828
14487TIP3    H264953   4.342   3.896  11.449  0.6056 -0.7631 -1.2272
14488TIP3   OH264954   2.194   0.866  17.032 -0.1124 -0.3704  0.0475
14488TIP3    H164955   2.201   0.910  16.947  2.7958  0.8944  0.8022
14488TIP3    H264956   2.161   0.934  17.091 -0.5046 -0.7524  0.2772
14489TIP3   OH264957   6.146   1.113   5.519  0.4425 -0.3793 -0.1708
14489TIP3    H164958   6.151   1.034   5.572  2.4804 -0.8575 -0.9865
14489TIP3    H264959   6.094   1.174   5.571  0.0239 -1.7679  1.1021
14490TIP3   OH264960   2.407   3.338  15.244  0.4706  0.1457  0.0342
14490TIP3    H164961   2.469   3.395  15.289 -0.6721 -0.1625  2.0863
14490TIP3    H264962   2.346   3.398  15.201 -0.3211  0.5065  1.6136
14491TIP3   OH264963   6.646   5.120   2.472  0.3265  0.1208 -0.8156
14491TIP3    H164964   6.586   5.056   2.433 -0.3171  0.4440 -0.3827
14491TIP3    H264965   6.588   5.187   2.509  0.9993  1.2553 -1.7617
14492TIP3   OH264966   4.265   6.432   6.015 -0.1521  0.7048  0.9254
14492TIP3    H164967   4.316   6.426   5.934 -3.1803 -1.9076 -1.0633
14492TIP3    H264968   4.222   6.517   6.011 -1.9579 -0.1856 -1.5478
14493TIP3   OH264969   1.519   4.121  16.363 -0.8160  0.3484  0.2660
14493TIP3    H164970   1.458   4.063  16.318  0.8529 -0.4636 -1.0973
14493TIP3    H264971   1.562   4.170  16.293  2.8124 -1.8907  0.6268
14494TIP3   OH264972   1.887   2.639   6.532 -0.1698  0.0493  0.4729
14494TIP3    H164973   1.908   2.562   6.584 -0.7949 -1.7363 -1.7300
14494TIP3    H264974   1.959   2.646   6.470 -0.1412  1.2413  0.6301
14495TIP3   OH264975   3.808   0.067   5.643  0.3567  0.2440  0.1692
14495TIP3    H164976   3.749  -0.003   5.669 -0.2277 -0.3697 -2.5302
14495TIP3    H264977   3.764   0.147   5.669 -0.1725 -0.3046  1.0022
14496TIP3   OH264978   0.253   0.430  13.741  0.5452 -0.4883  0.4497
14496TIP3    H164979   0.194   0.454  13.813 -0.4702  1.4687 -0.9622
14496TIP3    H264980   0.241   0.336  13.731 -3.4189 -0.0605 -0.5870
14497TIP3   OH264981   6.225   5.609   6.797 -0.1509  0.2911  0.0851
14497TIP3    H164982   6.174   5.687   6.819  1.0195  0.6021  1.8788
14497TIP3    H264983   6.292   5.604   6.865  0.3384 -1.8114 -0.4765
14498TIP3   OH264984   1.936   3.562  14.337 -0.3749  0.2546  0.6027
14498TIP3    H164985   1.878   3.620  14.386 -0.4178  1.0407 -0.3438
14498TIP3    H264986   1.996   3.526  14.402 -0.6584  0.9966  1.2821
14499TIP3   OH264987   4.732   6.650  11.079  0.0579  0.0648 -0.7113
14499TIP3    H164988   4.717   6.644  11.173 -2.1175 -0.3495 -1.0334
14499TIP3    H264989   4.743   6.559  11.051  0.4690  0.1714 -0.9035
14500TIP3   OH264990   5.320   4.868   4.427  0.0769 -0.1686 -0.2183
14500TIP3    H164991   5.329   4.776   4.400  0.5406 -0.3436  0.4917
14500TIP3    H264992   5.282   4.912   4.351  0.8848 -0.7352 -0.9693
14501TIP3   OH264993   6.738   5.646  16.936 -0.2639 -0.0745 -0.2369
14501TIP3    H164994   6.742   5.551  16.941 -1.5418 -0.0932  1.0994
14501TIP3    H264995   6.665   5.670  16.994  0.4949  1.7557  0.0260
14502TIP3   OH264996   4.714   1.055   5.847  0.3505  0.2226  0.0058
14502TIP3    H164997   4.679   0.981   5.897 -2.1800  1.8573  0.8302
14502TIP3    H264998   4.782   1.016   5.792  0.8865 -2.2546  2.2192
14503TIP3   OH264999   4.461   2.750  13.270  0.1295  0.0045  0.3493
14503TIP3    H165000   4.388   2.710  13.222 -1.8934  2.2238  1.3638
14503TIP3    H265001   4.434   2.744  13.362  2.6436 -1.6909  1.0810
14504TIP3   OH265002   2.236   3.279  14.141  0.3359  0.4330  0.8927
14504TIP3    H165003   2.303   3.328  14.189  1.0253  0.3633  0.0316
14504TIP3    H265004   2.269   3.189  14.138  0.0018  0.3118  0.8193
14505TIP3   OH265005   5.968   1.408  11.789 -0.2840 -0.3998  0.2108
14505TIP3    H165006   5.981   1.313  11.793 -0.5986 -0.5632 -1.6293
14505TIP3    H265007   5.923   1.422  11.706  1.7457  1.5832 -0.6410
14506TIP3   OH265008   5.073   1.843   1.666 -0.0714 -0.0714 -0.1347
14506TIP3    H165009   5.069   1.747   1.660 -1.6682 -0.0201 -0.3392
14506TIP3    H265010   5.158   1.865   1.628  0.4811 -1.4269  0.2442
14507TIP3   OH265011   2.293   4.273   3.477 -0.1924 -0.0734 -0.2336
14507TIP3    H165012   2.215   4.265   3.421  1.3320 -1.4936 -2.2952
14507TIP3    H265013   2.336   4.352   3.447  0.5460 -0.7539 -1.0179
14508TIP3   OH265014   1.442   4.688   4.470  0.0540  0.0060  0.0341
14508TIP3    H165015   1.493   4.762   4.503 -1.4109  0.9763  0.1951
14508TIP3    H265016   1.467   4.681   4.378  0.6928  0.2587  0.1777
14509TIP3   OH265017   1.677   2.175   2.930 -0.0982  1.4504  0.1594
14509TIP3    H165018   1.594   2.219   2.948 -0.2797  1.3103 -0.3228
14509TIP3    H265019   1.678   2.163   2.835 -0.6253 -0.7055  0.3975
14510TIP3   OH265020   4.288   1.614   3.417 -0.1161  0.6233  0.2724
14510TIP3    H165021   4.294   1.526   3.453 -3.1609  0.7760  1.4975
14510TIP3    H265022   4.294   1.671   3.493 -0.0625  1.3694 -0.2811
14511TIP3   OH265023   2.065   2.975  14.159  0.0456  0.1299 -0.1732
14511TIP3    H165024   2.011   2.984  14.081  1.5025  0.1261 -1.2209
14511TIP3    H265025   2.046   3.054  14.210 -1.5836 -0.2971 -0.0841
14512TIP3   OH265026   4.682   6.180  11.156  0.3022 -0.2042  0.7664
14512TIP3    H165027   4.667   6.111  11.091 -0.8220  0.0659  0.7128
14512TIP3    H265028   4.691   6.133  11.239  1.3490 -0.5264  0.4758
14513TIP3   OH265029   2.030   1.912  11.505 -0.2641 -0.1031 -0.4274
14513TIP3    H165030   2.043   1.948  11.417 -0.9582  2.1626  0.3157
14513TIP3    H265031   2.111   1.933  11.551 -0.1049 -0.8309 -0.3671
14514TIP3   OH265032   0.363   0.817  17.110  0.0431 -0.3289  0.4814
14514TIP3    H165033   0.415   0.765  17.049  1.6779 -1.5766  2.7356
14514TIP3    H265034   0.291   0.758  17.135  0.1676 -0.3585  0.7741
14515TIP3   OH265035   0.862   4.074   0.985  0.0634 -0.9835 -0.0447
14515TIP3    H165036   0.787   4.134   0.980 -1.7857 -2.8640  2.7207
14515TIP3    H265037   0.870   4.039   0.896 -0.5430  1.2160 -1.0618
14516TIP3   OH265038   4.060   6.240   1.883  0.1147  0.0553  0.1788
14516TIP3    H165039   4.111   6.173   1.928  0.4131 -0.5787 -1.0756
14516TIP3    H265040   3.969   6.218   1.902  0.1989 -0.8963 -0.4598
14517TIP3   OH265041   0.491   3.475   1.506  0.0276 -0.2492  0.0393
14517TIP3    H165042   0.535   3.558   1.490 -1.0116  0.0643 -1.3947
14517TIP3    H265043   0.418   3.498   1.563  0.1755 -0.3153  0.2569
14518TIP3   OH265044   4.105   2.285  13.044 -0.1322 -0.7138 -0.0766
14518TIP3    H165045   4.134   2.200  13.077  0.3883 -0.0678  1.1971
14518TIP3    H265046   4.118   2.345  13.117  1.0806  0.8095 -1.4545
14519TIP3   OH265047   0.796   0.682   1.439 -0.4473 -0.6202  0.0659
14519TIP3    H165048   0.810   0.606   1.384 -1.1247 -0.0740 -0.8874
14519TIP3    H265049   0.710   0.667   1.479  0.1398 -1.1262  1.1884
14520TIP3   OH265050   1.968   4.246  16.181 -0.3542 -0.4603  0.0487
14520TIP3    H165051   1.878   4.268  16.204 -0.4985  0.3172 -1.1423
14520TIP3    H265052   1.962   4.157  16.148 -0.4413 -0.9114  1.2318
14521TIP3   OH265053   2.765   0.263   4.245  0.1069 -0.0583  1.4900
14521TIP3    H165054   2.849   0.255   4.290  0.8517 -2.1384 -0.1174
14521TIP3    H265055   2.788   0.290   4.156 -0.7447 -1.9166  0.6570
14522TIP3   OH265056   5.188   3.254  14.866  0.1822 -0.6352  0.5392
14522TIP3    H165057   5.234   3.215  14.793 -0.0661 -1.1378  0.6499
14522TIP3    H265058   5.222   3.344  14.871  0.1625 -0.5817 -0.2175
14523TIP3   OH265059   0.617   5.958  10.948 -0.0739  0.2510 -0.5458
14523TIP3    H165060   0.597   6.049  10.928  0.8981  0.3898 -0.9591
14523TIP3    H265061   0.677   5.931  10.879 -0.6602 -0.8264 -0.6431
14524TIP3   OH265062   2.130   3.560  15.851 -0.0393 -0.0432  0.0710
14524TIP3    H165063   2.196   3.503  15.889 -0.7921  0.2106  1.8389
14524TIP3    H265064   2.049   3.540  15.899 -0.7891  1.0551 -0.6764
14525TIP3   OH265065   0.280   5.634  13.082 -0.3211 -0.0266  0.1232
14525TIP3    H165066   0.373   5.654  13.092 -0.3854  0.1617  0.3593
14525TIP3    H265067   0.238   5.719  13.067 -0.3992 -0.1600 -0.4244
14526TIP3   OH265068   3.336   4.345  16.776  0.2136 -0.1783  0.4194
14526TIP3    H165069   3.244   4.372  16.772  0.1184 -0.6312 -2.3954
14526TIP3    H265070   3.381   4.404  16.716  1.4625 -1.0760  0.4301
14527TIP3   OH265071   3.291   3.603  11.325  0.1816  0.1823  0.3011
14527TIP3    H165072   3.385   3.615  11.310  0.4386 -1.9630 -0.1556
14527TIP3    H265073   3.287   3.542  11.399 -0.8188 -0.8063 -0.5542
14528TIP3   OH265074   0.690   0.871  13.904 -0.2184 -0.3936 -0.0815
14528TIP3    H165075   0.726   0.808  13.842 -0.6338 -0.5115 -0.2077
14528TIP3    H265076   0.600   0.886  13.874 -0.1039  0.3224 -0.1036
14529TIP3   OH265077   2.287   5.068  13.089 -0.4384  0.1624 -0.2706
14529TIP3    H165078   2.380   5.088  13.080 -0.1473 -0.6910  0.5610
14529TIP3    H265079   2.245   5.153  13.102  0.2109  0.5616 -0.6965
14530TIP3   OH265080   4.894   5.794   1.178 -0.2313  0.7480 -0.1265
14530TIP3    H165081   4.826   5.848   1.217 -0.0434  0.5852  0.4399
14530TIP3    H265082   4.854   5.707   1.172 -0.4905  0.9156 -0.9199
14531TIP3   OH265083   2.440   6.172   2.634 -0.3663 -0.4058 -0.1797
14531TIP3    H165084   2.425   6.265   2.618 -0.8459 -0.4711 -0.1026
14531TIP3    H265085   2.535   6.162   2.628 -0.3783 -0.0634 -1.0238
14532TIP3   OH265086   0.087   0.025  11.469 -0.2829  0.3405 -0.0018
14532TIP3    H165087   0.101   0.006  11.562  0.0754  2.0681  0.3274
14532TIP3    H265088   0.050   0.113  11.467 -2.1112 -0.3962 -1.4270
14533TIP3   OH265089   0.234   4.387   6.125  0.0646 -0.1083  0.4183
14533TIP3    H165090   0.237   4.293   6.139  1.4270  0.1308  2.0527
14533TIP3    H265091   0.315   4.420   6.164 -0.3512  1.7423 -0.1645
14534TIP3   OH265092   2.791   4.127   3.104 -0.0950  0.2890 -0.3322
14534TIP3    H165093   2.862   4.090   3.157 -0.4768  0.2200  0.1297
14534TIP3    H265094   2.711   4.101   3.149 -0.4731 -0.6073 -1.4727
14535TIP3   OH265095   6.421   0.728  16.637 -0.0423  0.1477  0.7095
14535TIP3    H165096   6.477   0.796  16.674 -0.3104  0.0308  1.3326
14535TIP3    H265097   6.424   0.743  16.542  0.8932  0.2545  0.7508
14536TIP3   OH265098   1.832   4.586  14.954 -0.8571  0.4892  0.4813
14536TIP3    H165099   1.853   4.668  14.910  0.9496 -1.3684 -2.4939
14536TIP3    H265100   1.777   4.539  14.892 -1.1815 -0.8790  1.7575
14537TIP3   OH265101   5.063   6.770   3.977  0.1822  0.0937  0.0285
14537TIP3    H165102   5.090   6.702   3.914 -0.2105 -1.2129  1.2295
14537TIP3    H265103   5.022   6.838   3.923  1.4176 -0.1635 -1.3039
14538TIP3   OH265104   0.574   3.361  15.807 -0.3449  0.2546  0.4587
14538TIP3    H165105   0.668   3.368  15.792 -0.0917 -0.7519  1.4052
14538TIP3    H265106   0.564   3.363  15.902 -1.0584 -1.6783  0.4864
14539TIP3   OH265107   4.443   4.992  16.580  0.6872  0.1696 -0.1333
14539TIP3    H165108   4.475   4.991  16.490 -1.5047  1.6181 -1.0132
14539TIP3    H265109   4.350   5.010  16.572  0.2638 -0.5027  2.4241
14540TIP3   OH265110   6.739   2.163   0.076  0.1792 -0.2828  0.6494
14540TIP3    H165111   6.812   2.102   0.069  1.9422  1.7371  0.3317
14540TIP3    H265112   6.724   2.193  -0.014 -0.5965 -0.1819  0.8082
14541TIP3   OH265113   6.119   2.430  13.147  0.5980 -0.2562  0.2234
14541TIP3    H165114   6.093   2.342  13.173  1.2228 -0.7809 -0.8756
14541TIP3    H265115   6.169   2.464  13.222  0.6207 -0.9456  0.5246
14542TIP3   OH265116   4.870   6.393   0.854 -0.3553 -0.3770  0.0471
14542TIP3    H165117   4.783   6.430   0.844  0.7954  3.2128  1.6674
14542TIP3    H265118   4.928   6.453   0.807  1.3819 -1.9137  0.0989
14543TIP3   OH265119   0.115   3.467   3.410 -0.2244  0.1259 -0.0024
14543TIP3    H165120   0.138   3.522   3.485 -0.7634 -0.4558  0.6024
14543TIP3    H265121   0.194   3.464   3.357  0.1773  0.5136  0.5632
14544TIP3   OH265122   5.983   4.664   4.174 -0.4981 -0.1241  0.1799
14544TIP3    H165123   5.887   4.662   4.170 -0.5199 -1.8762  0.6633
14544TIP3    H265124   6.004   4.752   4.203 -1.9124  0.6320 -0.9445
14545TIP3   OH265125   5.182   0.863   3.374 -0.4923  0.1949  0.3707
14545TIP3    H165126   5.138   0.908   3.445  1.1419  0.7709  1.0569
14545TIP3    H265127   5.165   0.916   3.296 -0.7746  0.5473  0.6762
14546TIP3   OH265128   3.736   0.345  15.452  0.4235 -0.0799 -0.2358
14546TIP3    H165129   3.808   0.284  15.464  2.4178  1.9580 -1.1067
14546TIP3    H265130   3.706   0.330  15.363  0.2051 -0.4789 -0.0973
14547TIP3   OH265131   5.245   4.934  15.532  0.0022 -0.0023  0.3622
14547TIP3    H165132   5.204   4.852  15.558  0.2639 -0.3844 -0.4037
14547TIP3    H265133   5.189   4.968  15.462  0.3105  0.0996  0.1640
14548TIP3   OH265134   2.669   4.094   2.173  0.6022  0.0819  0.2821
14548TIP3    H165135   2.623   4.065   2.094  1.8399 -0.1359 -0.3759
14548TIP3    H265136   2.710   4.177   2.149 -1.7792  1.8151  1.7438
14549TIP3   OH265137   1.987   2.974  15.725 -0.2581 -0.7735 -0.3671
14549TIP3    H165138   1.901   2.946  15.692 -0.1841 -0.2772 -1.0019
14549TIP3    H265139   2.026   2.894  15.761 -1.0803 -0.9600  0.1460
14550TIP3   OH265140   0.661   3.938  11.493  0.4192 -0.2649  0.1839
14550TIP3    H165141   0.667   3.966  11.584 -0.8801  0.3386  0.1203
14550TIP3    H265142   0.747   3.956  11.456  1.1839 -1.1701  1.4491
14551TIP3   OH265143   3.484   1.417  14.284  0.4347  0.1243 -0.3857
14551TIP3    H165144   3.541   1.367  14.343 -0.9665 -2.3181 -0.9538
14551TIP3    H265145   3.524   1.405  14.198 -0.0698 -0.3303 -0.5658
14552TIP3   OH265146   5.669   6.430   4.547 -0.1100  0.2750  0.2292
14552TIP3    H165147   5.599   6.377   4.584  0.7694  0.2680  1.9951
14552TIP3    H265148   5.725   6.367   4.500 -1.4084  0.3289 -1.4645
14553TIP3   OH265149   0.714   3.072  11.564 -0.0373 -0.1600 -0.0978
14553TIP3    H165150   0.694   2.982  11.536 -0.4869 -0.1801  0.2859
14553TIP3    H265151   0.717   3.068  11.659  3.2624 -0.4692 -0.0991
14554TIP3   OH265152   0.204   6.127  11.331  0.1253  0.2352  0.1574
14554TIP3    H165153   0.287   6.156  11.295  0.9533  0.2833  1.9865
14554TIP3    H265154   0.147   6.116  11.255  1.6174  0.7546 -1.0830
14555TIP3   OH265155   0.749   4.379  12.470  0.0451  0.3128 -0.2492
14555TIP3    H165156   0.767   4.285  12.461  2.1892  0.6908 -0.4753
14555TIP3    H265157   0.697   4.386  12.550  2.2096 -0.8688  1.3643
14556TIP3   OH265158   3.755   0.792  15.747  0.0109 -0.5486 -0.9651
14556TIP3    H165159   3.714   0.730  15.686  0.7438 -2.2812  0.1979
14556TIP3    H265160   3.727   0.762  15.834 -1.4049  2.1499 -0.4109
14557TIP3   OH265161   6.750   4.987  16.525  0.5566  0.2556 -0.0655
14557TIP3    H165162   6.751   4.928  16.449 -0.1247 -0.3002  0.3451
14557TIP3    H265163   6.657   5.001  16.542  0.7120  1.0937  0.1272
14558TIP3   OH265164   6.739   6.706  12.153  0.1838  0.1887 -0.3024
14558TIP3    H165165   6.659   6.759  12.164 -0.6864 -0.7184 -1.8734
14558TIP3    H265166   6.807   6.757  12.196 -0.7211  2.3230 -1.2125
14559TIP3   OH265167   2.115   4.840  13.065 -0.3563  0.2270  0.0514
14559TIP3    H165168   2.186   4.781  13.039 -0.0850  0.5437  0.0559
14559TIP3    H265169   2.159   4.925  13.078 -0.8777  0.6308 -0.7637
14560TIP3   OH265170   4.993   0.508  13.895  0.2449  0.3887 -0.6588
14560TIP3    H165171   5.050   0.580  13.868 -0.2097  1.4069  0.9873
14560TIP3    H265172   5.038   0.429  13.863  2.4220  1.1635  0.3004
14561TIP3   OH265173   1.098   5.227   6.677  0.3607 -0.6077  0.1277
14561TIP3    H165174   1.088   5.224   6.581 -0.6998  0.8426  0.1601
14561TIP3    H265175   1.135   5.313   6.695  2.1164 -1.4891  0.9421
14562TIP3   OH265176   1.557   5.878   6.240  0.5506 -0.3579  0.0278
14562TIP3    H165177   1.556   5.852   6.332 -1.4326 -0.7154 -0.0506
14562TIP3    H265178   1.466   5.898   6.220  1.0019  0.0460 -1.7775
14563TIP3   OH265179   2.101   6.616  15.692 -0.5193 -0.4064 -0.0748
14563TIP3    H165180   2.037   6.548  15.673  1.6944 -2.4567 -0.6488
14563TIP3    H265181   2.179   6.569  15.722  1.6903  1.7132 -2.0287
14564TIP3   OH265182   0.605   4.311   5.417 -0.5655  0.0122 -0.1043
14564TIP3    H165183   0.609   4.250   5.343 -0.6740  0.0007 -0.1004
14564TIP3    H265184   0.522   4.291   5.461 -1.0471  0.7730 -0.6292
14565TIP3   OH265185   4.175   6.723  10.789 -0.0178 -0.1576  0.2529
14565TIP3    H165186   4.153   6.655  10.853 -0.5654 -0.1716  0.0573
14565TIP3    H265187   4.206   6.676  10.713  0.6235 -0.1411  0.4988
14566TIP3   OH265188   6.201   5.204   1.320  0.3491  0.4446 -0.2736
14566TIP3    H165189   6.105   5.211   1.321  0.2698 -0.1425 -1.5362
14566TIP3    H265190   6.230   5.286   1.282  0.3944  0.9047  0.7361
14567TIP3   OH265191   3.857   4.737  14.447  0.5413  0.0809 -0.2445
14567TIP3    H165192   3.863   4.729  14.352 -0.4454 -0.6755 -0.2626
14567TIP3    H265193   3.830   4.650  14.477  0.7455  0.3337  0.7262
14568TIP3   OH265194   0.304   3.475   2.752 -0.5383 -0.3948  0.1195
14568TIP3    H165195   0.285   3.548   2.692  0.9567  1.3301  1.6095
14568TIP3    H265196   0.224   3.465   2.803 -1.0294 -0.3223 -0.6267
14569TIP3   OH265197   0.206   1.932   1.996 -0.0399 -0.1126 -0.0666
14569TIP3    H165198   0.207   2.022   1.962 -1.2520 -0.0630 -0.0368
14569TIP3    H265199   0.296   1.914   2.021  0.2317  1.0749 -0.1419
14570TIP3   OH265200   5.649   2.818   4.783  0.3716  0.0055  0.0997
14570TIP3    H165201   5.566   2.839   4.824  0.0021  0.3718 -0.8068
14570TIP3    H265202   5.627   2.751   4.718  0.5489  0.9841 -1.0028
14571TIP3   OH265203   1.716   4.843  11.052  0.4286  0.2237 -0.4060
14571TIP3    H165204   1.755   4.917  11.100 -1.2726  2.1566 -1.8437
14571TIP3    H265205   1.722   4.868  10.960  1.5590 -2.3757 -1.1256
14572TIP3   OH265206   3.975   3.284   4.847  0.4318  0.2589 -0.0430
14572TIP3    H165207   3.939   3.324   4.768  1.9574 -0.1194 -0.9707
14572TIP3    H265208   3.899   3.244   4.891 -0.5209  0.9770 -0.9966
14573TIP3   OH265209   4.080   0.742  14.432 -0.4080  0.4578  0.0011
14573TIP3    H165210   4.166   0.702  14.417  0.0390  0.9252  1.1700
14573TIP3    H265211   4.040   0.688  14.500 -0.1174  1.5202  1.0400
14574TIP3   OH265212   2.238   4.973   1.850  0.0954  0.3905 -0.6785
14574TIP3    H165213   2.332   4.957   1.851 -0.0637 -1.6552  3.2747
14574TIP3    H265214   2.228   5.066   1.868  1.3098  0.8717 -2.3518
14575TIP3   OH265215   5.226   2.986   4.385  0.6108  0.5259 -0.4620
14575TIP3    H165216   5.209   3.071   4.345 -1.4107 -0.5152 -1.9994
14575TIP3    H265217   5.142   2.960   4.423  1.5222 -0.2435  1.1464
14576TIP3   OH265218   1.495   3.684   0.900  0.0428 -0.0774 -0.1310
14576TIP3    H165219   1.420   3.715   0.849  1.1466  0.2928 -1.6215
14576TIP3    H265220   1.500   3.744   0.974 -0.5521  0.5092 -0.5499
14577TIP3   OH265221   1.913   2.441   1.117 -0.2935  0.5366 -0.5622
14577TIP3    H165222   1.920   2.509   1.051  0.3098  0.3289 -0.7156
14577TIP3    H265223   1.829   2.399   1.099 -0.2639  0.6686 -1.0128
14578TIP3   OH265224   5.121   2.037  12.403  0.0780 -0.1014 -0.0134
14578TIP3    H165225   5.132   2.131  12.418  1.5865 -0.4554  1.4152
14578TIP3    H265226   5.026   2.024  12.401 -0.2854  1.8936 -3.8096
14579TIP3   OH265227   3.056   1.422  15.625  0.2460  0.2307  0.9238
14579TIP3    H165228   3.151   1.412  15.630  0.4052  1.6570  1.1648
14579TIP3    H265229   3.023   1.387  15.708  0.6308  0.3597  1.1311
14580TIP3   OH265230   1.970   0.092  14.630  0.6806 -0.6155 -0.2906
14580TIP3    H165231   2.046   0.090  14.689  0.7311  0.0383 -0.3261
14580TIP3    H265232   2.006   0.068  14.545  1.4155  2.2522 -0.8912
14581TIP3   OH265233   0.680   5.004   5.394  0.2020  0.6078  0.0754
14581TIP3    H165234   0.626   5.044   5.461  1.0557  1.9510  0.0084
14581TIP3    H265235   0.682   5.069   5.323 -0.0424 -0.4394 -0.9270
14582TIP3   OH265236   3.096   2.872   0.584 -0.7315 -0.1418 -0.7406
14582TIP3    H165237   3.111   2.961   0.615  0.0528 -0.4619 -0.1729
14582TIP3    H265238   3.006   2.873   0.552 -1.5603  0.2530  1.4109
14583TIP3   OH265239   3.253   1.987   2.977 -0.4296  0.4722 -0.2463
14583TIP3    H165240   3.244   2.003   2.883  2.1066 -0.9529 -0.8513
14583TIP3    H265241   3.171   1.945   3.003 -0.9653  0.3850 -1.9722
14584TIP3   OH265242   3.168   5.663   6.026 -0.2838  0.4681 -0.2672
14584TIP3    H165243   3.242   5.653   6.085 -0.7464 -1.2089  0.0873
14584TIP3    H265244   3.199   5.630   5.942 -0.3847  0.5514 -0.3379
14585TIP3   OH265245   6.680   2.984   2.500  0.1759 -0.3633 -0.2704
14585TIP3    H165246   6.726   3.045   2.557  0.0033 -1.8537  1.5770
14585TIP3    H265247   6.743   2.964   2.430  0.4311  1.4248 -0.5842
14586TIP3   OH265248   6.092   3.182   1.600 -0.3466 -0.3894 -0.4139
14586TIP3    H165249   6.019   3.219   1.549  0.5238  1.8498 -0.1539
14586TIP3    H265250   6.137   3.258   1.635  1.6162 -1.7561  0.1827
14587TIP3   OH265251   4.036   4.826  16.667 -0.2563 -0.5400 -0.4940
14587TIP3    H165252   4.029   4.739  16.705 -0.4066  0.4398  1.8960
14587TIP3    H265253   3.954   4.838  16.619 -1.5913 -0.6584  1.6279
14588TIP3   OH265254   2.855   1.381  10.461 -0.2358  0.1744 -0.1821
14588TIP3    H165255   2.891   1.299  10.428  0.1057 -0.4749  1.6839
14588TIP3    H265256   2.797   1.355  10.532 -1.3764  1.4758 -0.5753
14589TIP3   OH265257   3.686   2.922   0.763 -0.3005  0.6919 -0.3056
14589TIP3    H165258   3.637   2.870   0.699  0.1841 -0.3764  0.1701
14589TIP3    H265259   3.666   2.881   0.847  0.8006  0.7203 -0.0187
14590TIP3   OH265260   1.318   3.792  16.992  0.2219  0.1470 -0.0005
14590TIP3    H165261   1.223   3.781  16.982  0.3601 -0.6029 -0.6488
14590TIP3    H265262   1.351   3.702  16.996  0.9411  0.4012 -0.1586
14591TIP3   OH265263   1.081   1.390   4.129 -0.2750 -0.0512  0.4252
14591TIP3    H165264   1.043   1.314   4.084  0.1921  0.5504 -1.0572
14591TIP3    H265265   1.015   1.459   4.118  0.9016  0.8224 -1.6282
14592TIP3   OH265266   1.396   1.486   0.277 -0.3992 -0.1622 -0.8910
14592TIP3    H165267   1.474   1.538   0.256 -0.0792 -0.6324 -0.8809
14592TIP3    H265268   1.429   1.397   0.288 -1.2424 -0.8482 -3.2520
14593TIP3   OH265269   1.782   6.557  13.008  0.6490  0.3325  0.6033
14593TIP3    H165270   1.825   6.501  12.943  1.2053 -0.3927  1.5598
14593TIP3    H265271   1.689   6.550  12.988  0.7813 -0.2028  0.1334
14594TIP3   OH265272   2.196   1.288   3.025  0.7482  0.4414  0.1967
14594TIP3    H165273   2.261   1.338   2.976  1.4413 -0.3267  0.3027
14594TIP3    H265274   2.190   1.204   2.979  0.5198  0.1598  0.7256
14595TIP3   OH265275   5.297   5.232  14.793 -0.9548  0.2844 -0.1836
14595TIP3    H165276   5.260   5.193  14.713 -0.6273  0.4936 -0.4390
14595TIP3    H265277   5.341   5.311  14.763  1.0603 -0.7592 -0.1251
14596TIP3   OH265278   6.173   4.281  12.840 -0.5571  0.3606  0.3138
14596TIP3    H165279   6.106   4.312  12.901 -0.5298  0.3257  0.3615
14596TIP3    H265280   6.218   4.211  12.887 -1.3016 -0.4661 -0.1704
14597TIP3   OH265281   4.661   3.189   3.043  0.3520  0.0649 -0.2724
14597TIP3    H165282   4.743   3.235   3.030 -0.6650  1.7251 -1.0608
14597TIP3    H265283   4.625   3.225   3.125  0.6161 -1.0032  0.3340
14598TIP3   OH265284   1.020   2.847   6.263 -0.1774  0.3596 -0.3451
14598TIP3    H165285   1.069   2.856   6.345  1.5632  1.4336 -1.4632
14598TIP3    H265286   1.046   2.762   6.229 -2.7977 -1.2708  1.3271
14599TIP3   OH265287   6.389   5.918  15.073 -0.7514 -0.0533 -0.2606
14599TIP3    H165288   6.299   5.910  15.043 -0.7171  0.1257 -0.4164
14599TIP3    H265289   6.396   6.009  15.103 -0.9793 -0.4263  0.9391
14600TIP3   OH265290   6.417   0.498   3.926 -0.1313 -0.2472 -0.5095
14600TIP3    H165291   6.490   0.442   3.900 -1.1837 -0.8504 -2.3314
14600TIP3    H265292   6.434   0.582   3.883  0.4185  0.2536  0.6174
14601TIP3   OH265293   0.507   5.502   1.096 -0.8395 -0.1469 -0.1958
14601TIP3    H165294   0.484   5.482   1.187 -0.0893  1.2326  0.3304
14601TIP3    H265295   0.540   5.420   1.061 -0.5517 -0.5544  0.9727
14602TIP3   OH265296   1.523   0.900  11.049  0.1152 -0.3782 -0.2722
14602TIP3    H165297   1.585   0.880  10.979  0.0405  0.6134 -0.6423
14602TIP3    H265298   1.576   0.941  11.117 -0.0119 -0.1800 -0.2904
14603TIP3   OH265299   0.175   5.734  14.289  0.1460 -0.4499 -0.2128
14603TIP3    H165300   0.152   5.794  14.218  1.0037  0.4607  0.2688
14603TIP3    H265301   0.193   5.790  14.364 -3.1502 -1.4711  1.5113
14604TIP3   OH265302   5.777   0.293   4.186 -0.2409  0.4508 -0.4014
14604TIP3    H165303   5.766   0.217   4.243 -2.4254  2.7543  2.5751
14604TIP3    H265304   5.723   0.274   4.110  0.5422 -1.5742 -0.5177
14605TIP3   OH265305   2.400   6.086   0.927 -0.4546 -0.1483  0.3523
14605TIP3    H165306   2.340   6.158   0.911 -0.4100 -0.1632  0.1062
14605TIP3    H265307   2.485   6.128   0.939  0.1493 -0.2863 -2.7233
14606TIP3   OH265308   4.233   3.985  15.894  0.4041  0.1033 -0.5249
14606TIP3    H165309   4.182   4.055  15.936  0.6237  1.1722 -1.9726
14606TIP3    H265310   4.213   3.907  15.945 -2.0817  0.6329 -0.5843
14607TIP3   OH265311   2.996   2.814  11.439 -0.5943  0.3115  0.3918
14607TIP3    H165312   3.075   2.799  11.490 -0.9315  0.3675  0.9400
14607TIP3    H265313   3.022   2.798  11.348 -0.1593 -0.4722  0.6485
14608TIP3   OH265314   6.632   6.513  11.644  0.3072 -0.2867 -0.4686
14608TIP3    H165315   6.621   6.607  11.631  1.8940 -0.2962 -2.2114
14608TIP3    H265316   6.570   6.491  11.715 -0.7464  1.8678 -0.6524
14609TIP3   OH265317   2.762   2.992  17.057 -1.0080  0.0940 -0.3389
14609TIP3    H165318   2.852   3.020  17.070 -1.4245  1.3431  0.0889
14609TIP3    H265319   2.752   2.914  17.112 -0.3407  0.2788  0.0461
14610TIP3   OH265320   3.068   3.121  13.269 -0.3415 -0.0346  0.2023
14610TIP3    H165321   3.034   3.085  13.351  1.2970 -0.7360  0.6242
14610TIP3    H265322   3.025   3.069  13.201 -1.8029  0.6292  0.5904
14611TIP3   OH265323   5.979   1.740   2.292  0.3790 -0.3459  0.5199
14611TIP3    H165324   5.936   1.800   2.230  1.6583  3.1421  2.6897
14611TIP3    H265325   6.030   1.682   2.236 -0.2873  1.1084 -1.7846
14612TIP3   OH265326   5.514   0.650  16.386  0.1371 -0.5962  0.5045
14612TIP3    H165327   5.478   0.613  16.467  0.4115 -0.9505  0.4656
14612TIP3    H265328   5.606   0.668  16.407 -0.1464  0.6661  0.7261
14613TIP3   OH265329   3.865   1.198  16.190 -0.1485 -0.1341  0.2772
14613TIP3    H165330   3.779   1.183  16.230  0.1451  1.4514  1.6408
14613TIP3    H265331   3.895   1.280  16.229  1.9084 -0.5434 -0.3152
14614TIP3   OH265332   1.092   0.595   5.980 -0.1662  0.4760  0.0243
14614TIP3    H165333   1.007   0.622   6.015 -0.1149  0.1272  0.4331
14614TIP3    H265334   1.119   0.667   5.923 -0.9369  0.3894 -0.4588
14615TIP3   OH265335   2.532   3.188  12.254 -0.7324 -0.0345 -0.0728
14615TIP3    H165336   2.535   3.284  12.257  0.4276 -0.0519 -0.5043
14615TIP3    H265337   2.503   3.163  12.342 -0.6190  0.6902  0.1774
14616TIP3   OH265338   4.891   3.011  14.761 -0.0925 -0.2703  0.1530
14616TIP3    H165339   4.920   3.101  14.771 -2.9858  0.9476 -1.1600
14616TIP3    H265340   4.833   2.996  14.835 -0.8319 -0.4809 -0.4522
14617TIP3   OH265341   3.265   2.579  12.056  0.0614 -0.2232 -0.6442
14617TIP3    H165342   3.221   2.512  12.005  0.0886 -1.5673  1.0175
14617TIP3    H265343   3.284   2.537  12.140  1.4051  1.4058 -0.0761
14618TIP3   OH265344   0.285   2.346   2.353 -0.2286  0.4231 -0.4103
14618TIP3    H165345   0.204   2.311   2.315 -0.1246  0.7561 -0.9611
14618TIP3    H265346   0.269   2.441   2.359 -0.3599  0.3438  0.6847
14619TIP3   OH265347   4.039   0.369   3.567 -0.2531  0.4840  0.4716
14619TIP3    H165348   4.020   0.425   3.492  0.6521 -0.1911 -0.2926
14619TIP3    H265349   4.120   0.404   3.603  1.6493 -1.6012 -1.4194
14620TIP3   OH265350   5.399   0.859  14.457  0.2746 -0.4594 -0.1316
14620TIP3    H165351   5.352   0.802  14.517  1.7263 -1.2752  0.2902
14620TIP3    H265352   5.332   0.894  14.399 -0.9486 -0.8694  0.9852
14621TIP3   OH265353   6.424   3.005   0.036 -0.0282  0.4601  0.2153
14621TIP3    H165354   6.422   3.063  -0.040  0.3949  0.5455  0.2649
14621TIP3    H265355   6.502   2.951   0.023  1.3472  1.9691  1.6605
14622TIP3   OH265356   1.733   0.225   5.126  0.2124 -0.3823  0.4597
14622TIP3    H165357   1.689   0.233   5.210 -0.1896 -0.0988  0.2222
14622TIP3    H265358   1.669   0.255   5.062  0.6775 -0.1526  0.0969
14623TIP3   OH265359   0.547   3.455  16.998  0.4038 -0.7296  0.3065
14623TIP3    H165360   0.507   3.430  17.081 -1.0425  1.1907  0.2391
14623TIP3    H265361   0.630   3.497  17.022 -0.4898  0.7542  0.8874
14624TIP3   OH265362   0.918   0.052  12.663 -0.5896 -0.6900 -0.2966
14624TIP3    H165363   1.003   0.094  12.672 -0.8330 -0.0784 -0.6747
14624TIP3    H265364   0.894   0.066  12.571 -1.1788 -0.6812 -0.1512
14625TIP3   OH265365   6.612   5.022  16.918  0.1461  0.3198  0.0760
14625TIP3    H165366   6.559   4.987  16.846 -1.2069  0.3922  1.0132
14625TIP3    H265367   6.552   5.027  16.992  1.5241  0.1947  1.2398
14626TIP3   OH265368   5.169   0.029   5.740 -0.1320  0.0836  0.2841
14626TIP3    H165369   5.211   0.083   5.807  3.5841 -0.9722 -0.9392
14626TIP3    H265370   5.198   0.067   5.657 -2.7809  0.0034 -0.7802
14627TIP3   OH265371   1.331   0.221  13.912 -0.0053  0.5812 -0.3937
14627TIP3    H165372   1.282   0.287  13.962 -0.0779  1.4142 -1.5219
14627TIP3    H265373   1.378   0.171  13.978 -1.1141  0.8099  0.6001
14628TIP3   OH265374   1.258   1.596  15.384 -0.0255 -0.2284  0.1018
14628TIP3    H165375   1.184   1.618  15.441  0.3899  1.7805 -0.0619
14628TIP3    H265376   1.220   1.592  15.296  0.0036  0.6022  0.0430
14629TIP3   OH265377   4.148   6.040   3.378  0.1324 -0.0056 -0.2117
14629TIP3    H165378   4.064   5.996   3.388  0.0297  0.1578 -0.3464
14629TIP3    H265379   4.211   5.983   3.421 -0.3051  0.7143  1.4700
14630TIP3   OH265380   2.598   3.617   2.790 -0.0062  0.1001 -0.0818
14630TIP3    H165381   2.614   3.670   2.712 -0.1346 -1.3516 -1.1353
14630TIP3    H265382   2.679   3.623   2.841  0.5795  0.0288 -0.9800
14631TIP3   OH265383   5.532   3.231   5.157  0.3943 -0.0888 -0.2460
14631TIP3    H165384   5.532   3.135   5.157 -1.3849 -0.1385 -0.6880
14631TIP3    H265385   5.563   3.255   5.070 -0.9823 -0.3559 -0.8502
14632TIP3   OH265386   0.354   5.742   9.963 -0.0699 -0.3709 -0.3162
14632TIP3    H165387   0.333   5.648   9.964 -0.9832 -0.1817 -0.2061
14632TIP3    H265388   0.436   5.749  10.012  1.8246 -1.4824 -3.0605
14633TIP3   OH265389   5.003   1.129  13.555 -0.8742 -0.0447  0.0099
14633TIP3    H165390   4.975   1.139  13.464 -2.3932  1.3249  0.5767
14633TIP3    H265391   5.061   1.053  13.554 -1.8488 -0.8335 -1.8831
14634TIP3   OH265392   5.070   1.729   5.127 -0.1002 -0.1930 -0.1074
14634TIP3    H165393   4.995   1.675   5.151 -2.0059  2.4684  0.3729
14634TIP3    H265394   5.089   1.780   5.206  1.0882  0.4555 -0.7776
14635TIP3   OH265395   3.456   1.680  12.556 -0.6632  0.5753 -0.7559
14635TIP3    H165396   3.489   1.763  12.521 -1.0223  1.3521  0.6843
14635TIP3    H265397   3.367   1.701  12.586 -0.1141  0.1622  1.2944
14636TIP3   OH265398   1.288   2.162  13.649 -0.3652  0.3397 -0.4076
14636TIP3    H165399   1.235   2.209  13.585 -0.6319 -0.8390 -1.0942
14636TIP3    H265400   1.225   2.108  13.697 -0.1368  1.0350  0.7111
14637TIP3   OH265401   2.956   6.730   1.965  0.2124 -0.2437 -0.0160
14637TIP3    H165402   2.951   6.638   1.988  1.6339 -0.4909 -0.5777
14637TIP3    H265403   3.034   6.762   2.011 -0.9024  0.9935  1.1245
14638TIP3   OH265404   0.112   2.884   5.529 -0.0758  0.3737  0.3149
14638TIP3    H165405   0.171   2.960   5.530 -0.4367  0.6620 -0.1117
14638TIP3    H265406   0.039   2.911   5.584 -0.9242  0.9300 -1.0290
14639TIP3   OH265407   4.449   1.615  16.778 -0.3922 -0.3840 -0.3996
14639TIP3    H165408   4.514   1.685  16.792 -0.5725 -0.1590 -0.6643
14639TIP3    H265409   4.492   1.555  16.716 -0.3961 -0.2882 -0.4963
14640TIP3   OH265410   6.214   6.392  15.343 -0.0904 -0.0247 -0.1005
14640TIP3    H165411   6.245   6.465  15.290  1.1623 -0.4661  0.0045
14640TIP3    H265412   6.147   6.430  15.400  1.9866  1.5287  1.4421
14641TIP3   OH265413   1.078   2.815  13.033 -0.0088 -0.0652 -0.1130
14641TIP3    H165414   1.027   2.749  12.985  1.4551 -0.5926 -0.9935
14641TIP3    H265415   1.043   2.811  13.122 -1.2403 -0.6713 -0.6002
14642TIP3   OH265416   4.297   3.146   5.494  0.0284  0.2776 -0.0143
14642TIP3    H165417   4.241   3.181   5.563  0.3304  1.2891 -0.2748
14642TIP3    H265418   4.240   3.137   5.418  0.2452  1.5376 -0.3508
14643TIP3   OH265419   0.834   4.166  11.860 -0.0577 -0.0402 -0.1128
14643TIP3    H165420   0.853   4.247  11.813 -1.6706 -0.0995 -0.9523
14643TIP3    H265421   0.764   4.189  11.920 -0.8583 -0.8933 -0.6900
14644TIP3   OH265422   6.207   0.181   0.345  0.2090  0.4175  0.3529
14644TIP3    H165423   6.211   0.108   0.283  2.5781  0.4189  0.4272
14644TIP3    H265424   6.121   0.220   0.330 -1.2304 -2.4201  0.3781
14645TIP3   OH265425   6.408   2.934  13.988  0.3960  0.3340 -0.1874
14645TIP3    H165426   6.387   3.015  14.036 -1.0523  1.7703 -3.0350
14645TIP3    H265427   6.453   2.964  13.909  0.0875 -1.6846 -1.1871
14646TIP3   OH265428   2.947   0.582   4.350  0.4530 -0.5782 -0.0797
14646TIP3    H165429   2.951   0.588   4.255  0.0048 -0.7594 -0.1106
14646TIP3    H265430   2.957   0.488   4.369  0.1805 -0.5830  0.0361
14647TIP3   OH265431   2.389   2.154   5.514 -0.4165  0.2261  0.6025
14647TIP3    H165432   2.476   2.191   5.528  0.3881 -0.6777 -1.6322
14647TIP3    H265433   2.332   2.231   5.504  0.3724  0.8373  0.7196
14648TIP3   OH265434   3.412   2.533   1.087  0.3595  0.4734  0.2252
14648TIP3    H165435   3.324   2.528   1.123  0.9482 -2.4371  1.6205
14648TIP3    H265436   3.469   2.507   1.160  2.4073  2.2302 -0.6380
14649TIP3   OH265437   4.557   3.510   4.312  0.7026  0.3951  0.0636
14649TIP3    H165438   4.542   3.474   4.224 -0.8004 -1.4606  0.9971
14649TIP3    H265439   4.486   3.573   4.323 -0.8713 -1.4240  0.9206
14650TIP3   OH265440   6.468   3.798   6.478 -0.4226  0.3872  0.3199
14650TIP3    H165441   6.397   3.777   6.539 -1.1353  2.0422  0.0921
14650TIP3    H265442   6.432   3.866   6.421  0.7994  0.0737 -0.8816
14651TIP3   OH265443   0.468   6.362  11.828  0.2610  0.1655 -0.3239
14651TIP3    H165444   0.438   6.392  11.742  0.7652 -0.0952 -0.5913
14651TIP3    H265445   0.554   6.323  11.811  0.7524  0.8780  0.4221
14652TIP3   OH265446   3.803   6.360  15.630  0.3281  0.9344  0.4894
14652TIP3    H165447   3.728   6.396  15.582 -0.5331 -1.2149  0.1272
14652TIP3    H265448   3.787   6.266  15.634  2.9854  0.3974  0.4752
14653TIP3   OH265449   3.016   2.697   3.183  0.2891  0.3649  0.1217
14653TIP3    H165450   2.962   2.772   3.205  1.0448  0.8507  0.3506
14653TIP3    H265451   3.093   2.734   3.141  1.0765 -0.2000  1.0145
14654TIP3   OH265452   0.523   5.407  11.972  0.6445  1.0027 -0.5436
14654TIP3    H165453   0.607   5.438  12.004 -0.0736  0.7017  1.8034
14654TIP3    H265454   0.495   5.341  12.035 -0.6574 -0.0458 -2.1164
14655TIP3   OH265455   4.074   5.153   1.308  0.5935  0.4755  0.6639
14655TIP3    H165456   4.022   5.074   1.292 -0.4659  1.0127  1.2815
14655TIP3    H265457   4.042   5.185   1.393  1.4050  1.2544  0.6866
14656TIP3   OH265458   3.436   5.145   0.253 -0.0867 -0.5412  0.4949
14656TIP3    H165459   3.377   5.081   0.294  1.7907 -2.4279  0.4093
14656TIP3    H265460   3.385   5.182   0.181 -1.0113 -2.4596  0.1117
14657TIP3   OH265461   0.395   6.170   3.851 -0.8799  0.6062 -0.0408
14657TIP3    H165462   0.428   6.247   3.897  1.7071 -0.5655  0.2633
14657TIP3    H265463   0.334   6.129   3.913 -2.8385  2.6687 -0.4707
14658TIP3   OH265464   3.396   1.345   4.058  0.5060 -0.2315 -0.6363
14658TIP3    H165465   3.457   1.359   3.986  1.9733 -1.5311  0.2941
14658TIP3    H265466   3.350   1.429   4.067  0.4751  0.0466 -2.8530
14659TIP3   OH265467   0.181   0.222  17.085 -0.5012 -0.4513 -0.8743
14659TIP3    H165468   0.169   0.208  17.179  0.0357  0.4430 -0.6637
14659TIP3    H265469   0.179   0.134  17.047 -0.1998 -0.8594  0.0352
14660TIP3   OH265470   6.680   3.867  16.168 -0.3427  0.1312  0.0777
14660TIP3    H165471   6.682   3.893  16.261  1.0278  2.0020 -0.4078
14660TIP3    H265472   6.759   3.815  16.156 -0.0243  0.6645 -0.2084
14661TIP3   OH265473   5.821   5.384  13.247  0.6731  0.0128  0.4367
14661TIP3    H165474   5.863   5.470  13.244  0.0368  0.3191  0.1843
14661TIP3    H265475   5.761   5.384  13.172  1.5772 -1.1282 -0.3267
14662TIP3   OH265476   3.673   1.055   0.282  0.8232 -0.2406  0.0638
14662TIP3    H165477   3.646   1.075   0.372  1.3733 -0.8437  0.3668
14662TIP3    H265478   3.729   1.128   0.257  0.2112  0.2196 -0.0028
14663TIP3   OH265479   5.735   5.160   3.020  0.3437  0.4002 -0.1117
14663TIP3    H165480   5.802   5.137   3.085  1.1833 -0.8919 -1.3622
14663TIP3    H265481   5.668   5.207   3.070 -0.1619 -2.4625  2.1655
14664TIP3   OH265482   3.777   1.247   2.478  0.6278  0.1422 -0.0703
14664TIP3    H165483   3.796   1.256   2.385 -1.2914 -2.4705 -0.8481
14664TIP3    H265484   3.698   1.298   2.492  0.4560 -0.1240 -0.0658
14665TIP3   OH265485   6.762   0.255   6.209  0.0585  0.1515 -0.0655
14665TIP3    H165486   6.752   0.339   6.254  1.0350  1.1284 -1.5713
14665TIP3    H265487   6.786   0.279   6.119  0.7669 -1.7429 -0.4251
14666TIP3   OH265488   5.795   4.231   1.126  0.0403 -0.3926 -0.0844
14666TIP3    H165489   5.760   4.162   1.184 -0.0295 -0.6544 -0.4313
14666TIP3    H265490   5.781   4.196   1.038  1.3916 -0.6064 -0.2312
14667TIP3   OH265491   3.615   5.087  12.550 -0.1699  0.3440 -0.3951
14667TIP3    H165492   3.701   5.125  12.532 -0.4148 -0.0844 -2.8159
14667TIP3    H265493   3.581   5.138  12.623  0.9918  2.3619 -1.1825
14668TIP3   OH265494   1.565   5.752  14.014 -0.2134 -0.4748 -0.1446
14668TIP3    H165495   1.538   5.671  13.972 -0.2394  0.1226 -1.3200
14668TIP3    H265496   1.654   5.767  13.982 -0.4002  0.2231 -0.3523
14669TIP3   OH265497   4.588   4.523  11.529  0.0021 -0.4536  0.6379
14669TIP3    H165498   4.641   4.480  11.462 -0.1439 -1.6228  1.2528
14669TIP3    H265499   4.502   4.531  11.489 -0.1826 -1.4814  0.7912
14670TIP3   OH265500   4.148   3.901  12.514  0.1447  0.6049 -0.1785
14670TIP3    H165501   4.076   3.845  12.543 -2.5492  3.7074 -0.3286
14670TIP3    H265502   4.205   3.908  12.590 -0.5339 -0.6906  0.4738
14671TIP3   OH265503   2.801   4.486   4.380  0.3755 -0.2671  0.2611
14671TIP3    H165504   2.795   4.521   4.468  0.2441  0.0398  0.1320
14671TIP3    H265505   2.797   4.391   4.391  0.6217 -0.2367  0.6025
14672TIP3   OH265506   6.434   2.230  16.303  0.2160  0.4230  0.0482
14672TIP3    H165507   6.434   2.305  16.244  0.0180  1.4874  1.3493
14672TIP3    H265508   6.386   2.261  16.380  0.8915 -0.7553  0.9689
14673TIP3   OH265509   1.879   5.165   4.704 -0.4600 -0.4294 -0.5635
14673TIP3    H165510   1.811   5.225   4.734  0.0107 -0.3991  0.4917
14673TIP3    H265511   1.848   5.078   4.730 -0.6110 -0.5320 -1.0770
14674TIP3   OH265512   6.466   6.546   5.327 -0.2439  0.1403  0.5756
14674TIP3    H165513   6.464   6.591   5.412 -0.5006 -2.3780  1.9893
14674TIP3    H265514   6.446   6.455   5.347  0.5824 -0.7299 -2.1096
14675TIP3   OH265515   0.030   1.009   0.799  0.7696  0.2662 -0.0545
14675TIP3    H165516   0.023   1.059   0.718  0.1960  0.0673 -0.1315
14675TIP3    H265517   0.114   0.963   0.792  0.8282  0.4284 -0.4287
14676TIP3   OH265518   2.854   5.691  12.615  0.4987  0.6975 -0.9489
14676TIP3    H165519   2.822   5.745  12.688  1.1371  0.2934 -0.3554
14676TIP3    H265520   2.948   5.684  12.630  0.4765 -0.3198 -1.1810
14677TIP3   OH265521   2.028   1.446  14.825 -0.3740 -0.3537 -0.0816
14677TIP3    H165522   2.021   1.524  14.880 -0.6721 -1.0443  0.8738
14677TIP3    H265523   2.119   1.417  14.835  0.5920  1.3716 -2.5756
14678TIP3   OH265524   5.983   4.318  12.046  0.5641 -0.2456 -0.0734
14678TIP3    H165525   5.975   4.230  12.008 -0.5551 -0.4569  0.5871
14678TIP3    H265526   5.976   4.303  12.141  1.9237  0.4073  0.1476
14679TIP3   OH265527   3.204   1.942   1.884 -0.0521  0.1225  0.0552
14679TIP3    H165528   3.247   1.934   1.799  0.1428  0.6436  0.0992
14679TIP3    H265529   3.251   1.881   1.941 -0.1234 -0.1588 -0.1841
14680TIP3   OH265530   0.991   5.681   5.991 -0.0736  0.0562 -0.3043
14680TIP3    H165531   1.083   5.686   6.014 -0.3216 -2.1763  1.6051
14680TIP3    H265532   0.981   5.738   5.914  2.1122  3.2111  1.5545
14681TIP3   OH265533   5.022   2.867   2.174 -0.3127  0.2369  0.1616
14681TIP3    H165534   4.998   2.881   2.082 -0.7201 -0.9858  0.0680
14681TIP3    H265535   4.964   2.797   2.204 -1.2154  1.6262  1.8088
14682TIP3   OH265536   0.459   6.208   0.162  0.1736  0.1440  0.0055
14682TIP3    H165537   0.514   6.210   0.083  1.5731  0.1828  0.9356
14682TIP3    H265538   0.514   6.247   0.230 -1.1471  0.4603  0.9244
14683TIP3   OH265539   2.082   1.918   1.688 -0.5254 -0.3585 -0.0688
14683TIP3    H165540   2.116   2.008   1.689 -1.6350  0.1386 -1.8452
14683TIP3    H265541   2.124   1.876   1.763  0.7543  1.3658  0.2599
14684TIP3   OH265542   0.249   5.648   3.189  0.4596 -0.3812  0.1527
14684TIP3    H165543   0.267   5.731   3.144 -0.6655  0.4235  1.1363
14684TIP3    H265544   0.258   5.581   3.120 -1.6554  0.8464 -1.4288
14685TIP3   OH265545   0.282   6.483  11.976 -0.2114 -0.0018  0.3445
14685TIP3    H165546   0.344   6.419  11.941  2.1866  0.9715  2.5504
14685TIP3    H265547   0.272   6.548  11.906  2.0147  0.2897  0.2395
14686TIP3   OH265548   5.140   2.300   1.653  0.0498 -0.1812  0.3827
14686TIP3    H165549   5.181   2.276   1.569 -3.4262  1.2976 -1.9846
14686TIP3    H265550   5.085   2.225   1.674  0.1796 -0.1497  0.8357
14687TIP3   OH265551   5.466   1.103   0.197  0.3204 -0.3292 -0.3869
14687TIP3    H165552   5.411   1.096   0.275  2.9332  0.1695  1.6405
14687TIP3    H265553   5.463   1.196   0.174 -0.3091 -0.4473 -0.8245
14688TIP3   OH265554   3.484   3.914   1.196  0.4363 -0.8517 -0.4262
14688TIP3    H165555   3.511   3.899   1.105  0.7179  1.3846 -0.7675
14688TIP3    H265556   3.517   4.001   1.217 -0.1647 -1.0635  1.6429
14689TIP3   OH265557   5.718   1.762  16.653  0.3869 -0.0662 -0.2282
14689TIP3    H165558   5.626   1.788  16.661 -0.0459 -1.7071  0.4387
14689TIP3    H265559   5.745   1.741  16.743  1.0910 -0.6041 -0.5565
14690TIP3   OH265560   4.629   6.490  14.395 -0.0642 -0.2331  0.0644
14690TIP3    H165561   4.724   6.489  14.405 -0.1015  2.5158  1.6362
14690TIP3    H265562   4.595   6.496  14.484 -1.6073  0.6141 -0.5320
14691TIP3   OH265563   3.941   4.412  13.959 -0.6056  0.4101  0.3808
14691TIP3    H165564   3.945   4.336  13.901  0.1530  1.1184 -0.5350
14691TIP3    H265565   3.848   4.434  13.965 -0.8768 -0.8575  1.0334
14692TIP3   OH265566   1.717   0.963   1.496 -0.2242 -0.1259 -0.5872
14692TIP3    H165567   1.808   0.969   1.468 -0.0284  0.3877  0.1351
14692TIP3    H265568   1.699   0.869   1.498 -0.3047 -0.1969 -2.5711
14693TIP3   OH265569   2.490   0.539  11.742 -0.1771  0.1191  0.0169
14693TIP3    H165570   2.428   0.467  11.737  0.5018 -0.3911 -2.2656
14693TIP3    H265571   2.496   0.572  11.652  3.0442 -0.0865  0.0431
14694TIP3   OH265572   4.734   3.298  16.846  0.1908  0.1126 -0.6478
14694TIP3    H165573   4.676   3.347  16.788 -0.6714 -0.9972 -0.7434
14694TIP3    H265574   4.711   3.328  16.934 -2.0064 -1.7726 -0.5086
14695TIP3   OH265575   2.363   4.620   2.327  0.0422  0.1221 -0.3412
14695TIP3    H165576   2.372   4.709   2.359  0.5379  1.9008 -4.6837
14695TIP3    H265577   2.435   4.610   2.265 -2.6852 -1.3971 -3.6130
14696TIP3   OH265578   1.341   4.936  11.263 -0.1298  0.1359 -0.1308
14696TIP3    H165579   1.334   4.843  11.288 -2.7201  0.0522 -0.9039
14696TIP3    H265580   1.268   4.950  11.204  0.4643  2.6128 -0.3582
14697TIP3   OH265581   5.553   5.847  13.775 -0.0620 -0.1949  0.0125
14697TIP3    H165582   5.546   5.767  13.827 -0.5555  0.4880  1.0285
14697TIP3    H265583   5.472   5.849  13.723  0.8692 -1.3858 -1.5924
14698TIP3   OH265584   1.783   6.728  11.989  0.1005 -0.6863  0.2855
14698TIP3    H165585   1.828   6.801  12.030  0.1119 -0.4520 -0.1328
14698TIP3    H265586   1.710   6.707  12.048  0.5904 -0.8904  0.8280
14699TIP3   OH265587   0.872   1.824  10.861  0.9370  0.0928 -0.1223
14699TIP3    H165588   0.861   1.818  10.955  0.5366 -0.0332 -0.1784
14699TIP3    H265589   0.784   1.838  10.827  1.1389  0.6584 -0.4350
14700TIP3   OH265590   5.516   1.489   5.001 -0.2599 -0.2738 -0.3364
14700TIP3    H165591   5.519   1.518   5.092  0.5133 -0.1793 -0.3809
14700TIP3    H265592   5.529   1.394   5.006 -0.8247 -0.3475 -0.3087
14701TIP3   OH265593   1.314   1.636   6.349  0.1025  0.1261  0.2841
14701TIP3    H165594   1.225   1.606   6.328 -0.2124  1.0499  0.2534
14701TIP3    H265595   1.368   1.557   6.343 -0.5601 -0.2761 -0.6233
14702TIP3   OH265596   5.922   1.012   2.423  0.2694 -0.2487  0.1671
14702TIP3    H165597   5.997   1.068   2.401 -2.0248  2.7854 -0.5396
14702TIP3    H265598   5.905   1.032   2.515  0.2987 -0.9289  0.3220
14703TIP3   OH265599   4.066   1.058  12.745  0.4037 -0.0425 -0.0459
14703TIP3    H165600   4.106   1.129  12.695 -1.8657  0.2583 -1.5870
14703TIP3    H265601   4.129   0.986  12.739  0.1127 -0.2073 -3.9118
14704TIP3   OH265602   4.929   0.464  16.940 -0.6269 -0.1929  0.0848
14704TIP3    H165603   4.944   0.549  16.898  2.2224 -0.1134  1.0316
14704TIP3    H265604   4.887   0.485  17.023 -3.3655 -0.1017 -1.2259
14705TIP3   OH265605   5.887   6.790  14.009 -0.0031 -0.0656 -0.3600
14705TIP3    H165606   5.907   6.856  13.943  1.3966  0.4233  0.5246
14705TIP3    H265607   5.853   6.840  14.083 -0.9166 -0.5478 -0.4339
14706TIP3   OH265608   5.273   1.233   3.737  0.3827  0.2467  0.1990
14706TIP3    H165609   5.276   1.221   3.832  2.3000  0.6899  0.2313
14706TIP3    H265610   5.275   1.328   3.725  1.1542  0.1788 -0.2834
14707TIP3   OH265611   0.287   6.666  13.568 -0.0877 -0.0826 -0.3270
14707TIP3    H165612   0.349   6.608  13.613  0.0517 -0.9176 -1.5323
14707TIP3    H265613   0.340   6.708  13.500  0.1789  2.6399  1.3867
14708TIP3   OH265614   6.338   3.433   4.313 -0.3215 -0.7241  0.3560
14708TIP3    H165615   6.264   3.377   4.336 -0.7470 -0.6298 -0.7497
14708TIP3    H265616   6.305   3.489   4.244  0.5560 -0.1323  0.4025
14709TIP3   OH265617   6.077   1.019   0.022 -0.7133  0.3957  0.4262
14709TIP3    H165618   6.082   1.100  -0.028  0.6808  0.4422  0.6185
14709TIP3    H265619   6.051   0.952  -0.042 -0.0463  0.6573 -0.1223
14710TIP3   OH265620   4.451   6.000   2.250 -0.3266 -0.1155  0.4251
14710TIP3    H165621   4.510   5.925   2.261  1.2628  1.1726  0.9714
14710TIP3    H265622   4.437   6.032   2.339  0.3255  1.1942  0.0778
14711TIP3   OH265623   1.281   0.535  15.072 -0.5047 -0.7350 -0.1318
14711TIP3    H165624   1.227   0.484  15.133  0.4284 -0.5615  0.8761
14711TIP3    H265625   1.290   0.621  15.113 -0.0518 -0.5414 -0.6230
14712TIP3   OH265626   0.476   0.093  10.824 -0.1358  0.1750  0.4223
14712TIP3    H165627   0.532   0.125  10.895  0.7299  2.1913 -1.0772
14712TIP3    H265628   0.537   0.059  10.759 -0.9155 -1.4827  0.5001
14713TIP3   OH265629   6.336   0.762   2.683 -0.6083 -0.2822 -0.2929
14713TIP3    H165630   6.256   0.796   2.723  0.6146  2.8779 -0.2244
14713TIP3    H265631   6.395   0.746   2.757 -0.6697 -1.2677 -0.4397
14714TIP3   OH265632   3.721   2.817  12.870 -0.2352 -0.5443 -0.3621
14714TIP3    H165633   3.738   2.911  12.878  2.0953 -0.9391 -0.2601
14714TIP3    H265634   3.660   2.798  12.941 -2.5035  1.2216 -1.6739
14715TIP3   OH265635   3.600   2.063   1.523 -0.2859  0.0646  0.0715
14715TIP3    H165636   3.573   2.048   1.432 -0.3661  0.7908 -0.0301
14715TIP3    H265637   3.633   2.154   1.523 -1.0573  0.3513  0.9522
14716TIP3   OH265638   5.685   0.024   3.503 -0.6803  0.3680  0.1199
14716TIP3    H165639   5.760   0.079   3.527  1.9435 -2.5209 -0.8454
14716TIP3    H265640   5.663  -0.023   3.584 -1.7530  1.4416  0.4849
14717TIP3   OH265641   6.405   2.657  11.857  0.6238 -0.4455  0.5018
14717TIP3    H165642   6.327   2.681  11.806  0.5628 -1.1294  0.2608
14717TIP3    H265643   6.421   2.566  11.833  1.5516 -0.2805  0.4887
14718TIP3   OH265644   3.869   2.122  15.324  0.4926  0.5543 -0.1166
14718TIP3    H165645   3.937   2.131  15.390 -0.4695  1.9263  0.7309
14718TIP3    H265646   3.826   2.039  15.345  0.7946  0.5286  0.4009
14719TIP3   OH265647   6.507   5.987  16.449 -0.3533  0.0707 -0.0441
14719TIP3    H165648   6.481   6.020  16.363 -0.9136 -0.9751 -0.2858
14719TIP3    H265649   6.570   5.917  16.430  0.3576  0.5642  0.4432
14720TIP3   OH265650   6.773   6.140   0.392 -0.0399  0.3044  0.2644
14720TIP3    H165651   6.856   6.109   0.429  0.4130  1.6981  0.4775
14720TIP3    H265652   6.792   6.229   0.362 -1.7954  1.1554  1.5034
14721TIP3   OH265653   1.169   1.812  16.652 -0.0483 -0.5868  0.0126
14721TIP3    H165654   1.189   1.889  16.599  1.6075 -1.9659 -1.5134
14721TIP3    H265655   1.236   1.748  16.626 -1.9914 -2.9058  0.4273
14722TIP3   OH265656   4.831   5.773   0.864  0.3557  0.3138 -0.4756
14722TIP3    H165657   4.766   5.838   0.889 -0.0789  0.4554 -1.8662
14722TIP3    H265658   4.847   5.723   0.944  0.8505  2.2211  0.6819
14723TIP3   OH265659   1.260   6.403   3.214 -0.4897 -0.5729  0.4026
14723TIP3    H165660   1.181   6.408   3.159 -0.4381  0.6565  0.4151
14723TIP3    H265661   1.229   6.367   3.297 -0.8113 -1.2102  0.0171
14724TIP3   OH265662   1.800   3.265   3.628  0.0969 -0.3915 -0.4750
14724TIP3    H165663   1.886   3.222   3.631 -1.1313 -3.0752 -0.8830
14724TIP3    H265664   1.768   3.248   3.539 -1.0780  0.1056 -0.1649
14725TIP3   OH265665   5.595   2.278  13.442  0.3615 -0.9695  0.1305
14725TIP3    H165666   5.519   2.241  13.397  0.0731 -1.0489  0.6754
14725TIP3    H265667   5.587   2.373  13.429  1.4081 -1.0798 -1.7602
14726TIP3   OH265668   1.440   3.868   1.102  0.4763 -0.2408  0.1294
14726TIP3    H165669   1.354   3.890   1.139  0.6266 -1.6391  1.3916
14726TIP3    H265670   1.483   3.818   1.171  1.5524 -1.2692 -1.2458
14727TIP3   OH265671   1.525   1.368  14.663  0.1357  0.3789 -0.2080
14727TIP3    H165672   1.459   1.437  14.653  0.5698  0.7216 -0.8302
14727TIP3    H265673   1.603   1.414  14.692  1.1458  0.5907 -2.9357
14728TIP3   OH265674   0.776   2.278  15.920  0.5820 -0.1250  0.1007
14728TIP3    H165675   0.747   2.314  15.837 -2.4879 -1.3204  0.5264
14728TIP3    H265676   0.726   2.325  15.986  0.2819 -1.6522  1.0024
14729TIP3   OH265677   2.660   5.715  12.373  0.0636 -0.1681  0.6681
14729TIP3    H165678   2.666   5.640  12.314 -0.9697 -0.2475  0.6478
14729TIP3    H265679   2.665   5.676  12.460 -0.0981 -0.2278  0.6521
14730TIP3   OH265680   2.303   5.885   1.251  0.5206  0.0149 -0.0787
14730TIP3    H165681   2.338   5.846   1.170 -1.4305 -1.1296 -0.4251
14730TIP3    H265682   2.280   5.974   1.226 -0.5294 -0.4841 -0.9503
14731TIP3   OH265683   4.908   1.171   0.726  0.0968 -0.3489  0.3160
14731TIP3    H165684   4.979   1.200   0.784 -1.6211 -0.1598  2.4788
14731TIP3    H265685   4.830   1.173   0.782 -1.7497  0.1126 -2.1242
14732TIP3   OH265686   4.051   1.560  13.164 -0.1820 -0.3311 -0.3888
14732TIP3    H165687   4.008   1.475  13.152  0.0556 -0.6706  0.9801
14732TIP3    H265688   3.979   1.622  13.172 -0.4818 -0.9054  1.9535
14733TIP3   OH265689   4.270   0.041   4.166 -0.4626  0.7383  0.0400
14733TIP3    H165690   4.249  -0.012   4.090 -1.0821  1.8601 -0.5921
14733TIP3    H265691   4.348  -0.001   4.204  0.5661  0.8137 -1.8727
14734TIP3   OH265692   3.722   3.161  15.657 -0.2857  0.9208  0.4019
14734TIP3    H165693   3.736   3.176  15.751  0.1499  0.8411  0.3484
14734TIP3    H265694   3.707   3.067  15.650 -2.6782  1.2036  0.6946
14735TIP3   OH265695   5.388   1.711   2.431 -0.3658 -0.6299 -0.3686
14735TIP3    H165696   5.416   1.796   2.464 -0.1122 -0.9718  0.3341
14735TIP3    H265697   5.403   1.715   2.336  1.4220 -0.5422 -0.1186
14736TIP3   OH265698   3.289   1.305   0.162  0.4872  0.7106 -0.2193
14736TIP3    H165699   3.219   1.315   0.098 -0.0393  0.6309  0.3379
14736TIP3    H265700   3.343   1.234   0.128 -1.8581 -2.0005  1.2143
14737TIP3   OH265701   5.773   0.197   6.137  0.1716  0.4640  0.3424
14737TIP3    H165702   5.717   0.142   6.192  0.3108 -0.7338 -0.6689
14737TIP3    H265703   5.862   0.163   6.152 -0.1179 -2.8705 -3.6966
14738TIP3   OH265704   3.890   2.755   0.718 -0.0989  0.0032 -0.3563
14738TIP3    H165705   3.912   2.785   0.630  0.9526  0.0181 -0.1091
14738TIP3    H265706   3.848   2.829   0.759  2.2365  1.1390  0.1692
14739TIP3   OH265707   1.286   6.819   2.898  0.1929  0.6101  0.4175
14739TIP3    H165708   1.311   6.911   2.890 -0.1428  0.7505  0.9702
14739TIP3    H265709   1.213   6.819   2.960 -0.1631  0.0326  0.0102
14740TIP3   OH265710   3.312   1.723  16.773  0.3017  0.9516  0.2871
14740TIP3    H165711   3.347   1.645  16.731  0.3177  0.8912  0.4115
14740TIP3    H265712   3.252   1.761  16.709 -1.0248 -0.1003  0.8685
14741TIP3   OH265713   6.219   5.515  15.951  0.3171 -0.0917 -0.7127
14741TIP3    H165714   6.277   5.557  15.888 -1.4128  1.2261 -1.4978
14741TIP3    H265715   6.163   5.458  15.898 -0.1994 -0.0841 -0.1817
14742TIP3   OH265716   4.603   0.336  15.716  0.2322  0.3764  0.3953
14742TIP3    H165717   4.554   0.255  15.733 -0.0937  0.5494  0.2833
14742TIP3    H265718   4.608   0.378  15.802  1.6744 -0.4597  0.7522
14743TIP3   OH265719   1.440   6.709   2.252  0.5184 -0.0428 -0.2127
14743TIP3    H165720   1.361   6.751   2.219  1.0129  1.2413  0.1947
14743TIP3    H265721   1.408   6.633   2.301 -0.6903  1.7788  1.9963
14744TIP3   OH265722   3.547   0.377   6.135  0.0285  0.4214 -0.0715
14744TIP3    H165723   3.621   0.354   6.191  1.6702  1.3085 -1.7680
14744TIP3    H265724   3.470   0.367   6.191  1.3979 -0.6903  1.7060
14745TIP3   OH265725   6.653   4.222  13.116  0.6029 -0.5358 -0.2653
14745TIP3    H165726   6.691   4.275  13.186  0.9236  0.5138 -1.2163
14745TIP3    H265727   6.558   4.226  13.132  0.7304 -1.5107  0.9319
14746TIP3   OH265728   5.433   0.531   3.898 -0.3584 -0.0181  0.1429
14746TIP3    H165729   5.380   0.576   3.963  0.0399 -0.8580  1.0721
14746TIP3    H265730   5.513   0.584   3.891  0.5726 -1.0509  2.0051
14747TIP3   OH265731   6.599   3.774   1.785 -0.3095 -0.8015  0.3972
14747TIP3    H165732   6.588   3.687   1.823 -1.5971  0.4274  3.0985
14747TIP3    H265733   6.530   3.781   1.719 -1.2187 -1.2972  1.2685
14748TIP3   OH265734   3.380   0.281  14.309  0.2826 -0.3140 -0.2657
14748TIP3    H165735   3.342   0.212  14.363 -0.5352 -0.2998 -0.8090
14748TIP3    H265736   3.311   0.304  14.246  1.0153  0.0441 -0.9658
14749TIP3   OH265737   5.772   5.755  14.889 -0.2632  0.1780  0.0535
14749TIP3    H165738   5.811   5.700  14.958 -0.5859  0.1955  0.2518
14749TIP3    H265739   5.802   5.716  14.807 -1.3736 -0.9524  0.1709
14750TIP3   OH265740   6.109   0.032  12.680 -0.5050  0.1247  0.0818
14750TIP3    H165741   6.125   0.000  12.769 -1.4103 -1.1076 -0.1553
14750TIP3    H265742   6.101   0.126  12.689  0.9351  0.1905  1.0584
14751TIP3   OH265743   2.921   5.096  11.477  0.1013  0.6046  0.2747
14751TIP3    H165744   2.922   5.000  11.477 -0.7090  0.5856 -0.7033
14751TIP3    H265745   2.968   5.120  11.556  2.8652 -0.5808 -0.8689
14752TIP3   OH265746   3.029   1.591   1.933  0.0288 -0.2854  0.6541
14752TIP3    H165747   3.014   1.499   1.956  0.0706 -0.8824 -1.4473
14752TIP3    H265748   3.110   1.589   1.882 -0.2160  0.8489  0.1989
14753TIP3   OH265749   0.923   1.643   0.180 -0.4534 -0.1498  0.1103
14753TIP3    H165750   0.986   1.662   0.249 -2.1986  2.9499  1.0670
14753TIP3    H265751   0.937   1.712   0.115 -3.0029  0.9048  0.5670
14754TIP3   OH265752   4.165   6.786  13.960 -0.0899  0.0548  0.2231
14754TIP3    H165753   4.127   6.871  13.938 -0.2357  0.1700  0.8944
14754TIP3    H265754   4.089   6.729  13.976 -0.0045 -0.3465 -0.7108
14755TIP3   OH265755   3.254   3.968   0.921 -0.2366  0.3053 -0.2371
14755TIP3    H165756   3.212   3.899   0.870 -0.6641  0.4442 -0.0798
14755TIP3    H265757   3.250   4.045   0.865  1.7776 -0.1683 -1.1273
14756TIP3   OH265758   1.805   3.003   5.837 -0.2928  0.1539 -0.5984
14756TIP3    H165759   1.764   2.984   5.752  0.8287  0.6485 -1.2698
14756TIP3    H265760   1.800   3.098   5.845  1.6008  0.3273 -1.1722
14757TIP3   OH265761   1.682   3.490  14.597 -0.3684 -0.3750  0.2661
14757TIP3    H165762   1.639   3.432  14.535  0.7007 -0.8776 -0.0268
14757TIP3    H265763   1.639   3.575  14.584 -0.3447 -0.5319 -0.9722
14758TIP3   OH265764   6.324   2.802   5.108 -0.1835  0.3165  0.0718
14758TIP3    H165765   6.337   2.802   5.202 -2.5525 -0.3060  0.4865
14758TIP3    H265766   6.238   2.843   5.096 -0.1074  0.0220 -1.7736
14759TIP3   OH265767   1.689   3.499  13.683  1.0075  0.4700 -0.2938
14759TIP3    H165768   1.665   3.491  13.591  1.0284  1.4266 -0.3885
14759TIP3    H265769   1.684   3.409  13.717 -2.3798  0.4954 -0.3736
14760TIP3   OH265770   3.550   1.359  16.474  0.0007  0.1972 -0.2900
14760TIP3    H165771   3.530   1.363  16.381 -1.5382  1.1787  0.0491
14760TIP3    H265772   3.644   1.340  16.478  0.1497  0.4538 -2.0244
14761TIP3   OH265773   4.564   0.774   5.588  0.3749 -0.8111  0.0065
14761TIP3    H165774   4.528   0.847   5.639 -5.2757 -1.8358 -1.7887
14761TIP3    H265775   4.613   0.816   5.518 -2.6092  1.4630 -0.9392
14762TIP3   OH265776   5.252   6.658  10.612 -0.0855 -0.4201  0.1969
14762TIP3    H165777   5.244   6.748  10.644 -4.1455 -0.0882 -1.0890
14762TIP3    H265778   5.188   6.609  10.664  0.0920 -1.9400 -0.9677
14763TIP3   OH265779   5.033   1.396   1.089 -0.0698 -0.3706  0.8711
14763TIP3    H165780   5.048   1.474   1.143 -1.6859 -0.5770  1.6916
14763TIP3    H265781   5.011   1.327   1.152 -0.5955 -0.9883  0.0391
14764TIP3   OH265782   1.879   0.846  15.329 -0.8774 -0.1753 -0.2435
14764TIP3    H165783   1.854   0.800  15.249 -2.1427  1.9515 -1.1473
14764TIP3    H265784   1.823   0.924  15.331  1.8486  1.9328  0.5799
14765TIP3   OH265785   5.411   2.778  14.912 -0.5071 -0.5487 -0.0285
14765TIP3    H165786   5.435   2.804  15.002 -0.6247  0.0687 -0.1707
14765TIP3    H265787   5.439   2.687  14.906  1.0977 -0.1059  0.0734
14766TIP3   OH265788   4.706   1.812  14.559  0.1592  0.1524  0.4020
14766TIP3    H165789   4.719   1.860  14.641  1.2926 -0.2206  0.4516
14766TIP3    H265790   4.612   1.795  14.557 -0.0635  1.1877  1.0455
14767TIP3   OH265791   3.719   5.382  14.609  0.3774 -0.1734 -0.2317
14767TIP3    H165792   3.688   5.443  14.542 -0.0797 -1.1733 -0.9589
14767TIP3    H265793   3.813   5.400  14.616 -0.0900  2.0996  1.1727
14768TIP3   OH265794   1.386   6.225  15.052 -0.1555  0.3685 -0.1303
14768TIP3    H165795   1.340   6.184  15.125 -1.1807  2.3616  0.4093
14768TIP3    H265796   1.353   6.179  14.975  0.0923 -0.9995  0.5497
14769TIP3   OH265797   3.085   4.185  10.996 -0.2879 -0.0460 -0.2304
14769TIP3    H165798   3.051   4.126  10.928  2.1920 -0.6414 -1.0756
14769TIP3    H265799   3.159   4.229  10.954  1.3408 -0.4105  2.0382
14770TIP3   OH265800   3.900   6.604   1.067  0.1230 -0.0849  0.4117
14770TIP3    H165801   3.852   6.598   1.150  0.2715 -1.1803  0.4332
14770TIP3    H265802   3.975   6.545   1.078  0.5124  0.2738 -0.2615
14771TIP3   OH265803   5.033   2.905   1.603 -0.2393 -0.5183 -0.0447
14771TIP3    H165804   5.006   2.894   1.512 -1.2987  0.9846  0.0538
14771TIP3    H265805   5.129   2.910   1.600 -0.3330  0.9793 -1.2699
14772TIP3   OH265806   1.630   5.410  15.426  0.3993 -0.3304  0.2324
14772TIP3    H165807   1.681   5.414  15.346 -0.4097  0.9277 -0.2427
14772TIP3    H265808   1.634   5.318  15.452  2.2747 -0.4024 -0.1672
14773TIP3   OH265809   6.180   4.101  10.565  0.5212 -0.0421 -0.7464
14773TIP3    H165810   6.266   4.113  10.524  2.3328  2.5659  3.2305
14773TIP3    H265811   6.184   4.012  10.601  0.8549 -0.5388 -1.9514
14774TIP3   OH265812   3.028   3.133  17.083  0.0030 -0.3091  0.3802
14774TIP3    H165813   3.079   3.177  17.016  1.3330 -1.7660  0.3796
14774TIP3    H265814   2.995   3.204  17.139  1.5166  0.7314  0.0129
14775TIP3   OH265815   2.831   0.464  11.694 -0.1412 -0.2978  0.2837
14775TIP3    H165816   2.764   0.459  11.626 -0.7404 -0.7671  0.8908
14775TIP3    H265817   2.801   0.535  11.751 -0.5453 -1.0085  0.9809
14776TIP3   OH265818   1.432   1.693  14.897 -0.4155  0.5956 -0.3998
14776TIP3    H165819   1.392   1.707  14.982 -0.7054 -1.0804 -0.2232
14776TIP3    H265820   1.478   1.775  14.878  1.1186  0.4166  2.1503
14777TIP3   OH265821   4.548   0.503  10.460  0.5343  0.5233  0.1552
14777TIP3    H165822   4.637   0.524  10.433  0.7265  1.0091  1.1053
14777TIP3    H265823   4.496   0.578  10.431  0.5381  0.4931  0.0728
14778TIP3   OH265824   1.163   5.050   4.393  0.5879  0.0281  0.1796
14778TIP3    H165825   1.214   5.127   4.366 -1.8288  2.2264  1.4264
14778TIP3    H265826   1.084   5.054   4.340  0.0256 -1.1036  0.8946
14779TIP3   OH265827   3.382   4.772  13.584  0.1692 -0.2472  0.6948
14779TIP3    H165828   3.365   4.682  13.557  0.1189  0.2805 -1.2308
14779TIP3    H265829   3.468   4.769  13.625  1.6077 -0.7712 -2.0958
14780TIP3   OH265830   4.918   0.039  15.008  0.1908 -0.1004 -0.0683
14780TIP3    H165831   4.831   0.079  15.004 -0.0133 -0.4583  0.6423
14780TIP3    H265832   4.972   0.096  14.954 -0.4676  0.1630 -0.4721
14781TIP3   OH265833   5.803   1.252  13.974  0.1562 -0.7964 -0.1965
14781TIP3    H165834   5.793   1.302  13.894 -0.3301 -0.9565 -0.2419
14781TIP3    H265835   5.832   1.165  13.945  2.0710 -0.2461 -0.0426
14782TIP3   OH265836   2.442   2.023  14.332  0.1059  0.4140  0.0236
14782TIP3    H165837   2.497   2.101  14.329  2.1576 -0.9778 -0.7723
14782TIP3    H265838   2.365   2.046  14.280  0.4170  2.0550  0.2243
14783TIP3   OH265839   3.627   3.208   5.876 -0.2166  0.4456  0.1786
14783TIP3    H165840   3.566   3.160   5.932  1.4144 -1.4935  0.4441
14783TIP3    H265841   3.697   3.236   5.935  1.8588 -2.1907 -0.8153
14784TIP3   OH265842   4.442   0.088   0.577  0.2387 -0.0428 -0.0069
14784TIP3    H165843   4.409   0.120   0.661 -0.3374 -1.5385  0.3642
14784TIP3    H265844   4.463   0.168   0.528 -2.4834  0.9589  0.3017
14785TIP3   OH265845   4.206   4.713   4.645  0.0415  0.2865 -0.1087
14785TIP3    H165846   4.121   4.728   4.604  0.0257  0.1859 -0.1136
14785TIP3    H265847   4.219   4.788   4.703  0.5515  0.9999 -1.1155
14786TIP3   OH265848   2.161   4.181   4.182  0.2407 -0.2433 -0.1830
14786TIP3    H165849   2.209   4.145   4.107  0.8927  0.1631  0.0378
14786TIP3    H265850   2.224   4.181   4.254  0.1193  0.9291 -0.0695
14787TIP3   OH265851   5.675   2.738  15.362 -0.8042  0.1399 -0.0529
14787TIP3    H165852   5.671   2.812  15.423  0.1325 -1.2540  1.7812
14787TIP3    H265853   5.766   2.710  15.363 -1.1500 -1.0868 -0.6465
14788TIP3   OH265854   1.717   1.805   0.024 -0.1542 -1.0090 -0.1103
14788TIP3    H165855   1.710   1.900   0.014 -1.3047 -1.0221  0.4514
14788TIP3    H265856   1.807   1.785  -0.004  0.6181  0.4301  1.1729
14789TIP3   OH265857   1.491   4.025   1.967 -0.1321  0.0485  0.4416
14789TIP3    H165858   1.459   4.091   1.906  1.1235 -0.5829 -0.9566
14789TIP3    H265859   1.411   3.986   2.003 -0.9381  0.0669 -1.2193
14790TIP3   OH265860   0.327   1.055  11.600 -0.0876  0.3165  0.3869
14790TIP3    H165861   0.405   1.008  11.627 -0.6408 -0.6539  0.3258
14790TIP3    H265862   0.274   1.061  11.679 -0.6651 -0.4642  0.0744
14791TIP3   OH265863   3.052   6.154  11.838 -0.1611  0.0550  0.6764
14791TIP3    H165864   3.056   6.144  11.743  0.7110  0.3968  0.6688
14791TIP3    H265865   3.080   6.244  11.854 -5.3213  1.9841  0.9278
14792TIP3   OH265866   1.991   3.464  16.478  0.0048  0.0368 -0.2288
14792TIP3    H165867   2.087   3.471  16.478  0.1045 -1.1534 -0.4433
14792TIP3    H265868   1.964   3.512  16.556  0.8455 -0.3809  0.3370
14793TIP3   OH265869   2.826   5.674   5.040 -0.3883  0.7566 -0.0604
14793TIP3    H165870   2.767   5.598   5.042 -1.5654  1.6680  0.7386
14793TIP3    H265871   2.831   5.698   4.947  0.7864 -0.8449 -0.4740
14794TIP3   OH265872   4.582   4.070  14.646 -0.1755  0.1669 -0.8579
14794TIP3    H165873   4.667   4.081  14.604 -0.7474  1.7416 -1.6571
14794TIP3    H265874   4.520   4.069  14.574 -0.8912 -0.5804 -0.2533
14795TIP3   OH265875   0.062   3.607  11.609 -0.2882  0.3538 -0.2236
14795TIP3    H165876   0.092   3.526  11.650  2.1553  0.4862 -1.5540
14795TIP3    H265877  -0.004   3.579  11.545 -1.5562 -0.2149  1.2707
14796TIP3   OH265878   3.179   4.780  16.351  0.2066  0.4447  0.9643
14796TIP3    H165879   3.208   4.728  16.276  0.4326 -0.0320  1.3764
14796TIP3    H265880   3.085   4.764  16.357  0.2974 -0.0166  1.1646
14797TIP3   OH265881   6.382   5.390   5.301  0.1091  0.0844 -0.1379
14797TIP3    H165882   6.396   5.481   5.326 -1.4561 -0.0611  1.5431
14797TIP3    H265883   6.435   5.340   5.363  2.0211 -0.1917 -1.8826
14798TIP3   OH265884   4.514   4.341   1.117  0.3450 -0.1288  0.0148
14798TIP3    H165885   4.514   4.350   1.212 -3.6937  2.6545  0.0326
14798TIP3    H265886   4.559   4.420   1.086  1.1687 -0.7557 -0.4141
14799TIP3   OH265887   0.344   5.827   2.665 -0.0288  0.5876 -0.1855
14799TIP3    H165888   0.264   5.806   2.712  0.0450  0.1234 -0.2600
14799TIP3    H265889   0.330   5.916   2.631  0.1910  1.2035  1.2766
14800TIP3   OH265890   3.499   1.184  15.438  0.2617  0.3804  0.3355
14800TIP3    H165891   3.554   1.117  15.479 -0.6555  1.5280  3.8144
14800TIP3    H265892   3.498   1.162  15.345  0.6587 -3.9418  1.1686
14801TIP3   OH265893   3.664   2.642   3.659  0.2547 -0.3388  0.2038
14801TIP3    H165894   3.634   2.578   3.724 -4.5616  1.5592  0.2209
14801TIP3    H265895   3.694   2.716   3.711 -1.2806  0.2327  0.3112
14802TIP3   OH265896   3.612   1.224   2.170 -0.2658 -0.1239 -0.1946
14802TIP3    H165897   3.604   1.254   2.079  0.2003 -0.4850 -0.3573
14802TIP3    H265898   3.594   1.302   2.223 -0.5780  0.0785 -0.5960
14803TIP3   OH265899   6.561   1.967  15.850 -0.0997  0.2741 -0.4842
14803TIP3    H165900   6.647   1.949  15.812 -0.1139 -0.5599 -0.1312
14803TIP3    H265901   6.500   1.955  15.777  0.0767  0.8058 -0.7191
14804TIP3   OH265902   0.607   2.403  14.275 -0.0544  0.5512 -0.1212
14804TIP3    H165903   0.521   2.443  14.261 -0.9075 -0.4438  1.9426
14804TIP3    H265904   0.604   2.321  14.225 -1.0289 -0.3602  1.3721
14805TIP3   OH265905   4.243   3.323  12.414  0.0791  0.3079 -0.2077
14805TIP3    H165906   4.177   3.392  12.421 -1.8501 -1.4912  0.5887
14805TIP3    H265907   4.252   3.307  12.320 -0.3544  0.8282 -0.3388
14806TIP3   OH265908   4.779   1.700  10.987 -0.0178 -0.0022 -0.2493
14806TIP3    H165909   4.749   1.609  10.996  1.0323 -0.3034  0.3369
14806TIP3    H265910   4.858   1.704  11.040  0.0361  1.2235 -0.4071
14807TIP3   OH265911   0.788   0.762   4.658  0.6282  0.3093  0.4922
14807TIP3    H165912   0.767   0.669   4.651  0.8013  0.3718 -1.2316
14807TIP3    H265913   0.824   0.785   4.573  0.8594  1.8992  0.9882
14808TIP3   OH265914   5.083   4.327  11.202  0.0892 -0.3686 -0.0249
14808TIP3    H165915   5.073   4.318  11.108 -0.2265 -1.7625  0.1127
14808TIP3    H265916   5.171   4.294  11.221  1.0073  1.8908 -0.0334
14809TIP3   OH265917   3.029   6.524   4.466 -0.1436  0.2025 -0.2715
14809TIP3    H165918   2.937   6.519   4.491  0.0362  2.3752  1.1216
14809TIP3    H265919   3.041   6.615   4.438  1.5507 -0.0742 -0.5391
14810TIP3   OH265920   6.122   0.573   2.042 -0.0076  0.2074 -0.0089
14810TIP3    H165921   6.194   0.518   2.074 -0.4889 -0.8270 -0.6417
14810TIP3    H265922   6.144   0.661   2.072  1.1336 -0.2140  0.4615
14811TIP3   OH265923   1.969   6.467   5.296  0.3241  0.7023  0.6068
14811TIP3    H165924   2.058   6.494   5.272 -0.0044  2.1078  0.8526
14811TIP3    H265925   1.912   6.520   5.239 -0.3683  0.3147  0.9278
14812TIP3   OH265926   6.120   4.168   6.498  0.3829  0.3016  0.0757
14812TIP3    H165927   6.095   4.257   6.473  1.4181  0.4795 -0.3852
14812TIP3    H265928   6.068   4.149   6.576 -0.3786  1.0323 -0.2346
14813TIP3   OH265929   2.417   2.380  12.174  0.2174 -0.2446  0.0005
14813TIP3    H165930   2.391   2.346  12.088 -0.2568 -1.1197  0.4840
14813TIP3    H265931   2.389   2.314  12.236  0.4111  0.4566  0.8578
14814TIP3   OH265932   1.584   5.725   3.112  0.0066 -0.0321 -0.1919
14814TIP3    H165933   1.615   5.698   3.026  0.9648  2.2169 -0.6038
14814TIP3    H265934   1.493   5.697   3.114  0.8810 -3.3446 -0.4609
14815TIP3   OH265935   0.178   0.269   6.699  0.1659  0.6799 -0.0619
14815TIP3    H165936   0.104   0.326   6.683 -0.1769  0.4067  0.5290
14815TIP3    H265937   0.254   0.319   6.668 -0.2577  0.9506 -0.6843
14816TIP3   OH265938   6.062   5.579   0.267 -0.0864  0.5666  0.3308
14816TIP3    H165939   6.030   5.599   0.179 -1.8415 -0.0978  0.7903
14816TIP3    H265940   6.113   5.499   0.256 -1.0839 -0.0391  0.0591
14817TIP3   OH265941   6.063   0.702   3.900  0.3325 -0.3806 -0.0127
14817TIP3    H165942   6.026   0.641   3.964 -0.3180 -1.7357 -1.6232
14817TIP3    H265943   6.076   0.783   3.950 -0.7362 -1.1833  1.6742
14818TIP3   OH265944   2.660   0.460   5.601 -0.2613  0.2815 -0.0702
14818TIP3    H165945   2.664   0.371   5.567 -1.5323 -0.2129  1.0130
14818TIP3    H265946   2.744   0.472   5.646 -0.9585 -1.1976  1.7171
14819TIP3   OH265947   6.145   4.818  13.518 -0.0068  0.3741 -0.2162
14819TIP3    H165948   6.086   4.882  13.558 -0.4370  0.5616 -1.1115
14819TIP3    H265949   6.185   4.865  13.445  2.0364  0.5602  0.9680
14820TIP3   OH265950   2.664   2.701   3.035 -0.3299 -0.2570 -0.5364
14820TIP3    H165951   2.754   2.725   3.014  0.1663 -1.3275  0.2535
14820TIP3    H265952   2.622   2.784   3.058 -0.1875  0.5693 -2.9953
14821TIP3   OH265953   5.966   2.139   3.977  0.3431  0.0509 -0.8114
14821TIP3    H165954   5.913   2.218   3.972 -0.3016 -0.3434 -0.4246
14821TIP3    H265955   5.920   2.075   3.923  0.0108 -0.5186  0.1200
14822TIP3   OH265956   3.442   4.834   4.169  0.3624 -0.0012 -0.4643
14822TIP3    H165957   3.492   4.878   4.100  1.7313  1.2851  1.2603
14822TIP3    H265958   3.387   4.903   4.207  0.5795 -0.3785  0.5646
14823TIP3   OH265959   4.210   5.506  15.251 -0.0812  0.0427  0.4015
14823TIP3    H165960   4.235   5.494  15.342  0.8861  0.5270  0.2194
14823TIP3    H265961   4.202   5.601  15.241  0.6814  0.0526 -0.2227
14824TIP3   OH265962   2.967   5.951   4.421 -0.0079  0.1850 -0.0251
14824TIP3    H165963   3.053   5.923   4.451 -0.6478 -1.9270 -0.0075
14824TIP3    H265964   2.981   6.040   4.388  1.8815  0.3966  1.1861
14825TIP3   OH265965   1.597   2.797   1.276 -0.1235  0.5889 -0.8170
14825TIP3    H165966   1.661   2.727   1.287  0.8180  1.8318  4.1372
14825TIP3    H265967   1.648   2.878   1.285 -1.7192  1.8673 -2.4451
14826TIP3   OH265968   5.964   3.805   3.343  0.1780 -0.2119 -0.3199
14826TIP3    H165969   5.902   3.823   3.414 -2.6294  0.0203 -2.6814
14826TIP3    H265970   5.939   3.719   3.310 -0.5970  0.8878 -2.8640
14827TIP3   OH265971   3.564   1.797   5.528 -0.1573 -0.0468 -0.6319
14827TIP3    H165972   3.570   1.734   5.599  1.1507 -1.4284 -1.9086
14827TIP3    H265973   3.650   1.838   5.524  0.0705 -0.6028 -1.9389
14828TIP3   OH265974   2.679   5.650  13.463 -0.1521 -0.7690  0.8052
14828TIP3    H165975   2.659   5.590  13.391  2.2017 -1.3754  0.5893
14828TIP3    H265976   2.728   5.722  13.424 -2.1971  0.9486  1.2166
14829TIP3   OH265977   3.482   3.296  15.322  0.0252 -0.3360  0.0588
14829TIP3    H165978   3.480   3.384  15.358  0.8873  0.3562 -1.4870
14829TIP3    H265979   3.472   3.238  15.398 -4.6717  1.0497  0.8266
14830TIP3   OH265980   2.788   1.266   3.050  0.0484 -0.2985  0.4615
14830TIP3    H165981   2.803   1.215   2.970 -1.7867 -0.9981  0.5146
14830TIP3    H265982   2.765   1.354   3.019 -2.9592 -1.1225  0.0035
14831TIP3   OH265983   6.089   4.570   1.554 -0.3194  0.2463 -0.0793
14831TIP3    H165984   6.047   4.491   1.589  0.4389 -0.5900 -0.9923
14831TIP3    H265985   6.032   4.641   1.581 -0.3743 -0.4701  1.8430
14832TIP3   OH265986   4.843   5.132   2.388 -0.1698  0.0603  0.0413
14832TIP3    H165987   4.848   5.037   2.375  0.2258  0.2523 -1.2978
14832TIP3    H265988   4.749   5.149   2.400 -0.3308 -0.3983 -0.5487
14833TIP3   OH265989   3.929   0.817  16.894  0.0754 -0.1842  0.2790
14833TIP3    H165990   3.978   0.846  16.818  0.2501 -0.6641  0.2022
14833TIP3    H265991   3.951   0.724  16.903 -0.7813 -0.3958  0.2728
14834TIP3   OH265992   1.826   5.740  13.968 -0.4240 -0.4481  0.3579
14834TIP3    H165993   1.888   5.669  13.952 -0.2124 -0.4900  1.2960
14834TIP3    H265994   1.879   5.820  13.969 -0.1262 -0.6139  2.5148
14835TIP3   OH265995   4.807   4.581   3.446 -0.1855  0.5948 -0.0726
14835TIP3    H165996   4.863   4.619   3.379  1.2227 -0.8272  0.2402
14835TIP3    H265997   4.821   4.636   3.523 -1.3890  1.9031 -0.7377
14836TIP3   OH265998   1.356   3.616  12.311  0.7417 -0.0967 -1.1208
14836TIP3    H165999   1.356   3.690  12.371  1.8970  0.8436 -2.2266
14836TIP3    H266000   1.327   3.542  12.364  2.9664  0.3865  0.9571
14837TIP3   OH266001   3.158   4.780   2.660 -0.6741 -0.1616 -0.2266
14837TIP3    H166002   3.087   4.716   2.656 -0.0964 -0.8285 -0.1153
14837TIP3    H266003   3.208   4.764   2.580 -0.9918  0.7168 -0.6065
14838TIP3   OH266004   5.515   0.521   6.385 -0.3449 -0.5664  0.2875
14838TIP3    H166005   5.584   0.522   6.451 -0.6382 -0.3173  0.5952
14838TIP3    H266006   5.438   0.555   6.430 -0.3126  0.5563 -0.4452
14839TIP3   OH266007   2.656   0.933   1.261 -0.3965 -0.3952 -0.0776
14839TIP3    H166008   2.730   0.918   1.203 -1.3370  0.3847 -1.5497
14839TIP3    H266009   2.580   0.935   1.202 -1.3738  0.5378  1.1719
14840TIP3   OH266010   3.880   0.389  12.409  0.5807  0.2676  0.1807
14840TIP3    H166011   3.835   0.459  12.456 -1.0124 -0.9316  0.5441
14840TIP3    H266012   3.939   0.351  12.474  0.7010  0.6182  0.2811
14841TIP3   OH266013   4.151   4.865   2.579 -0.1819  0.4103 -0.4775
14841TIP3    H166014   4.147   4.804   2.505 -1.1104  0.0475 -0.1452
14841TIP3    H266015   4.068   4.851   2.626  0.2857  0.8115  0.4899
14842TIP3   OH266016   6.568   1.153  13.051 -0.5279 -0.2841  0.3101
14842TIP3    H166017   6.496   1.200  13.092 -1.3981 -2.0152  0.8622
14842TIP3    H266018   6.533   1.066  13.034  0.2258 -0.0964 -2.8763
14843TIP3   OH266019   3.527   3.280  14.910  0.2425 -0.0113  0.0825
14843TIP3    H166020   3.534   3.240  14.823  1.9963 -1.1739  0.7116
14843TIP3    H266021   3.583   3.226  14.966  2.1418  2.8758  1.1712
14844TIP3   OH266022   3.382   3.672  10.609  0.5236 -0.4714  0.0738
14844TIP3    H166023   3.313   3.721  10.653 -0.5160 -2.0953  0.3421
14844TIP3    H266024   3.440   3.739  10.572 -1.9048  0.9700 -1.3274
14845TIP3   OH266025   2.894   5.037  15.031 -0.0404  0.3176 -0.3921
14845TIP3    H166026   2.917   5.027  15.123  0.8068  1.6233 -0.4343
14845TIP3    H266027   2.942   4.969  14.986 -0.1607 -0.0863  0.0849
14846TIP3   OH266028   2.809   3.184  13.892 -0.3757  0.2079 -0.4197
14846TIP3    H166029   2.881   3.124  13.912  1.1572  1.7191 -1.1356
14846TIP3    H266030   2.787   3.223  13.977  0.2277  0.3375 -0.3150
14847TIP3   OH266031   6.363   2.544   0.701 -0.0991 -0.4695 -0.5974
14847TIP3    H166032   6.389   2.548   0.793 -1.3890  0.5066 -0.2354
14847TIP3    H266033   6.444   2.552   0.652  0.3901  1.7106  0.4577
14848TIP3   OH266034   3.931   3.765  13.092 -0.4451  0.1926 -0.8507
14848TIP3    H166035   3.857   3.731  13.042 -1.0296  1.5207 -0.9393
14848TIP3    H266036   3.930   3.860  13.076 -0.6277  0.6806  1.5928
14849TIP3   OH266037   4.212   4.062  12.966  0.2454 -0.1261  0.7576
14849TIP3    H166038   4.261   4.068  13.048  0.2932 -0.4561  0.7534
14849TIP3    H266039   4.121   4.079  12.992  0.5905  2.9035  0.4260
14850TIP3   OH266040   0.468   4.571  14.865 -0.2579 -0.0429  0.2183
14850TIP3    H166041   0.391   4.539  14.912 -1.1796 -1.1254 -1.8516
14850TIP3    H266042   0.504   4.492  14.823  1.0159  0.7145 -0.1590
14851TIP3   OH266043   1.792   3.106  14.911 -0.7789 -0.3435  0.7196
14851TIP3    H166044   1.877   3.061  14.917  0.5065  1.8985  0.3327
14851TIP3    H266045   1.795   3.173  14.978 -1.6528  0.6901 -0.2247
14852TIP3   OH266046   6.274   5.590  12.774 -0.4045  0.1344  0.5667
14852TIP3    H166047   6.255   5.521  12.837  1.0211  0.0840  0.9750
14852TIP3    H266048   6.299   5.544  12.694  1.4190  0.1236  1.1032
14853TIP3   OH266049   0.130   3.634   5.587  0.0183  0.3460 -0.1699
14853TIP3    H166050   0.180   3.705   5.625  0.3929  0.2057 -0.3961
14853TIP3    H266051   0.170   3.619   5.501  1.0294 -1.2574  0.5445
14854TIP3   OH266052   1.770   6.076   1.916 -0.1611  0.1189  0.1589
14854TIP3    H166053   1.816   6.015   1.859 -1.0974  0.3239 -0.8520
14854TIP3    H266054   1.838   6.133   1.951  0.3176  0.7205 -1.6565
14855TIP3   OH266055   0.242   2.205   4.799  0.3377  0.4210  0.4346
14855TIP3    H166056   0.207   2.214   4.888  0.2060  0.3193  0.3932
14855TIP3    H266057   0.255   2.295   4.770  0.9840  0.4517  0.7921
14856TIP3   OH266058   4.787   2.766   5.894 -0.3761 -0.6475  0.3088
14856TIP3    H166059   4.787   2.773   5.798 -1.4045  0.7071  0.3767
14856TIP3    H266060   4.877   2.784   5.920 -0.2699 -0.1945 -0.3554
14857TIP3   OH266061   1.601   2.276   1.357 -0.6673 -0.1737  0.2527
14857TIP3    H166062   1.643   2.273   1.443  0.7128 -0.9884 -0.4144
14857TIP3    H266063   1.508   2.288   1.376 -0.6665 -2.2173  1.9360
14858TIP3   OH266064   3.060   4.795   5.277  0.3572 -0.5356  0.5069
14858TIP3    H166065   3.075   4.882   5.239 -0.1417 -0.4485  0.5069
14858TIP3    H266066   3.072   4.808   5.371 -0.9011 -0.1934  0.6405
14859TIP3   OH266067   6.719   1.260   3.144  0.0890  0.2164  0.0638
14859TIP3    H166068   6.770   1.286   3.220 -0.7454  1.3329  0.2720
14859TIP3    H266069   6.776   1.200   3.096  1.3713  0.9866  0.5737
14860TIP3   OH266070   3.670   0.448  11.142 -0.2888  0.2785  0.4930
14860TIP3    H166071   3.619   0.367  11.145 -1.2881  0.8719 -0.0839
14860TIP3    H266072   3.760   0.420  11.123 -0.3217 -0.8035  1.7771
14861TIP3   OH266073   3.951   3.510  13.195  0.2194 -0.0468  0.5250
14861TIP3    H166074   3.942   3.602  13.169  0.5848  0.2993  1.5522
14861TIP3    H266075   3.939   3.511  13.290  0.2666 -1.0598  0.5509
14862TIP3   OH266076   4.835   0.168   5.374 -1.0561  0.3586 -0.2178
14862TIP3    H166077   4.851   0.235   5.308  0.0194 -0.3130 -0.6598
14862TIP3    H266078   4.832   0.216   5.457  0.6343  0.8685 -0.4173
14863TIP3   OH266079   1.139   3.035   0.992  0.5729 -0.2408  0.1298
14863TIP3    H166080   1.102   3.068   1.074  1.4324 -0.0184  0.4378
14863TIP3    H266081   1.225   3.076   0.986  0.2050  0.3725 -1.2913
14864TIP3   OH266082   0.033   4.785   0.034  0.7753 -0.2745 -0.3776
14864TIP3    H166083   0.011   4.738  -0.047  2.6073  0.3308 -1.2780
14864TIP3    H266084   0.096   4.852   0.006  2.2283 -0.6994  1.7190
14865TIP3   OH266085   2.180   1.010  14.974  0.3720  0.8989  0.1363
14865TIP3    H166086   2.159   0.973  14.889  0.2711 -0.3807  0.6940
14865TIP3    H266087   2.270   1.041  14.966  0.5633  0.2532 -0.2767
14866TIP3   OH266088   5.272   3.482   4.938 -0.1330 -0.4506  0.4398
14866TIP3    H166089   5.339   3.431   4.984  0.8176  1.0115  0.7520
14866TIP3    H266090   5.189   3.450   4.973  0.2594 -3.2929 -0.9590
14867TIP3   OH266091   4.678   6.134   4.480  0.4351 -0.0640 -0.0132
14867TIP3    H166092   4.615   6.134   4.408  0.1893  0.1024  0.1988
14867TIP3    H266093   4.652   6.060   4.535  0.9626 -0.5369 -0.3832
14868TIP3   OH266094   2.934   1.146  17.091  0.1707  0.0620  0.4197
14868TIP3    H166095   2.847   1.133  17.126  0.3932 -1.1935  0.5411
14868TIP3    H266096   2.926   1.127  16.997  0.1708  0.6314  0.3002
14869TIP3   OH266097   5.752   3.363   1.838  0.3884 -0.6525 -0.0406
14869TIP3    H166098   5.772   3.397   1.926  0.0981  0.5124 -0.4073
14869TIP3    H266099   5.662   3.331   1.846  0.0618  0.2289 -0.1268
14870TIP3   OH266100   1.174   0.569  10.788 -0.1523  1.4102  0.2052
14870TIP3    H166101   1.135   0.582  10.875 -4.1775 -0.7246 -1.0262
14870TIP3    H266102   1.250   0.513  10.804 -0.6010  1.3393  2.4090
14871TIP3   OH266103   6.505   2.470   0.950  0.2097  0.0662  0.2265
14871TIP3    H166104   6.452   2.459   1.029  1.0314 -0.6763  0.6931
14871TIP3    H266105   6.588   2.508   0.981  0.3246  0.3160 -0.3597
14872TIP3   OH266106   4.987   4.752  11.602 -0.4900  0.0329  0.5756
14872TIP3    H166107   5.031   4.789  11.525 -1.3452  0.4502  0.2749
14872TIP3    H266108   4.977   4.826  11.662 -1.6612  0.1815  0.2261
14873TIP3   OH266109   6.708   3.710   3.037  0.0665  0.4729  0.0408
14873TIP3    H166110   6.705   3.797   2.996  0.4188  0.8054  0.6929
14873TIP3    H266111   6.693   3.649   2.966 -0.7830  1.0990 -0.3270
14874TIP3   OH266112   0.739   3.743   1.654 -0.0437  0.1527 -0.8787
14874TIP3    H166113   0.808   3.677   1.651  0.5578  0.7588 -0.4978
14874TIP3    H266114   0.777   3.820   1.612 -0.4013  0.5636 -0.4623
14875TIP3   OH266115   3.254   0.198  11.260  0.0919 -0.2139  0.0039
14875TIP3    H166116   3.220   0.210  11.171  0.5935 -1.8029 -0.4386
14875TIP3    H266117   3.349   0.202  11.249  0.1987  2.6073  0.9849
14876TIP3   OH266118   0.362   6.128   6.729  0.3637  0.4604  0.3089
14876TIP3    H166119   0.272   6.142   6.698  0.3991  1.8391  0.7778
14876TIP3    H266120   0.404   6.212   6.717  1.7854 -0.3281 -0.4537
14877TIP3   OH266121   6.643   6.105  12.638 -0.6400 -0.0081  0.7858
14877TIP3    H166122   6.733   6.137  12.632 -0.5035 -0.6486 -1.0228
14877TIP3    H266123   6.651   6.016  12.672 -0.4978 -0.3949 -0.2330
14878TIP3   OH266124   1.509   1.044  14.074  0.1424  0.2868 -0.7325
14878TIP3    H166125   1.522   1.072  14.165  1.4837 -1.3436 -0.3650
14878TIP3    H266126   1.521   1.124  14.023  0.1096  1.1013  0.4785
14879TIP3   OH266127   5.839   5.908  16.960 -0.0170 -0.9553  0.5574
14879TIP3    H166128   5.744   5.917  16.973  0.3668  2.0658  2.1818
14879TIP3    H266129   5.867   5.850  17.032 -0.5668 -1.5769  0.2833
14880TIP3   OH266130   4.881   1.227   1.963  0.0848  0.0896  0.0842
14880TIP3    H166131   4.880   1.170   1.886  1.8832 -0.9049  0.7272
14880TIP3    H266132   4.879   1.167   2.037 -1.8008  1.0419  0.8589
14881TIP3   OH266133   0.012   6.496   1.748  0.1684 -0.4711 -0.4130
14881TIP3    H166134  -0.069   6.505   1.698  0.8060  1.3199 -1.1977
14881TIP3    H266135  -0.010   6.531   1.834 -0.1839 -1.0640 -0.2499
14882TIP3   OH266136   2.228   4.202  11.222 -0.5607  0.0560 -1.0456
14882TIP3    H166137   2.138   4.179  11.245  0.2762 -1.1084  1.4623
14882TIP3    H266138   2.258   4.130  11.166 -0.3335 -1.1036  0.5074
14883TIP3   OH266139   1.901   0.281  11.798  0.1742  0.3563  0.1085
14883TIP3    H166140   1.960   0.286  11.873 -1.6893  1.6787  1.5750
14883TIP3    H266141   1.923   0.358  11.745  0.7307  0.0466 -0.1138
14884TIP3   OH266142   3.865   1.882   0.768  0.0759 -0.2301 -1.0655
14884TIP3    H166143   3.832   1.898   0.856 -1.9489  2.1229 -2.1207
14884TIP3    H266144   3.943   1.937   0.761 -0.9083  1.1780 -1.3312
14885TIP3   OH266145   3.486   1.625   4.596  0.6329 -0.1714 -0.3007
14885TIP3    H166146   3.458   1.545   4.642 -1.2877  0.4753 -0.2514
14885TIP3    H266147   3.475   1.604   4.504  1.1428 -0.2999 -0.3361
14886TIP3   OH266148   5.051   1.326   3.131 -0.3840 -0.7683  0.3025
14886TIP3    H166149   5.112   1.376   3.185 -1.5701  2.3186 -1.0049
14886TIP3    H266150   5.005   1.270   3.193 -0.3420  1.1914  2.2188
14887TIP3   OH266151   4.900   2.457  14.004  0.2021 -0.2297  0.9753
14887TIP3    H166152   4.812   2.489  14.020 -0.9162 -1.9271 -1.1596
14887TIP3    H266153   4.934   2.434  14.091 -0.8665  1.7435  1.9806
14888TIP3   OH266154   3.127   2.851  16.450  0.2159 -0.5256 -0.2374
14888TIP3    H166155   3.190   2.865  16.521  1.2658  2.9289 -1.6573
14888TIP3    H266156   3.047   2.824  16.495  1.1759  0.3398  2.1536
14889TIP3   OH266157   0.759   2.139   0.604 -0.0026  0.0596 -0.6601
14889TIP3    H166158   0.782   2.047   0.594  2.2942  0.5612 -0.5203
14889TIP3    H266159   0.691   2.153   0.538 -0.5387 -1.7555 -0.5530
14890TIP3   OH266160   3.833   1.098  12.923  0.0045 -0.3581  0.1021
14890TIP3    H166161   3.899   1.083  12.855  1.1418  0.1605  1.0338
14890TIP3    H266162   3.806   1.010  12.950 -0.1577 -0.5702 -0.7208
14891TIP3   OH266163   5.708   0.197   1.065  0.4384  0.5727  0.4773
14891TIP3    H166164   5.613   0.198   1.064  0.4299  0.8823  1.0300
14891TIP3    H266165   5.731   0.120   1.118  0.4726  1.3313  1.5852
14892TIP3   OH266166   1.037   1.868  14.323 -0.4786 -0.6295  0.2536
14892TIP3    H166167   1.041   1.937  14.257  0.6466 -1.0622 -0.1441
14892TIP3    H266168   0.977   1.803  14.286 -0.6593 -0.4003  0.1368
14893TIP3   OH266169   5.294   2.268  12.796  0.2822 -0.1242 -0.4950
14893TIP3    H166170   5.374   2.308  12.828  0.4729 -1.7146  1.1752
14893TIP3    H266171   5.224   2.315  12.841  0.4848 -1.2714  1.0975
14894TIP3   OH266172   2.343   6.169  12.682 -0.0239 -0.1689 -0.2750
14894TIP3    H166173   2.428   6.191  12.644  0.0084  1.2654  0.5782
14894TIP3    H266174   2.365   6.126  12.765 -0.1352 -1.1693 -0.7421
14895TIP3   OH266175   3.773   2.394   1.886 -0.0357  0.2958 -0.4568
14895TIP3    H166176   3.859   2.363   1.859  1.0696  1.2481  1.7139
14895TIP3    H266177   3.742   2.446   1.812  1.0165 -0.4659 -1.4664
14896TIP3   OH266178   2.566   6.729   2.355  0.0638 -0.4672  0.3882
14896TIP3    H166179   2.485   6.716   2.305  0.1717 -0.4061  0.1962
14896TIP3    H266180   2.542   6.708   2.445 -0.2212 -0.2483  0.3671
14897TIP3   OH266181   2.733   4.176   1.000  0.4125  0.2071 -0.0843
14897TIP3    H166182   2.715   4.260   1.041 -1.4526 -0.3518  0.3330
14897TIP3    H266183   2.814   4.146   1.041 -1.2879 -0.2870  3.2879
14898TIP3   OH266184   3.257   1.353   2.396 -0.0503 -0.1866 -0.0684
14898TIP3    H166185   3.324   1.362   2.464  0.8093  0.5142 -0.9771
14898TIP3    H266186   3.206   1.435   2.401  0.5389  0.2360 -0.7970
14899TIP3   OH266187   6.097   3.274  13.441 -0.6111 -0.4541 -0.1929
14899TIP3    H166188   6.017   3.274  13.388 -0.6011  0.2355 -0.2154
14899TIP3    H266189   6.157   3.217  13.392 -1.5783 -2.2582  0.6148
14900TIP3   OH266190   1.647   3.228   3.953  0.2578  0.6948  0.4710
14900TIP3    H166191   1.611   3.301   4.003 -0.9732 -0.8127  1.9307
14900TIP3    H266192   1.719   3.194   4.007 -0.8519 -0.7230  1.1472
14901TIP3   OH266193   4.691   3.933   1.457  0.4768 -0.6348 -0.5008
14901TIP3    H166194   4.705   3.992   1.531  0.6990  1.1452 -1.8891
14901TIP3    H266195   4.597   3.937   1.441  0.3000 -1.6869  0.1794
14902TIP3   OH266196   1.293   5.492   6.777  0.2131  0.0185 -0.2889
14902TIP3    H166197   1.247   5.506   6.694  2.0351  2.5076 -1.0311
14902TIP3    H266198   1.386   5.503   6.754  0.7728  0.7103  2.0539
14903TIP3   OH266199   2.413   5.836  15.541 -0.4824 -0.6790  0.3870
14903TIP3    H166200   2.411   5.927  15.512  0.5769 -1.1526 -1.3092
14903TIP3    H266201   2.325   5.804  15.521 -0.4067 -0.4141 -0.4511
14904TIP3   OH266202   1.001   3.021   0.492 -0.1064 -0.1913  0.0346
14904TIP3    H166203   0.937   3.007   0.563 -0.6345 -2.9048 -0.8603
14904TIP3    H266204   1.074   3.067   0.534 -0.3034 -1.8852  2.4285
14905TIP3   OH266205   1.413   3.676   3.063  0.2365 -0.3891 -0.6116
14905TIP3    H166206   1.410   3.770   3.045  0.5346 -0.2718 -0.0651
14905TIP3    H266207   1.505   3.652   3.054  0.0318 -0.8258 -1.6879
14906TIP3   OH266208   2.437   1.725   4.210  0.0631  0.3275 -0.4115
14906TIP3    H166209   2.429   1.707   4.304  2.1048  0.8761 -0.0827
14906TIP3    H266210   2.391   1.653   4.168 -3.0883  1.3587  0.9839
14907TIP3   OH266211   6.704   3.525   5.592 -0.1663 -0.1547  0.3396
14907TIP3    H166212   6.794   3.551   5.612  0.1675 -0.3957 -0.7623
14907TIP3    H266213   6.659   3.607   5.573  0.4030 -0.1831 -1.2755
14908TIP3   OH266214   0.392   0.108  10.418 -0.8198 -0.3241  0.4058
14908TIP3    H166215   0.414   0.198  10.394 -0.0555 -0.3982  0.8081
14908TIP3    H266216   0.307   0.093  10.378 -0.5196  0.2584 -0.4774
14909TIP3   OH266217   1.805   0.453  12.555  0.2505  0.5893  0.4078
14909TIP3    H166218   1.895   0.480  12.573  0.6964  1.5249 -2.5346
14909TIP3    H266219   1.764   0.531  12.517 -0.9946 -0.5502 -0.7052
14910TIP3   OH266220   5.028   0.351   4.477 -0.2218 -0.2001  0.0242
14910TIP3    H166221   5.044   0.432   4.526 -0.5339 -0.5775  0.7673
14910TIP3    H266222   4.932   0.344   4.473 -0.2039 -0.1001 -0.7807
14911TIP3   OH266223   2.139   1.780   4.148 -0.1229  0.4800 -0.8093
14911TIP3    H166224   2.141   1.684   4.145  0.5652  0.4832 -0.7942
14911TIP3    H266225   2.152   1.807   4.057  0.5857  0.5482 -0.7008
14912TIP3   OH266226   4.889   5.730  16.069 -0.0295 -0.1670 -0.0178
14912TIP3    H166227   4.933   5.815  16.073 -0.8115  0.2368  0.0364
14912TIP3    H266228   4.960   5.666  16.080  0.6325  0.4575 -0.5596
14913TIP3   OH266229   3.926   5.526  10.736 -0.6228 -0.0592 -0.6370
14913TIP3    H166230   3.977   5.606  10.722 -2.3846  1.0292 -1.1679
14913TIP3    H266231   3.853   5.554  10.791 -0.6244 -1.5811  0.1730
14914TIP3   OH266232   5.971   3.725  15.684 -0.3377  0.4548 -0.0952
14914TIP3    H166233   5.948   3.714  15.776  0.0640  1.5586  0.1482
14914TIP3    H266234   5.923   3.655  15.639  1.3083 -1.6258  1.1971
14915TIP3   OH266235   1.770   4.670   0.925  0.3276  0.3976 -1.1109
14915TIP3    H166236   1.812   4.603   0.979 -1.7669 -0.4447 -0.4134
14915TIP3    H266237   1.746   4.739   0.986 -2.4706 -0.7652 -0.7270
14916TIP3   OH266238   4.960   4.912   6.146 -0.2640 -0.1284 -0.7122
14916TIP3    H166239   4.890   4.923   6.081  0.1076  0.8571 -0.9509
14916TIP3    H266240   4.964   4.817   6.160 -0.1679 -0.3961 -2.3416
14917TIP3   OH266241   1.228   4.820  16.086 -0.0785  0.3986 -0.0289
14917TIP3    H166242   1.304   4.796  16.033  1.0858  1.0947  1.2840
14917TIP3    H266243   1.180   4.738  16.096  1.6281 -0.5372  0.8924
14918TIP3   OH266244   0.026   1.578   3.752  0.0687  0.1785 -0.1373
14918TIP3    H166245   0.048   1.507   3.813  0.1007 -0.2368 -0.6316
14918TIP3    H266246   0.107   1.627   3.743 -0.2139  0.9037  1.0106
14919TIP3   OH266247   4.333   2.566   4.684 -0.0335  0.1478 -0.1992
14919TIP3    H166248   4.269   2.621   4.729  1.3730  0.9669  0.9212
14919TIP3    H266249   4.393   2.538   4.753  0.3079 -1.3728 -1.0503
14920TIP3   OH266250   6.309   0.395   4.898 -0.4647 -0.4214 -0.5548
14920TIP3    H166251   6.239   0.443   4.853 -1.2074 -1.8308 -0.9737
14920TIP3    H266252   6.322   0.441   4.980 -0.2782  1.2087 -1.4582
14921TIP3   OH266253   0.710   6.781   2.962 -0.4302 -0.3389 -0.3776
14921TIP3    H166254   0.736   6.798   3.053 -2.0909  2.4718 -0.3241
14921TIP3    H266255   0.629   6.730   2.970  1.2247 -3.2234 -0.4592
14922TIP3   OH266256   3.856   5.851  16.877  0.0471 -0.7451  0.0373
14922TIP3    H166257   3.783   5.874  16.935  1.4936  2.4045  0.8574
14922TIP3    H266258   3.833   5.891  16.793 -0.0671 -1.5505 -0.3268
14923TIP3   OH266259   2.680   6.658   4.580  0.2620 -0.1572  0.1190
14923TIP3    H166260   2.593   6.669   4.620  0.2954  0.7875 -0.0491
14923TIP3    H266261   2.696   6.741   4.535  0.4202 -1.0437 -1.5046
14924TIP3   OH266262   4.824   1.402   4.377  0.0269 -0.1302  0.0685
14924TIP3    H166263   4.888   1.387   4.446 -0.0825 -1.6362 -0.1274
14924TIP3    H266264   4.740   1.381   4.417 -0.3447  1.5399  0.2335
14925TIP3   OH266265   6.408   6.603  16.567 -0.2323  0.2612  0.0758
14925TIP3    H166266   6.374   6.567  16.649  0.4297 -0.1861  0.1693
14925TIP3    H266267   6.415   6.527  16.509 -1.7371  0.7415 -0.7893
14926TIP3   OH266268   5.217   5.458   5.618  0.1144  0.2747 -0.0707
14926TIP3    H166269   5.275   5.414   5.681 -1.4678 -1.3909  0.3149
14926TIP3    H266270   5.130   5.449   5.656 -0.6792  0.6856 -1.7232
14927TIP3   OH266271   1.686   0.915  11.284 -0.6772  0.0656  0.2892
14927TIP3    H166272   1.767   0.952  11.317  0.6394 -2.0415 -0.4082
14927TIP3    H266273   1.620   0.982  11.301  1.5205  2.7279 -0.9288
14928TIP3   OH266274   3.577   0.013  16.498  0.3204 -0.1500  0.4234
14928TIP3    H166275   3.562   0.108  16.497  0.9868 -0.0332  0.6831
14928TIP3    H266276   3.494  -0.025  16.470  0.5664  0.5887 -1.4971
14929TIP3   OH266277   6.195   1.797   6.174 -0.1953  0.3551  0.3789
14929TIP3    H166278   6.230   1.714   6.205 -0.1568 -0.0820 -0.7990
14929TIP3    H266279   6.238   1.863   6.230 -1.0686 -0.4456  2.0720
14930TIP3   OH266280   1.079   2.580  15.885 -0.0232  0.4564  0.4381
14930TIP3    H166281   1.066   2.646  15.952 -0.2152  1.5736 -0.6708
14930TIP3    H266282   1.124   2.508  15.930  1.7622  2.0330  1.2999
14931TIP3   OH266283   1.866   6.232   5.135  0.2866 -0.2706  0.5350
14931TIP3    H166284   1.912   6.298   5.187  1.6557 -0.9106  0.1876
14931TIP3    H266285   1.890   6.149   5.175 -2.5483 -0.5644  1.8457
14932TIP3   OH266286   2.338   4.029  13.175 -0.2922  0.1150 -0.0024
14932TIP3    H166287   2.310   3.970  13.105  1.1950  0.8668 -1.3109
14932TIP3    H266288   2.429   4.050  13.153  0.1415  0.5903  2.0368
14933TIP3   OH266289   0.377   2.688  14.594  0.2360 -0.2587  0.2486
14933TIP3    H166290   0.458   2.665  14.548  0.9280  0.5800  1.0155
14933TIP3    H266291   0.343   2.764  14.546  0.8382  0.4750  0.9575
14934TIP3   OH266292   1.292   1.226  14.664  0.4912  0.3213 -0.5383
14934TIP3    H166293   1.377   1.269  14.666  0.4337  0.4847 -1.2778
14934TIP3    H266294   1.239   1.277  14.725  1.1300 -0.2473  0.5028
14935TIP3   OH266295   2.866   1.249  16.125  0.5278 -0.0068 -0.1813
14935TIP3    H166296   2.863   1.336  16.166 -0.7845  0.8452 -1.9633
14935TIP3    H266297   2.912   1.194  16.189  1.4005  1.9856  0.9958
14936TIP3   OH266298   6.733   6.625   6.163  0.4678 -0.2915 -0.0653
14936TIP3    H166299   6.741   6.529   6.162  0.5888 -0.4243  3.1381
14936TIP3    H266300   6.805   6.654   6.219  0.6467  1.7487 -1.2695
14937TIP3   OH266301   2.720   5.013  16.499  0.1200  0.0274 -0.9287
14937TIP3    H166302   2.750   5.028  16.409  2.0786 -2.5894 -0.8284
14937TIP3    H266303   2.801   5.008  16.551 -0.7569 -1.7817  0.3700
14938TIP3   OH266304   0.692   4.454   3.174 -0.3403  0.4911  0.0063
14938TIP3    H166305   0.604   4.423   3.154 -0.6812  0.9671  0.7250
14938TIP3    H266306   0.698   4.538   3.128  0.6258 -0.6110 -2.0442
14939TIP3   OH266307   4.248   3.709  12.885 -0.2634  0.1611 -0.6303
14939TIP3    H166308   4.184   3.675  12.823 -1.9980  0.3164  1.0079
14939TIP3    H266309   4.317   3.642  12.888 -1.6259 -1.2790 -0.5057
14940TIP3   OH266310   3.680   5.170   5.348  0.5744  0.0351 -0.2533
14940TIP3    H166311   3.758   5.222   5.329  0.8896 -0.3632 -0.0717
14940TIP3    H266312   3.682   5.100   5.283 -0.1730  0.5750 -0.8800
14941TIP3   OH266313   0.591   2.038   1.268 -0.3047 -0.8229  0.0448
14941TIP3    H166314   0.526   2.108   1.269  1.1476  0.6221 -1.0298
14941TIP3    H266315   0.547   1.964   1.309 -2.4962  0.1827 -0.3295
14942TIP3   OH266316   4.603   6.540   5.355 -0.0251 -0.0469  0.0775
14942TIP3    H166317   4.542   6.517   5.284 -0.6391  1.1869  0.1729
14942TIP3    H266318   4.681   6.488   5.337  0.3685  1.2094 -2.3225
14943TIP3   OH266319   5.005   5.024  10.817  0.0086  0.0619  0.4922
14943TIP3    H166320   5.006   4.950  10.876  1.4162 -0.7268 -0.4596
14943TIP3    H266321   4.912   5.036  10.795 -0.6836  0.9280  3.4188
14944TIP3   OH266322   4.685   2.451   2.783  0.5460  0.2366  0.1863
14944TIP3    H166323   4.694   2.445   2.878 -0.7098  1.2303  0.3973
14944TIP3    H266324   4.745   2.521   2.758  0.6354  0.1961  0.2847
14945TIP3   OH266325   5.567   0.844   1.280  0.0632 -0.0606 -0.2661
14945TIP3    H166326   5.505   0.774   1.258  0.1382 -0.4436  0.6917
14945TIP3    H266327   5.650   0.798   1.292  0.0831  0.1660  0.5024
14946TIP3   OH266328   3.554   0.285   0.756  0.2245 -0.2921  0.4138
14946TIP3    H166329   3.483   0.342   0.727  0.3600  0.5270  1.6083
14946TIP3    H266330   3.559   0.217   0.690 -1.0127  0.1949 -0.2086
14947TIP3   OH266331   5.930   2.838   5.238 -0.0172 -0.0808 -0.2315
14947TIP3    H166332   5.914   2.770   5.303  1.3053  0.2010  0.4238
14947TIP3    H266333   5.868   2.819   5.167 -0.8838 -0.8987  0.7182
14948TIP3   OH266334   0.656   0.191   6.222 -0.1128 -0.2704 -0.0140
14948TIP3    H166335   0.663   0.150   6.308 -1.3858 -3.8170 -1.3775
14948TIP3    H266336   0.726   0.150   6.170  0.1680  1.2368 -0.8979
14949TIP3   OH266337   4.478   6.005  14.363  1.1566  0.1203 -0.0488
14949TIP3    H166338   4.490   5.917  14.328  1.3785  0.5403 -1.0476
14949TIP3    H266339   4.543   6.059  14.318 -0.3738  1.2274 -1.0573
14950TIP3   OH266340   4.091   6.146   2.735  0.4453 -0.8438 -0.1596
14950TIP3    H166341   4.163   6.133   2.795 -0.9978 -1.5206  1.5011
14950TIP3    H266342   4.069   6.239   2.743  0.9581 -0.6908 -0.4932
14951TIP3   OH266343   2.079   5.533   5.874  0.1190  0.4179  0.8826
14951TIP3    H166344   2.129   5.515   5.954 -0.7736 -1.1370  1.1305
14951TIP3    H266345   2.145   5.532   5.804  0.6735  0.0631  1.4002
14952TIP3   OH266346   2.699   1.115   4.681  0.2290  0.1757  0.2696
14952TIP3    H166347   2.762   1.047   4.709 -1.1327 -1.6229 -0.8403
14952TIP3    H266348   2.722   1.133   4.590 -0.3188  0.1437  0.1237
14953TIP3   OH266349   2.425   1.489   5.246 -0.0633  0.0425  0.0894
14953TIP3    H166350   2.425   1.466   5.153 -1.7622 -1.4739  0.4018
14953TIP3    H266351   2.405   1.583   5.248 -3.1456 -0.4805 -1.0576
14954TIP3   OH266352   1.243   4.073   3.613 -0.4893 -0.2251  0.3693
14954TIP3    H166353   1.334   4.083   3.584 -1.0828  0.1993 -1.5026
14954TIP3    H266354   1.227   4.149   3.670  0.2528 -0.1743  0.5155
14955TIP3   OH266355   0.134   1.679  17.150 -0.2644  0.2013 -0.1456
14955TIP3    H166356   0.122   1.734  17.227  0.8165  1.8838 -1.1267
14955TIP3    H266357   0.228   1.671  17.140 -0.3959 -0.2840 -1.1119
14956TIP3   OH266358   1.194   1.670  15.890  0.3134  0.5900 -0.7246
14956TIP3    H166359   1.116   1.647  15.838  0.3800 -0.0669 -0.5452
14956TIP3    H266360   1.161   1.678  15.979  0.6605 -0.9357 -0.4417
14957TIP3   OH266361   0.596   6.662  15.831  0.2858 -0.0117 -0.1104
14957TIP3    H166362   0.539   6.713  15.774  0.3353  0.5402  0.3194
14957TIP3    H266363   0.547   6.653  15.913  0.3403 -0.5305 -0.1308
14958TIP3   OH266364   2.030   1.411   3.574  0.2849  0.0733  0.1427
14958TIP3    H166365   2.017   1.316   3.574 -2.0983  0.2672  2.7174
14958TIP3    H266366   1.953   1.445   3.530 -0.1385  0.8418  1.4214
14959TIP3   OH266367   0.311   2.011   0.299 -0.1292 -0.0820 -0.4523
14959TIP3    H166368   0.269   2.093   0.276  1.1282  0.8779  0.5019
14959TIP3    H266369   0.255   1.943   0.261 -1.4916  1.1828 -0.7766
14960TIP3   OH266370   6.670   5.826   4.415  0.4513 -0.1610 -0.4104
14960TIP3    H166371   6.760   5.844   4.391  0.3834 -0.2807 -0.7597
14960TIP3    H266372   6.669   5.831   4.511  0.6920  0.4490 -0.4363
14961TIP3   OH266373   6.013   5.082   4.564 -0.2709  0.0720  0.3468
14961TIP3    H166374   6.073   5.029   4.615 -1.1416 -0.6587  0.6481
14961TIP3    H266375   5.943   5.104   4.625 -0.1584  1.1850  0.0968
14962TIP3   OH266376   0.011   1.023  12.982 -0.2384 -0.0060  0.3235
14962TIP3    H166377   0.092   1.064  13.013 -0.3803 -0.4797  1.3533
14962TIP3    H266378   0.032   0.990  12.895  0.8829 -0.7356  0.8603
14963TIP3   OH266379   3.574   0.081  12.665  0.7145  0.3713 -0.0343
14963TIP3    H166380   3.628   0.033  12.602 -0.2129  0.9785 -1.3287
14963TIP3    H266381   3.587   0.034  12.747  1.2855 -0.9841 -0.8525
14964TIP3   OH266382   0.166   1.907   4.394 -0.5828  0.2461 -0.1424
14964TIP3    H166383   0.140   1.950   4.475  1.6583  1.9362 -0.2243
14964TIP3    H266384   0.216   1.973   4.346 -0.8970 -1.0398 -2.4332
14965TIP3   OH266385   6.755   6.586   2.345  0.3209 -0.6637  0.3044
14965TIP3    H166386   6.734   6.498   2.376 -2.2062  0.3993  1.9129
14965TIP3    H266387   6.812   6.622   2.412 -0.0416 -0.5078  0.5325
14966TIP3   OH266388   2.490   5.634   2.520  0.0613  0.0152 -0.3294
14966TIP3    H166389   2.408   5.599   2.556  0.1740 -0.3392 -0.4155
14966TIP3    H266390   2.468   5.657   2.429 -0.1180  0.5430 -0.1584
14967TIP3   OH266391   4.858   5.718   6.051  0.2309 -0.0252  0.6221
14967TIP3    H166392   4.805   5.666   6.111 -0.4600 -0.3376 -0.2418
14967TIP3    H266393   4.888   5.792   6.105 -1.2545  0.2780  1.0989
14968TIP3   OH266394   5.561   6.493  14.088  0.3144  0.8434  0.0984
14968TIP3    H166395   5.578   6.409  14.046  0.5307  0.2087  1.4118
14968TIP3    H266396   5.590   6.481  14.179 -0.7799  1.9418  0.6245
14969TIP3   OH266397   2.228   4.443  17.176 -0.1007 -0.4004 -0.7462
14969TIP3    H166398   2.278   4.486  17.246  0.9737 -0.1533 -1.6388
14969TIP3    H266399   2.280   4.366  17.152 -0.9161 -0.9972 -0.6677
14970TIP3   OH266400   4.988   3.145   3.608  0.2731  0.2994 -0.0454
14970TIP3    H166401   5.081   3.160   3.590  0.3295  0.8668  0.6441
14970TIP3    H266402   4.944   3.223   3.573 -0.0142 -0.1937 -0.8203
14971TIP3   OH266403   5.702   1.396   6.443 -0.9855  0.0883  0.7067
14971TIP3    H166404   5.637   1.425   6.507 -0.5332 -0.0110  1.2173
14971TIP3    H266405   5.697   1.300   6.446 -1.0195  0.0846  0.5317
14972TIP3   OH266406   5.094   3.909  11.630  0.1180  0.0786  0.1783
14972TIP3    H166407   5.085   3.936  11.539 -1.0539 -0.2596  0.1809
14972TIP3    H266408   5.175   3.950  11.659 -0.1433  1.2305 -0.6480
14973TIP3   OH266409   3.706   5.402  12.260  0.1945 -0.1329 -0.0210
14973TIP3    H166410   3.643   5.380  12.329 -1.1164 -1.5809 -1.6012
14973TIP3    H266411   3.745   5.484  12.290  0.1001 -0.9664  2.6974
14974TIP3   OH266412   2.698   3.699  17.126  0.4930 -0.0317  0.3288
14974TIP3    H166413   2.713   3.765  17.193 -0.3532  0.1547  0.3495
14974TIP3    H266414   2.603   3.697  17.115  0.4709 -1.4422  0.5261
14975TIP3   OH266415   1.701   1.929  13.082  0.8831  0.1781 -0.0580
14975TIP3    H166416   1.639   1.981  13.031 -1.5328 -2.9045 -0.6008
14975TIP3    H266417   1.785   1.940  13.037  0.0163  1.8666 -1.3652
14976TIP3   OH266418   6.815   6.024  14.732 -0.4814  0.6875 -0.3038
14976TIP3    H166419   6.854   5.938  14.747  0.1756  0.9062 -0.6832
14976TIP3    H266420   6.814   6.066  14.818  2.1670  1.4934 -0.5513
14977TIP3   OH266421   4.369   5.573  13.304  0.0707  0.2613  0.2866
14977TIP3    H166422   4.428   5.605  13.235 -0.5830  0.5302 -0.1577
14977TIP3    H266423   4.307   5.516  13.258  0.5409 -0.7723  0.8994
14978TIP3   OH266424   4.950   6.435   2.357  0.1388 -0.3460 -0.1488
14978TIP3    H166425   4.897   6.363   2.324  0.2060 -0.1012 -0.8074
14978TIP3    H266426   4.934   6.507   2.296 -1.7599  0.9789  1.7366
14979TIP3   OH266427   3.617   6.389  11.383  0.1938  0.1300  0.1059
14979TIP3    H166428   3.656   6.412  11.298 -2.8420 -2.4779 -2.2477
14979TIP3    H266429   3.638   6.297  11.395 -3.5546 -1.0009 -0.5711
14980TIP3   OH266430   6.684   2.221   0.756  0.0100  0.2541  0.1492
14980TIP3    H166431   6.726   2.305   0.778 -0.7029  0.0422  2.6665
14980TIP3    H266432   6.615   2.244   0.693  0.6607  1.3479 -0.1856
14981TIP3   OH266433   6.587   1.804  14.329  0.5937 -0.2576  0.2142
14981TIP3    H166434   6.628   1.889  14.319  0.9034 -0.3673  0.5292
14981TIP3    H266435   6.570   1.796  14.423 -1.0006  0.1786 -0.0046
14982TIP3   OH266436   2.061   6.140   3.591  1.3489  0.1729 -0.1377
14982TIP3    H166437   2.063   6.157   3.497  0.6165  0.3380 -0.1302
14982TIP3    H266438   2.112   6.060   3.602  1.6694  0.3046 -0.6399
14983TIP3   OH266439   2.837   2.593  16.924 -0.0114 -0.3076 -0.6047
14983TIP3    H166440   2.906   2.641  16.878  0.3876  0.2847  0.5748
14983TIP3    H266441   2.872   2.504  16.934  1.1398  0.2680  1.0187
14984TIP3   OH266442   3.685   1.097   1.497  0.3570  0.1415 -0.1906
14984TIP3    H166443   3.739   1.018   1.509 -1.1864 -0.9724 -0.3752
14984TIP3    H266444   3.712   1.155   1.568  1.5052 -0.5517 -0.0367
14985TIP3   OH266445   1.617   4.924  11.428  0.9646  0.1428  0.6467
14985TIP3    H166446   1.561   4.870  11.372  0.0240  0.1661  1.5324
14985TIP3    H266447   1.576   5.011  11.425  1.5173  0.4008  0.5332
14986TIP3   OH266448   3.013   0.764  13.947 -0.1402 -0.6599  0.2771
14986TIP3    H166449   3.006   0.672  13.971 -0.6087 -0.4746  0.8723
14986TIP3    H266450   3.087   0.796  13.999  1.3113 -1.1482 -1.3936
14987TIP3   OH266451   3.122   4.122   4.057 -0.1106  0.0306 -0.0290
14987TIP3    H166452   3.204   4.077   4.038 -1.5564 -1.3231 -3.9892
14987TIP3    H266453   3.106   4.176   3.979 -3.2582 -0.2420  0.3140
14988TIP3   OH266454   0.032   3.564   1.736  0.4864 -0.2706 -0.6262
14988TIP3    H166455   0.033   3.656   1.763 -0.6472 -0.2377 -0.6342
14988TIP3    H266456  -0.032   3.523   1.794 -0.3010 -0.6836 -1.7520
14989TIP3   OH266457   5.524   6.374  16.914 -0.0059  0.2284 -0.0361
14989TIP3    H166458   5.474   6.293  16.921  0.6255 -0.1250  0.5002
14989TIP3    H266459   5.516   6.414  17.001  3.2633 -1.4135  1.1724
14990TIP3   OH266460   6.335   2.466   5.367  0.8015 -0.0790  0.1152
14990TIP3    H166461   6.429   2.473   5.353  1.2552 -0.6534  2.4658
14990TIP3    H266462   6.317   2.372   5.371  0.3530  0.0197  0.7780
14991TIP3   OH266463   5.308   0.776   4.870  0.1633  0.0880  0.2070
14991TIP3    H166464   5.248   0.850   4.861  1.0609  1.0515  1.7386
14991TIP3    H266465   5.260   0.713   4.923 -0.0718  0.1764  0.1014
14992TIP3   OH266466   0.234   4.725   4.255  0.2940 -0.4411  0.6570
14992TIP3    H166467   0.261   4.633   4.251 -2.4293 -1.2901 -1.3365
14992TIP3    H266468   0.153   4.723   4.305  0.8380  1.1375  1.6676
14993TIP3   OH266469   1.734   3.764  16.555  0.1485  0.4437 -0.0044
14993TIP3    H166470   1.669   3.696  16.539  1.0794 -0.7008  0.9113
14993TIP3    H266471   1.796   3.755  16.482 -0.4089  1.1858 -0.5877
14994TIP3   OH266472   6.524   1.847  11.266  0.2804  0.1008 -0.0577
14994TIP3    H166473   6.463   1.911  11.230 -0.6939 -0.2650  0.8945
14994TIP3    H266474   6.594   1.841  11.201  0.3067  1.9803 -0.2540
14995TIP3   OH266475   3.312   0.353  14.616  0.6375  0.1544 -0.3242
14995TIP3    H166476   3.264   0.368  14.534  2.2669  1.7764 -1.0783
14995TIP3    H266477   3.305   0.436  14.663  0.1070 -0.6182  0.9963
14996TIP3   OH266478   3.655   4.156  16.520 -0.4056 -0.7964 -0.3603
14996TIP3    H166479   3.645   4.199  16.435 -0.0357  0.0228 -0.0099
14996TIP3    H266480   3.678   4.066  16.499  1.5109 -0.1874 -1.1734
14997TIP3   OH266481   1.887   3.088   0.357 -0.1891 -0.2054  0.4547
14997TIP3    H166482   1.859   3.151   0.291 -0.5475  0.3997  1.1718
14997TIP3    H266483   1.983   3.092   0.355 -0.1936  1.9746  1.9691
14998TIP3   OH266484   6.051   3.491  11.723 -0.2828 -0.2465 -0.5962
14998TIP3    H166485   5.997   3.444  11.786 -1.9256  2.0827 -0.1427
14998TIP3    H266486   6.043   3.583  11.748  1.8477  0.4516 -2.1205
14999TIP3   OH266487   5.149   1.035  11.755 -0.1734 -0.4621  0.3017
14999TIP3    H166488   5.240   1.052  11.731 -0.0478  1.2388  1.7582
14999TIP3    H266489   5.097   1.085  11.692 -0.0057  0.1707  0.6521
15000TIP3   OH266490   4.486   5.501   3.847  0.5084 -0.5930  0.0320
15000TIP3    H166491   4.478   5.477   3.755 -0.8324 -3.3777  0.7669
15000TIP3    H266492   4.552   5.441   3.881  1.1041  0.5123  0.8948
15001TIP3   OH266493   5.309   1.267  16.595  0.7692 -0.3182  0.1777
15001TIP3    H166494   5.266   1.199  16.544 -1.9988  0.4913  1.2459
15001TIP3    H266495   5.370   1.308  16.534 -1.7954  0.0855 -2.3271
15002TIP3   OH266496   5.974   2.227   5.906  0.0290  0.3720  0.4715
15002TIP3    H166497   5.963   2.132   5.903  2.1113  0.0869  0.3594
15002TIP3    H266498   5.901   2.259   5.958 -0.8929 -1.2570  0.2171
15003TIP3   OH266499   3.004   6.317   6.003  0.7239  0.6416  0.2969
15003TIP3    H166500   2.977   6.408   5.996 -0.6772  0.4069  2.0047
15003TIP3    H266501   2.979   6.291   6.092 -0.6674 -1.9179 -0.7331
15004TIP3   OH266502   2.792   2.063  14.841 -0.6645 -0.1457  0.3254
15004TIP3    H166503   2.819   2.138  14.895  0.0972 -0.4759  0.4169
15004TIP3    H266504   2.873   2.016  14.823 -0.8167  0.2435 -1.5833
15005TIP3   OH266505   6.629   5.971  10.604 -0.1289 -0.4823 -1.0502
15005TIP3    H166506   6.549   5.935  10.566  0.1832 -2.2887 -0.0977
15005TIP3    H266507   6.655   5.907  10.671  1.0402  1.0239  0.0146
15006TIP3   OH266508   1.282   5.447  15.664 -0.0050 -0.0934  0.5187
15006TIP3    H166509   1.360   5.427  15.716  1.7499 -1.7449 -2.4723
15006TIP3    H266510   1.219   5.378  15.687  1.9293 -2.7876 -1.6227
15007TIP3   OH266511   5.613   6.637  14.934 -0.1309 -0.6013  0.2038
15007TIP3    H166512   5.519   6.650  14.943  0.2068  1.2639  1.4975
15007TIP3    H266513   5.649   6.657  15.020  1.5879  0.2923 -0.6653
15008TIP3   OH266514   1.272   2.476   4.889 -0.0879  0.1464  0.9370
15008TIP3    H166515   1.264   2.532   4.812 -0.8436 -0.4979  0.5311
15008TIP3    H266516   1.182   2.450   4.909  0.0694  0.5523  2.2317
15009TIP3   OH266517   2.190   3.098   4.816 -0.1920  0.2420 -0.3355
15009TIP3    H166518   2.284   3.083   4.814 -0.2136  0.1728 -0.7932
15009TIP3    H266519   2.173   3.158   4.743 -0.4559  0.5258 -0.0495
15010TIP3   OH266520   3.552   5.390   1.309 -0.0587 -0.0512  0.2038
15010TIP3    H166521   3.586   5.463   1.257  0.5559  0.5470  1.4133
15010TIP3    H266522   3.608   5.387   1.386  1.4069 -3.2175 -0.7917
15011TIP3   OH266523   4.777   1.149   2.324 -0.2820  0.2287  0.5174
15011TIP3    H166524   4.745   1.123   2.411 -1.8885 -0.4753 -0.2529
15011TIP3    H266525   4.830   1.074   2.295  1.1500  0.9021  1.2968
15012TIP3   OH266526   2.173   4.535  13.091  0.5192 -0.4906  0.0463
15012TIP3    H166527   2.189   4.450  13.132 -1.0257 -1.5348 -1.3687
15012TIP3    H266528   2.231   4.537  13.016 -0.3348 -0.8911 -0.6471
15013TIP3   OH266529   4.567   4.810   3.376 -0.1252 -0.4642 -0.1277
15013TIP3    H166530   4.593   4.729   3.420 -1.5184 -0.3056  1.0425
15013TIP3    H266531   4.551   4.783   3.285  0.0032 -1.3748  0.1068
15014TIP3   OH266532   6.227   2.525  14.539 -0.0774  0.3618 -0.0707
15014TIP3    H166533   6.265   2.604  14.578  0.0734  0.0473  0.4356
15014TIP3    H266534   6.181   2.556  14.461  1.1226  0.7789 -0.6469
15015TIP3   OH266535   0.897   3.288   3.891 -0.2696  0.0276  0.0027
15015TIP3    H166536   0.852   3.203   3.883 -0.7394  0.3045 -0.3877
15015TIP3    H266537   0.956   3.277   3.965  0.7248 -1.1203 -0.9019
15016TIP3   OH266538   6.235   1.790   5.565 -0.1814  0.4373  0.0906
15016TIP3    H166539   6.168   1.845   5.606 -2.1663 -0.5171 -1.6617
15016TIP3    H266540   6.203   1.776   5.476  1.2425 -1.8962 -0.1444
15017TIP3   OH266541   1.785   0.313   5.598  0.0805  0.0667  0.3935
15017TIP3    H166542   1.872   0.348   5.615 -0.2028  0.9645  0.0380
15017TIP3    H266543   1.727   0.364   5.655  0.0079 -1.9616  2.2576
15018TIP3   OH266544   4.620   3.352  12.826 -0.0045  0.2781  0.3229
15018TIP3    H166545   4.602   3.287  12.759 -0.0399  0.1261  0.4784
15018TIP3    H266546   4.535   3.370  12.867 -0.2846  1.6427 -0.8079
15019TIP3   OH266547   5.082   5.704   0.652  0.5344 -0.5209 -0.0266
15019TIP3    H166548   5.017   5.639   0.625  2.5709 -1.5601 -3.0581
15019TIP3    H266549   5.061   5.782   0.601  1.4098 -0.7732 -0.8097
15020TIP3   OH266550   0.769   2.269  14.431  0.3395  0.7565 -0.0913
15020TIP3    H166551   0.716   2.340  14.395 -1.5179 -0.0559  0.8667
15020TIP3    H266552   0.713   2.230  14.498  2.2974 -0.0233  1.1565
15021TIP3   OH266553   4.987   0.879   0.695  0.6577 -0.1298  0.3331
15021TIP3    H166554   4.965   0.969   0.716  1.0475 -0.0737  0.5128
15021TIP3    H266555   4.906   0.841   0.663  0.6072  0.4140 -0.1985
15022TIP3   OH266556   3.186   6.710  11.218 -0.6878 -0.1322  0.2793
15022TIP3    H166557   3.207   6.791  11.172  1.2716 -0.0231  1.2663
15022TIP3    H266558   3.157   6.738  11.305  0.0925 -0.4779  0.6580
15023TIP3   OH266559   2.003   5.928   4.633  0.3934 -0.3256  0.0626
15023TIP3    H166560   2.032   5.988   4.702  1.6642 -0.3609 -0.4247
15023TIP3    H266561   1.910   5.950   4.620  0.8087  1.5143 -0.0681
15024TIP3   OH266562   1.055   6.357   1.521  0.4349  0.5551 -0.4040
15024TIP3    H166563   1.092   6.442   1.496 -0.5610  0.3823 -2.6815
15024TIP3    H266564   0.978   6.379   1.573  0.5426  1.0365 -0.4402
15025TIP3   OH266565   3.759   3.135  15.930 -0.5530 -0.1654  0.7504
15025TIP3    H166566   3.781   3.217  15.975  0.2099 -1.0106  1.9417
15025TIP3    H266567   3.831   3.076  15.949 -1.0009 -1.0810 -0.2584
15026TIP3   OH266568   3.994   3.879   0.052  0.0124 -0.3316 -0.3618
15026TIP3    H166569   4.007   3.971   0.076 -0.5518 -0.5616  0.8673
15026TIP3    H266570   3.925   3.881  -0.015 -0.7604  0.0715  0.4270
15027TIP3   OH266571   4.277   6.781  14.347 -0.4314 -0.1507  0.2961
15027TIP3    H166572   4.361   6.783  14.392 -0.2398  0.3109 -0.0732
15027TIP3    H266573   4.296   6.813  14.259 -0.7557 -1.2442 -0.1924
15028TIP3   OH266574   2.818   6.561  11.997  0.1795  0.1878 -0.0718
15028TIP3    H166575   2.760   6.526  12.065  0.2522  0.8613  0.3426
15028TIP3    H266576   2.899   6.581  12.042  0.1676  0.8113 -0.3110
15029TIP3   OH266577   4.059   1.606   0.115 -0.3756  0.3565  0.0934
15029TIP3    H166578   4.115   1.531   0.137 -2.4396 -0.6307  2.4351
15029TIP3    H266579   4.106   1.682   0.150  1.3918  0.1495 -1.6639
15030TIP3   OH266580   0.152   3.632   4.022 -0.1342 -0.1004  0.0728
15030TIP3    H166581   0.207   3.703   4.054 -0.2194  0.8767 -1.8041
15030TIP3    H266582   0.213   3.570   3.981 -0.2812  0.3547 -0.8706
15031TIP3   OH266583   0.417   1.126  15.731  0.0266  0.5955  0.6104
15031TIP3    H166584   0.503   1.157  15.702  0.6768 -2.1154 -0.7475
15031TIP3    H266585   0.430   1.101  15.822  1.0319 -0.6927  0.1574
15032TIP3   OH266586   1.239   4.734  12.524  0.0872  0.5712 -0.6902
15032TIP3    H166587   1.194   4.790  12.587  1.7006  0.5419  0.5926
15032TIP3    H266588   1.170   4.684  12.481 -1.1435  1.2439  0.4443
15033TIP3   OH266589   0.953   0.391  12.213  0.2931  0.5895  0.7893
15033TIP3    H166590   0.934   0.318  12.154  1.7012 -0.2460  1.3120
15033TIP3    H266591   0.869   0.412  12.254 -0.3329 -0.0319 -0.1472
15034TIP3   OH266592   5.057   0.481  16.170 -0.5524  0.2086  0.5034
15034TIP3    H166593   5.026   0.571  16.171  0.1254  0.4905 -0.8539
15034TIP3    H266594   5.013   0.441  16.096  0.0048 -0.2410  0.4036
15035TIP3   OH266595   3.272   4.089  13.789 -0.4144 -0.2345  0.1227
15035TIP3    H166596   3.256   4.164  13.847 -0.2187  1.0381 -1.4018
15035TIP3    H266597   3.193   4.035  13.797 -2.0699  1.8218 -1.1825
15036TIP3   OH266598   0.037   2.984   1.071 -0.0291  0.0917  0.1087
15036TIP3    H166599   0.036   3.036   0.990 -0.6440  0.7504  0.5297
15036TIP3    H266600  -0.054   2.955   1.081 -0.1244  0.6656  0.9676
15037TIP3   OH266601   2.086   1.505   4.211  0.3416  0.1181  0.3843
15037TIP3    H166602   2.026   1.431   4.205  1.1616 -0.7234  2.0035
15037TIP3    H266603   2.160   1.473   4.263  2.2165  1.1225 -1.5005
15038TIP3   OH266604   2.526   5.644   5.597  0.1996 -0.3518 -0.0457
15038TIP3    H166605   2.523   5.639   5.693  0.6265 -0.4011 -0.0313
15038TIP3    H266606   2.619   5.655   5.577  0.0981 -0.2184 -0.4499
15039TIP3   OH266607   1.145   0.840  11.333  0.1607  0.5541  0.3052
15039TIP3    H166608   1.159   0.800  11.247  0.8897  1.5743 -0.0661
15039TIP3    H266609   1.173   0.773  11.395  0.6620  0.1979 -0.2908
15040TIP3   OH266610   6.664   2.896  17.203 -0.4407  0.1856 -0.3534
15040TIP3    H166611   6.695   2.975  17.159  0.0096 -0.1795 -0.6977
15040TIP3    H266612   6.713   2.824  17.163  2.7801  0.1056  3.1143
15041TIP3   OH266613   0.546   1.257   0.034  0.8070 -0.4085 -0.2433
15041TIP3    H166614   0.512   1.284  -0.051 -1.4166 -0.3238  0.6164
15041TIP3    H266615   0.529   1.331   0.092  0.9952 -1.0084  0.5977
15042TIP3   OH266616   0.625   4.677  15.337 -0.0188  0.0315  0.3821
15042TIP3    H166617   0.682   4.600  15.332  0.7993  0.6965 -2.3054
15042TIP3    H266618   0.668   4.734  15.400  2.1312  0.2855 -1.1778
15043TIP3   OH266619   4.764   0.320   5.965 -0.4308  0.1498  0.2956
15043TIP3    H166620   4.765   0.413   5.944 -1.0748  0.3174  0.9998
15043TIP3    H266621   4.765   0.316   6.060 -1.7352 -0.5322  0.3070
15044TIP3   OH266622   0.093   1.664   3.406  0.5551 -0.0361 -0.5201
15044TIP3    H166623   0.051   1.749   3.418  1.2872  0.1576  0.7530
15044TIP3    H266624   0.036   1.602   3.452 -0.0607 -0.2851 -1.5758
15045TIP3   OH266625   0.952   4.743   2.573 -0.3182 -0.3140  0.3605
15045TIP3    H166626   0.929   4.665   2.624 -0.2084  0.9512  2.4133
15045TIP3    H266627   1.047   4.747   2.576 -0.2617 -0.6062 -0.5832
15046TIP3   OH266628   0.305   5.996   5.435  0.1319 -0.0869 -0.2891
15046TIP3    H166629   0.310   6.082   5.478 -0.4580 -1.1213  1.9436
15046TIP3    H266630   0.379   5.947   5.469 -0.5302 -1.0416 -0.1765
15047TIP3   OH266631   4.525   2.325   3.218 -0.0914  0.2340  0.5549
15047TIP3    H166632   4.431   2.330   3.235 -0.3866 -0.2465 -0.8021
15047TIP3    H266633   4.562   2.287   3.298 -1.0780  0.1497  0.9852
15048TIP3   OH266634   2.521   3.207  13.710  0.1821 -0.2154 -0.0516
15048TIP3    H166635   2.511   3.149  13.785  1.0623 -0.9370 -0.4638
15048TIP3    H266636   2.504   3.151  13.634 -0.7977  0.5255 -0.4035
15049TIP3   OH266637   3.084   5.384  11.204  0.4708 -0.4512  0.3078
15049TIP3    H166638   3.169   5.399  11.163  1.0416  2.3519  2.2255
15049TIP3    H266639   3.101   5.388  11.298 -1.6732 -0.5697  0.7740
15050TIP3   OH266640   1.288   0.744   6.316 -0.3887 -0.7069 -0.2876
15050TIP3    H166641   1.321   0.770   6.402  0.6266  2.1481 -1.4261
15050TIP3    H266642   1.201   0.785   6.311  0.6466  1.5151 -1.5592
15051TIP3   OH266643   1.052   4.654   0.950  0.7754 -0.7320  0.2035
15051TIP3    H166644   1.134   4.621   0.913  0.6216 -1.5862  0.5879
15051TIP3    H266645   1.061   4.639   1.044  0.9617  0.9634  0.4793
15052TIP3   OH266646   0.695   2.884  17.165  0.4236  0.2556  0.2348
15052TIP3    H166647   0.613   2.865  17.212  0.9210  0.2041  1.1072
15052TIP3    H266648   0.751   2.924  17.231  1.3237 -0.2604 -0.2009
15053TIP3   OH266649   6.542   1.218  11.721  0.1791 -0.2323  0.0837
15053TIP3    H166650   6.540   1.169  11.639  0.7958  0.7037 -0.5152
15053TIP3    H266651   6.480   1.290  11.708 -0.4294 -0.6061  0.8072
15054TIP3   OH266652   5.618   6.672  15.273 -0.1282  0.0890  0.2920
15054TIP3    H166653   5.710   6.669  15.299 -0.3227  0.1466  1.0250
15054TIP3    H266654   5.609   6.755  15.226  0.0156  0.4983  0.9688
15055TIP3   OH266655   6.590   4.981   3.824 -0.0151 -0.5664 -0.4725
15055TIP3    H166656   6.597   5.075   3.838 -0.8477 -0.6071  0.2522
15055TIP3    H266657   6.534   4.949   3.895  1.2605 -1.7976  0.0275
15056TIP3   OH266658   5.675   0.292  10.734  0.1693 -0.3175 -0.3446
15056TIP3    H166659   5.720   0.372  10.762 -0.5214  0.1934 -0.6679
15056TIP3    H266660   5.743   0.225  10.736  0.6537  0.1750  0.3898
15057TIP3   OH266661   6.667   4.749   0.907  0.0110 -0.3533 -0.9533
15057TIP3    H166662   6.649   4.806   0.981 -0.2971  0.2482 -1.4796
15057TIP3    H266663   6.733   4.796   0.855  1.1732 -1.3360 -0.4240
15058TIP3   OH266664   5.073   4.113   5.763 -0.1597 -0.1309 -0.8372
15058TIP3    H166665   5.061   4.208   5.751 -2.6736 -0.3691 -0.8205
15058TIP3    H266666   5.146   4.106   5.824 -0.7610  1.8840  0.2238
15059TIP3   OH266667   5.275   6.723   5.463  0.1936  0.6639  0.4290
15059TIP3    H166668   5.247   6.641   5.505  3.0690 -1.2276 -1.0417
15059TIP3    H266669   5.200   6.748   5.409 -0.0187 -2.3500 -0.8733
15060TIP3   OH266670   0.256   1.205  13.356 -0.8731  0.2012  0.0012
15060TIP3    H166671   0.337   1.167  13.322  0.6821  2.0382  1.4287
15060TIP3    H266672   0.228   1.144  13.425 -1.3450 -1.0002 -1.2220
15061TIP3   OH266673   1.784   1.759   5.901 -0.0495 -0.3888  0.6291
15061TIP3    H166674   1.806   1.836   5.849 -0.7874  0.5231  1.6144
15061TIP3    H266675   1.852   1.754   5.968 -0.0180 -0.5672  0.5840
15062TIP3   OH266676   3.378   5.645  15.038  0.5756 -0.2132 -0.1238
15062TIP3    H166677   3.435   5.591  14.983  0.7138 -0.7823  0.5725
15062TIP3    H266678   3.291   5.605  15.028  0.6680 -0.5411  0.3491
15063TIP3   OH266679   3.287   6.313  11.585 -0.1500  0.1671 -0.3214
15063TIP3    H166680   3.299   6.364  11.505 -1.7957  0.4214 -0.4449
15063TIP3    H266681   3.292   6.377  11.656  1.0142 -0.0129 -0.2338
15064TIP3   OH266682   1.060   1.564  14.659  0.3116  0.3856 -0.1194
15064TIP3    H166683   1.060   1.519  14.574 -2.5094  1.4666 -0.7884
15064TIP3    H266684   1.065   1.493  14.723 -1.4199 -0.7640 -1.1717
15065TIP3   OH266685   5.212   5.616   4.182 -0.4352  0.5464  0.4202
15065TIP3    H166686   5.159   5.608   4.261 -0.1654  1.0239  0.6577
15065TIP3    H266687   5.236   5.709   4.180  2.2205 -0.0447  1.5105
15066TIP3   OH266688   1.125   2.079   3.081  0.1435 -0.1361 -0.4448
15066TIP3    H166689   1.197   2.017   3.094 -0.6044 -1.1683 -0.9674
15066TIP3    H266690   1.163   2.165   3.096  1.8998 -0.5154 -2.2698
15067TIP3   OH266691   1.520   5.132  11.174  0.3373  0.1456  0.1081
15067TIP3    H166692   1.466   5.060  11.206  1.8717 -2.0358 -1.9003
15067TIP3    H266693   1.460   5.184  11.119  0.1455 -2.3009 -2.2036
15068TIP3   OH266694   6.014   4.802  10.738 -0.0952 -0.3065  0.1920
15068TIP3    H166695   6.108   4.785  10.742  0.0412  0.4303  0.0901
15068TIP3    H266696   5.981   4.771  10.822  0.0552 -1.6155 -0.1997
15069TIP3   OH266697   0.434   4.053  11.906 -0.2857  0.3020 -0.1629
15069TIP3    H166698   0.437   4.145  11.933  1.6517  0.6898 -1.4550
15069TIP3    H266699   0.357   4.048  11.849 -1.6642  0.5705  1.6078
15070TIP3   OH266700   0.632   5.276   0.151 -0.3005  0.2491 -0.2842
15070TIP3    H166701   0.697   5.206   0.157  0.2619  0.7742 -0.0862
15070TIP3    H266702   0.564   5.241   0.094 -1.3332 -1.4831  1.8343
15071TIP3   OH266703   3.664   6.105  11.242 -0.1385  0.1067  0.1529
15071TIP3    H166704   3.643   6.046  11.315 -1.2734 -1.4974 -1.4070
15071TIP3    H266705   3.611   6.073  11.169  2.4903  0.3417 -1.9944
15072TIP3   OH266706   2.254   5.519   5.636 -0.2854  0.0071 -0.6509
15072TIP3    H166707   2.199   5.584   5.593  0.0047  1.2246  0.7517
15072TIP3    H266708   2.341   5.559   5.639  0.3610 -1.2573 -1.4585
15073TIP3   OH266709   3.367   0.523   2.814  0.4604 -0.3174  0.1958
15073TIP3    H166710   3.428   0.517   2.887 -0.3837  1.8079  1.1814
15073TIP3    H266711   3.282   0.501   2.853  0.3691 -1.9990 -0.8637
15074TIP3   OH266712   1.887   5.753  13.252  0.4513  0.1706  0.3160
15074TIP3    H166713   1.905   5.797  13.334  1.8152  0.4933 -0.1207
15074TIP3    H266714   1.974   5.742  13.211 -0.1541 -0.2790 -0.9121
15075TIP3   OH266715   0.831   1.924  12.721  0.4385  0.0002 -0.2285
15075TIP3    H166716   0.748   1.878  12.739  0.7945  0.1672  2.1833
15075TIP3    H266717   0.892   1.854  12.697  0.3407 -0.5331  0.9866
15076TIP3   OH266718   4.523   5.268  12.752 -0.1629  0.2896  0.3728
15076TIP3    H166719   4.440   5.247  12.796 -1.0461  1.2342 -0.7613
15076TIP3    H266720   4.554   5.347  12.797  0.6741 -0.6256  1.4624
15077TIP3   OH266721   0.695   1.993   5.347 -0.7150 -0.0049 -0.2723
15077TIP3    H166722   0.617   2.044   5.329 -0.7559  0.6411  1.4781
15077TIP3    H266723   0.758   2.056   5.383  0.3998 -0.6220 -1.0688
15078TIP3   OH266724   5.886   4.671   2.553  0.3285 -0.2481 -0.1760
15078TIP3    H166725   5.898   4.765   2.568 -0.7146 -0.2092  0.5478
15078TIP3    H266726   5.825   4.644   2.622 -0.2671 -1.2300 -1.0652
15079TIP3   OH266727   5.622   0.958  12.622 -0.2934  0.0065 -0.3449
15079TIP3    H166728   5.561   0.886  12.605  0.7376 -0.9689 -0.0247
15079TIP3    H266729   5.687   0.952  12.552 -0.4032  0.8717 -0.5321
15080TIP3   OH266730   0.274   5.651   2.454 -0.1001 -0.0857 -0.3866
15080TIP3    H166731   0.226   5.585   2.505  2.1310 -1.4027  0.1800
15080TIP3    H266732   0.348   5.674   2.510 -0.8720  3.1067 -0.5172
15081TIP3   OH266733   4.299   2.117   5.455 -0.3915  0.0388  0.4501
15081TIP3    H166734   4.215   2.073   5.468  0.4942 -1.7502  0.3722
15081TIP3    H266735   4.326   2.092   5.366  0.2489  0.5668  0.4816
15082TIP3   OH266736   1.164   4.439  16.985 -0.2170  0.2036  0.4710
15082TIP3    H166737   1.258   4.449  16.971 -0.3186  0.8880  0.2389
15082TIP3    H266738   1.152   4.346  17.006  0.7235  0.4738  2.3032
15083TIP3   OH266739   3.720   0.910   6.593  0.0614 -0.2655  0.0766
15083TIP3    H166740   3.815   0.918   6.596 -0.0195  1.2633  3.0245
15083TIP3    H266741   3.691   0.987   6.545  0.2931  0.2030  0.6706
15084TIP3   OH266742   1.769   5.593   4.258 -0.4072  0.5373 -0.9705
15084TIP3    H166743   1.804   5.635   4.179 -0.0551 -1.0181 -1.6888
15084TIP3    H266744   1.719   5.661   4.302 -0.6029  1.4434 -2.5384
15085TIP3   OH266745   4.824   6.730  11.964 -0.3984  0.0359  0.6460
15085TIP3    H166746   4.882   6.704  11.893  1.0046 -0.7668  2.0303
15085TIP3    H266747   4.851   6.820  11.984 -0.8349  0.2843  0.1483
15086TIP3   OH266748   6.347   5.857  16.087  0.5575  0.4107 -0.6033
15086TIP3    H166749   6.292   5.871  16.010  0.9563  2.2632 -0.6169
15086TIP3    H266750   6.436   5.851  16.052  0.5090 -1.4346 -0.4858
15087TIP3   OH266751   1.186   4.161  17.036  0.1041  0.3156  0.3320
15087TIP3    H166752   1.127   4.091  17.008  0.0275  0.6027 -0.2376
15087TIP3    H266753   1.190   4.152  17.132  0.6272 -0.8951  0.2227
15088TIP3   OH266754   0.613   4.373   2.255 -0.6790  0.0298  0.3210
15088TIP3    H166755   0.612   4.331   2.169 -1.9465  3.1339 -1.3393
15088TIP3    H266756   0.704   4.402   2.266 -0.5083 -0.3963  0.0879
15089TIP3   OH266757   1.429   1.650  13.413  0.1856  0.3034  0.4445
15089TIP3    H166758   1.343   1.642  13.454  0.2083  1.0676  0.6537
15089TIP3    H266759   1.434   1.742  13.386 -0.6884 -0.5209 -3.1551
15090TIP3   OH266760   0.943   0.538   3.959  0.3969 -0.3287 -0.1606
15090TIP3    H166761   1.016   0.476   3.959  0.9988  0.3138 -1.7187
15090TIP3    H266762   0.971   0.607   3.898  0.1372  1.9389  2.1184
15091TIP3   OH266763   5.064   5.226   4.193  0.3840 -0.2021  0.0912
15091TIP3    H166764   5.080   5.275   4.112 -0.3461 -0.4625 -0.2185
15091TIP3    H266765   5.057   5.293   4.261 -0.9546  0.1665 -0.3818
15092TIP3   OH266766   3.163   3.751  16.527 -0.3926  0.2138 -0.9882
15092TIP3    H166767   3.193   3.819  16.588 -0.9804  1.1290 -1.6785
15092TIP3    H266768   3.071   3.740  16.547 -0.0454 -1.3028 -0.0620
15093TIP3   OH266769   1.341   3.203  11.579 -0.2408  0.4279 -0.5096
15093TIP3    H166770   1.297   3.171  11.658 -0.1721 -1.4634 -1.1714
15093TIP3    H266771   1.368   3.292  11.600 -2.8386  1.0557  0.5328
15094TIP3   OH266772   6.346   6.237   2.839  0.2838 -0.1453 -0.1658
15094TIP3    H166773   6.338   6.331   2.850 -0.8919 -0.0844 -1.3050
15094TIP3    H266774   6.292   6.199   2.909  2.6612 -0.0808  1.8260
15095TIP3   OH266775   3.965   2.839   1.399 -0.4572 -0.0047  0.9888
15095TIP3    H166776   4.041   2.796   1.360 -1.3284 -2.1878  1.5739
15095TIP3    H266777   4.003   2.907   1.456  1.0109 -0.5367  0.7049
15096TIP3   OH266778   6.633   0.196  12.848 -0.1180  0.1929 -0.2439
15096TIP3    H166779   6.597   0.127  12.793 -2.1642 -0.6750  1.9786
15096TIP3    H266780   6.727   0.193  12.833  0.1147 -4.2535  0.9259
15097TIP3   OH266781   1.942   2.500  11.199  0.5971  0.3410  0.4213
15097TIP3    H166782   1.978   2.437  11.261 -0.6677 -0.0104  0.8186
15097TIP3    H266783   1.889   2.448  11.139 -0.6385  1.0252  0.8833
15098TIP3   OH266784   0.899   2.341   2.253  0.5677  0.2099 -0.3542
15098TIP3    H166785   0.845   2.269   2.220  1.6623  0.9432 -4.2409
15098TIP3    H266786   0.955   2.300   2.319 -2.7935 -1.0791  1.9991
15099TIP3   OH266787   3.148   3.304  15.615 -0.0013  0.3298 -0.4278
15099TIP3    H166788   3.165   3.381  15.669 -0.0151  1.1984 -1.6388
15099TIP3    H266789   3.052   3.298  15.611 -0.0356 -0.7691  1.0439
15100TIP3   OH266790   3.357   0.456  12.523  0.3717  0.2144 -0.1306
15100TIP3    H166791   3.352   0.434  12.430  0.0090  1.5654 -0.4637
15100TIP3    H266792   3.437   0.413  12.554 -0.5262 -1.8960 -0.5654
15101TIP3   OH266793   4.029   0.345   1.599 -0.3695 -0.7194 -0.1199
15101TIP3    H166794   4.096   0.392   1.549 -1.4805 -0.1721 -1.1126
15101TIP3    H266795   3.959   0.408   1.612 -0.0601 -0.7874  2.3165
15102TIP3   OH266796   3.809   1.395  15.010 -0.0068  0.6498  0.0189
15102TIP3    H166797   3.830   1.486  14.988  2.1541  0.7068  1.8897
15102TIP3    H266798   3.893   1.356  15.034 -1.2231 -1.0729  1.8432
15103TIP3   OH266799   4.310   2.397  15.891  0.5857 -0.1528  0.3614
15103TIP3    H166800   4.306   2.326  15.955 -0.8144  0.4161  0.9485
15103TIP3    H266801   4.273   2.359  15.812  1.6960 -0.6541  0.0570
15104TIP3   OH266802   6.384   0.682  16.148  0.2656  0.0415 -0.3408
15104TIP3    H166803   6.417   0.694  16.059 -1.2606 -0.0384 -0.9528
15104TIP3    H266804   6.342   0.596  16.146  1.0304 -0.3675  0.7309
15105TIP3   OH266805   3.104   3.577   3.297 -0.0667  0.4054  0.0294
15105TIP3    H166806   3.170   3.626   3.248 -0.4257  1.1818  0.2967
15105TIP3    H266807   3.154   3.514   3.349  0.4758  1.0255  0.2730
15106TIP3   OH266808   4.160   0.723   6.303  0.3297  0.4268  0.3462
15106TIP3    H166809   4.190   0.682   6.385  2.4626  1.0230 -0.0602
15106TIP3    H266810   4.185   0.815   6.312  0.4771  0.5293 -0.8982
15107TIP3   OH266811   1.901   3.157  16.517  0.5669 -0.3731  0.8079
15107TIP3    H166812   1.948   3.239  16.500  1.6635 -1.4008 -1.6755
15107TIP3    H266813   1.808   3.181  16.508  0.8461  0.6968  0.5747
15108TIP3   OH266814   2.514   6.188  15.546 -0.0604  0.5660  0.2232
15108TIP3    H166815   2.440   6.146  15.503  1.6994 -4.6228  1.5588
15108TIP3    H266816   2.573   6.213  15.475 -0.5977 -0.5697 -0.6489
15109TIP3   OH266817   6.616   2.782   2.275 -0.0059  0.1885  0.6944
15109TIP3    H166818   6.563   2.728   2.333 -0.2007 -0.6663 -0.2494
15109TIP3    H266819   6.691   2.727   2.253 -0.3820  0.1298 -0.5630
15110TIP3   OH266820   3.257   2.014   2.697 -0.1256  0.2293 -0.5897
15110TIP3    H166821   3.309   1.973   2.628 -0.7209  0.2196 -1.0368
15110TIP3    H266822   3.167   1.988   2.678 -0.5521  1.9209 -1.0196
15111TIP3   OH266823   3.797   4.162  15.342  0.1082  0.4312 -0.6702
15111TIP3    H166824   3.877   4.214  15.352  0.2698  0.1607 -0.5296
15111TIP3    H266825   3.795   4.106  15.420  0.5012 -0.5228 -1.3250
15112TIP3   OH266826   4.884   4.581  11.389 -0.0575 -0.4594 -0.3291
15112TIP3    H166827   4.927   4.592  11.305 -1.3355  1.1335 -0.8003
15112TIP3    H266828   4.933   4.637  11.449  0.5020 -1.1643 -0.1024
15113TIP3   OH266829   0.341   4.700  13.635 -0.3216  0.6143  0.3732
15113TIP3    H166830   0.268   4.762  13.635 -1.4522 -0.6502 -0.6504
15113TIP3    H266831   0.305   4.622  13.594  1.6447 -0.0249 -0.2154
15114TIP3   OH266832   2.441   2.842  11.864  0.0394 -0.7412  0.2244
15114TIP3    H166833   2.506   2.807  11.803  0.6077 -0.8629  0.8957
15114TIP3    H266834   2.437   2.778  11.935  0.6880  0.2504  1.1890
15115TIP3   OH266835   2.367   1.670   4.935  0.2469 -0.3675  0.5210
15115TIP3    H166836   2.433   1.601   4.932 -0.0933 -0.7575  1.5602
15115TIP3    H266837   2.378   1.711   5.021 -0.6808 -0.2673  0.6102
15116TIP3   OH266838   4.085   1.616   4.666  0.6529  0.1328  0.2591
15116TIP3    H166839   4.128   1.562   4.599 -0.1534 -1.9180  1.3190
15116TIP3    H266840   4.010   1.655   4.621 -1.6139 -3.5420  0.5261
15117TIP3   OH266841   3.835   2.677   5.744  0.3186 -0.3268  0.2490
15117TIP3    H166842   3.806   2.737   5.675  1.6220 -0.9355 -0.8826
15117TIP3    H266843   3.829   2.728   5.825 -0.0351  0.8237 -0.4828
15118TIP3   OH266844   5.848   2.211  13.752 -0.3239 -0.2622 -0.4282
15118TIP3    H166845   5.762   2.168  13.746  0.7363 -3.2538  2.6022
15118TIP3    H266846   5.846   2.256  13.836  0.3400  1.7585 -1.4168
15119TIP3   OH266847   4.447   4.547  13.520  0.3394 -0.0612  0.1036
15119TIP3    H166848   4.518   4.511  13.467 -0.3670 -1.0654 -0.1893
15119TIP3    H266849   4.482   4.546  13.610  0.4792 -1.1348  0.0513
15120TIP3   OH266850   0.955   1.029  11.267  0.6732  0.2141 -0.3507
15120TIP3    H166851   0.868   0.990  11.254  0.7516  0.1466 -0.6853
15120TIP3    H266852   1.008   0.959  11.304  0.7680  0.0459 -0.7929
15121TIP3   OH266853   3.145   2.519  12.925 -0.1747  0.7560  0.2930
15121TIP3    H166854   3.097   2.549  12.848  1.7732  0.4054 -1.1375
15121TIP3    H266855   3.135   2.424  12.923  0.2658  0.7089  0.1799
15122TIP3   OH266856   5.548   5.125   4.436 -0.6026 -0.0076 -0.3988
15122TIP3    H166857   5.484   5.112   4.366 -0.5415 -0.1561 -0.4276
15122TIP3    H266858   5.540   5.048   4.491  0.0217 -0.3555 -0.7769
15123TIP3   OH266859   1.198   4.677  13.559 -0.0085  0.1457  0.0568
15123TIP3    H166860   1.197   4.680  13.463  1.8039 -1.1728 -0.0537
15123TIP3    H266861   1.173   4.588  13.581 -1.0004  0.5988  0.8730
15124TIP3   OH266862   2.241   5.358  11.532 -0.0799 -0.9545  0.1677
15124TIP3    H166863   2.175   5.302  11.572 -0.5070 -0.1878  0.5475
15124TIP3    H266864   2.319   5.346  11.586 -0.2606 -0.9542  0.4290
15125TIP3   OH266865   5.718   1.262  15.899  0.0490 -0.1442 -0.3957
15125TIP3    H166866   5.695   1.244  15.990 -0.5692  2.5167  0.0642
15125TIP3    H266867   5.640   1.305  15.862 -0.4983 -2.9276 -2.8575
15126TIP3   OH266868   1.027   1.371   5.052  0.4521  0.3692 -0.1933
15126TIP3    H166869   1.026   1.450   5.105  0.7586  1.4466 -1.7476
15126TIP3    H266870   0.975   1.308   5.102 -1.3985  2.1192  0.2030
15127TIP3   OH266871   4.923   2.238   4.220 -0.1495  0.2379  0.7859
15127TIP3    H166872   4.920   2.143   4.227 -0.7831  0.2075  0.1916
15127TIP3    H266873   4.918   2.256   4.127 -2.8777  0.8954  0.9693
15128TIP3   OH266874   5.932   2.922   4.816 -0.0494  0.3623 -0.0342
15128TIP3    H166875   5.915   3.016   4.807  1.2414  0.7230  1.0268
15128TIP3    H266876   5.849   2.881   4.794 -0.8434  1.7848  0.1704
15129TIP3   OH266877   4.042   0.574   4.892  0.3795  0.2251 -0.1098
15129TIP3    H166878   3.954   0.607   4.876 -0.0631  0.3385  2.1532
15129TIP3    H266879   4.029   0.484   4.922  0.7851  0.8574  2.1772
15130TIP3   OH266880   3.693   3.155  13.433  0.5508 -0.6608 -0.0281
15130TIP3    H166881   3.757   3.095  13.395  1.5673  0.3047  0.0940
15130TIP3    H266882   3.635   3.178  13.361  2.4191  1.1032 -1.0426
15131TIP3   OH266883   3.209   6.487  11.023 -0.0241  0.0778  0.0444
15131TIP3    H166884   3.245   6.509  10.937  2.0234 -1.2855  0.4732
15131TIP3    H266885   3.190   6.572  11.063  0.7416  0.8081 -1.0535
15132TIP3   OH266886   6.516   5.149  16.292 -0.3270 -0.6148  0.1299
15132TIP3    H166887   6.442   5.101  16.256 -0.8033  2.0587 -2.9384
15132TIP3    H266888   6.593   5.104  16.257 -0.6639 -0.8531 -0.3192
15133TIP3   OH266889   0.182   2.052  12.447 -0.3226 -0.2549 -0.5791
15133TIP3    H166890   0.101   2.009  12.419  0.4363 -1.8406 -0.4284
15133TIP3    H266891   0.181   2.046  12.542  0.7663 -1.8832 -0.6285
15134TIP3   OH266892   4.094   2.607   5.079  0.0114 -0.0760 -0.3921
15134TIP3    H166893   4.072   2.639   4.992  2.1690  0.2163 -0.9049
15134TIP3    H266894   4.188   2.623   5.087  0.0227 -0.8488  1.6808
15135TIP3   OH266895   5.572   1.823  15.940  0.1601  0.0081  0.5198
15135TIP3    H166896   5.563   1.728  15.938  0.2719  0.0040 -0.0022
15135TIP3    H266897   5.630   1.841  16.014  0.6480 -0.3752  0.2343
15136TIP3   OH266898   1.357   2.268   5.758 -0.3257  0.1260  0.1330
15136TIP3    H166899   1.350   2.296   5.667 -2.7932 -1.9854 -0.4519
15136TIP3    H266900   1.421   2.196   5.757  0.0220  0.4345  0.1634
15137TIP3   OH266901   4.601   6.017  10.657 -0.1349  0.4713 -0.2579
15137TIP3    H166902   4.560   5.935  10.687 -2.7293  1.2535 -1.4043
15137TIP3    H266903   4.637   5.995  10.571 -0.1640  0.3423 -0.2382
15138TIP3   OH266904   1.402   0.299   0.791  0.1439  0.3635  0.5430
15138TIP3    H166905   1.385   0.232   0.857  3.0878 -0.2765  0.7794
15138TIP3    H266906   1.389   0.255   0.707 -0.3684  0.2290  0.6903
15139TIP3   OH266907   3.514   3.873  13.161  0.3448  0.2378  0.0117
15139TIP3    H166908   3.476   3.871  13.249 -1.7139  0.6956 -0.8110
15139TIP3    H266909   3.517   3.966  13.138  0.4308  0.0938 -0.5716
15140TIP3   OH266910   1.074   1.595   5.208 -0.3779  0.8490  0.4957
15140TIP3    H166911   1.009   1.665   5.218  0.2781  1.2860  1.9437
15140TIP3    H266912   1.127   1.622   5.133 -1.0436  1.1641  0.1346
15141TIP3   OH266913   3.672   5.170   4.082 -0.0707  0.2627  0.4964
15141TIP3    H166914   3.618   5.242   4.048  0.9325  1.2423  0.8866
15141TIP3    H266915   3.730   5.212   4.145  1.0724 -0.7611  0.1710
15142TIP3   OH266916   3.744   3.564   2.362  0.4460 -0.2199 -0.2323
15142TIP3    H166917   3.661   3.611   2.370 -0.3280 -1.7317  1.3901
15142TIP3    H266918   3.722   3.484   2.313  0.6059 -1.2501  1.2975
15143TIP3   OH266919   2.570   0.623  12.601 -0.1191 -0.4733  0.1004
15143TIP3    H166920   2.559   0.612  12.695  1.0279  0.6579  0.3943
15143TIP3    H266921   2.659   0.594  12.583 -0.4888 -1.1502 -0.7354
15144TIP3   OH266922   6.595   2.446   5.681 -0.4625  0.6489 -0.1447
15144TIP3    H166923   6.690   2.461   5.685 -0.4064  1.2415 -2.4745
15144TIP3    H266924   6.574   2.409   5.767  2.0375 -0.4299  0.1063
15145TIP3   OH266925   2.771   0.162  10.614 -0.5824  0.2947  0.0052
15145TIP3    H166926   2.784   0.174  10.708 -2.3908  0.9567  0.2073
15145TIP3    H266927   2.723   0.240  10.587  0.0585  0.1947 -1.5173
15146TIP3   OH266928   5.971   0.713  17.141  0.9070  0.4155 -0.3500
15146TIP3    H166929   6.015   0.758  17.069  0.1445  2.9152  0.6451
15146TIP3    H266930   5.883   0.748  17.142  0.3705 -0.8561  0.7657
15147TIP3   OH266931   2.002   1.421   4.829 -0.1928  0.0372  0.0811
15147TIP3    H166932   1.919   1.427   4.782 -0.5138  1.6013  0.8079
15147TIP3    H266933   1.986   1.356   4.898 -0.7904  0.3009  0.1910
15148TIP3   OH266934   2.541   6.405   3.880 -0.3238 -1.0602  0.3192
15148TIP3    H166935   2.547   6.501   3.882 -0.5435 -1.0157 -0.9124
15148TIP3    H266936   2.456   6.387   3.840 -0.8261 -1.7892  1.6340
15149TIP3   OH266937   5.411   4.191   5.413 -0.2455 -0.8136  0.1133
15149TIP3    H166938   5.455   4.110   5.387  2.0993  1.2496 -3.1337
15149TIP3    H266939   5.334   4.195   5.356  1.4746  0.6703 -2.3186
15150TIP3   OH266940   5.056   0.529   0.423 -0.4060  0.1970  0.2606
15150TIP3    H166941   5.133   0.525   0.480  0.5666  0.5560 -0.9794
15150TIP3    H266942   5.069   0.458   0.360 -0.7935  0.6110 -0.2999
15151TIP3   OH266943   4.426   3.098   2.888 -0.3456  0.5142  0.4707
15151TIP3    H166944   4.488   3.109   2.960 -0.1886  1.0414  0.2554
15151TIP3    H266945   4.451   3.164   2.824 -0.9341  0.5253  0.2482
15152TIP3   OH266946   6.659   0.195  11.316  0.6508 -0.3218 -0.0193
15152TIP3    H166947   6.610   0.258  11.368 -0.9867 -0.7930 -0.8936
15152TIP3    H266948   6.630   0.211  11.226  0.4395 -2.0623 -0.2999
15153TIP3   OH266949   5.013   1.196  11.566  0.5510  0.7323 -0.0853
15153TIP3    H166950   4.997   1.288  11.587 -0.3248  0.7081 -0.5910
15153TIP3    H266951   4.931   1.166  11.526  0.7580 -0.3229  0.2529
15154TIP3   OH266952   5.549   4.232  11.004  0.1000 -0.0725  0.6635
15154TIP3    H166953   5.457   4.235  10.978 -0.0916 -0.0398  1.3389
15154TIP3    H266954   5.559   4.303  11.068  0.8502  0.6331 -0.2066
15155TIP3   OH266955   1.229   0.053  12.991  0.4909 -0.0563 -0.3137
15155TIP3    H166956   1.303   0.034  12.934  0.7864  0.6828 -0.1925
15155TIP3    H266957   1.176   0.115  12.941  1.5564  1.8390  0.7884
15156TIP3   OH266958   3.576   2.799  11.302  0.1262 -0.2243 -0.6156
15156TIP3    H166959   3.491   2.757  11.311  0.4881 -1.0281 -0.9058
15156TIP3    H266960   3.576   2.833  11.213 -0.0855  0.2300 -0.4478
15157TIP3   OH266961   3.740   5.033  11.596  0.5084  0.0560 -0.6163
15157TIP3    H166962   3.825   5.025  11.551  1.4501  2.4299  0.5628
15157TIP3    H266963   3.761   5.020  11.689 -0.6038 -0.2678 -0.3989
15158TIP3   OH266964   6.389   0.200  11.526 -0.3218 -0.3034  0.7189
15158TIP3    H166965   6.402   0.279  11.578  0.7959  0.3310 -0.4556
15158TIP3    H266966   6.348   0.231  11.445 -0.6211 -1.0483  0.5780
15159TIP3   OH266967   1.235   2.971   3.428 -0.1316 -0.0300  0.6283
15159TIP3    H166968   1.298   3.043   3.426 -0.8133  0.5686  0.5687
15159TIP3    H266969   1.204   2.963   3.338 -0.5641  0.0495  0.7700
15160TIP3   OH266970   1.934   5.121   1.896  0.1121 -0.7695  0.1185
15160TIP3    H166971   1.940   5.037   1.852  1.9190 -0.8826  0.5384
15160TIP3    H266972   1.896   5.100   1.982 -1.1571 -0.8733 -0.4459
15161TIP3   OH266973   0.559   4.010   4.939  0.2374 -0.2334  0.3214
15161TIP3    H166974   0.515   3.962   4.869 -1.4500  0.9398  0.5403
15161TIP3    H266975   0.651   3.981   4.933 -0.2209 -1.5305 -1.1696
15162TIP3   OH266976   6.387   4.594   3.775 -0.1252 -1.0098 -0.0701
15162TIP3    H166977   6.371   4.680   3.736 -0.4364 -0.5409  1.0313
15162TIP3    H266978   6.301   4.551   3.772  0.0962 -1.4198 -0.8994
15163TIP3   OH266979   4.345   3.498   0.404  0.1665 -0.3801 -0.2513
15163TIP3    H166980   4.361   3.475   0.495  0.2680  1.0810  0.1278
15163TIP3    H266981   4.262   3.546   0.405 -0.7960 -1.9568 -1.2181
15164TIP3   OH266982   0.509   2.604   4.019 -0.6035  0.9407  0.1723
15164TIP3    H166983   0.600   2.624   3.999 -0.7959  1.2804 -0.4075
15164TIP3    H266984   0.472   2.577   3.935 -0.8757  0.1593  0.5346
15165TIP3   OH266985   2.914   4.345  13.425  0.0716 -0.4139 -0.4501
15165TIP3    H166986   2.838   4.315  13.474  0.4503 -0.0401  0.3934
15165TIP3    H266987   2.986   4.342  13.489  0.3913  0.9532 -0.7117
15166TIP3   OH266988   1.805   0.441  11.061  0.0466  0.5519  0.3476
15166TIP3    H166989   1.762   0.459  10.978  0.2641 -1.6806 -0.3335
15166TIP3    H266990   1.840   0.525  11.090 -1.5092  1.6994 -0.9474
15167TIP3   OH266991   6.809   4.422   0.378 -0.1402 -0.1661  0.1692
15167TIP3    H166992   6.751   4.475   0.323 -2.2544  1.8547  3.9279
15167TIP3    H266993   6.872   4.484   0.414  1.3097 -1.4584 -0.0158
15168TIP3   OH266994   1.055   4.282  11.401  0.2268  0.0935  0.1117
15168TIP3    H166995   1.049   4.378  11.403  0.3053  0.0902  1.6422
15168TIP3    H266996   1.139   4.265  11.358  0.7548  0.7533  0.8400
15169TIP3   OH266997   2.352   2.644  12.455  0.5339 -0.3502  0.4351
15169TIP3    H166998   2.426   2.634  12.395  0.3332  0.6467  0.0090
15169TIP3    H266999   2.377   2.716  12.513  1.2903 -2.1275  2.4468
15170TIP3   OH267000   4.060   3.621  12.691  0.4580  0.0497  0.3973
15170TIP3    H167001   4.026   3.534  12.670  2.4737 -0.4790 -0.9787
15170TIP3    H267002   4.006   3.681  12.640  0.6833 -0.6442 -0.6920
15171TIP3   OH267003   1.612   3.577   2.335 -0.3073 -0.0552  0.0563
15171TIP3    H167004   1.679   3.524   2.378  0.6661  2.2212  1.5622
15171TIP3    H267005   1.563   3.617   2.406 -2.4259 -0.5500 -1.0265
15172TIP3   OH267006   5.755   4.609   5.428  0.2924 -0.4079 -0.5308
15172TIP3    H167007   5.703   4.657   5.363  0.3511 -0.3059 -0.5029
15172TIP3    H267008   5.774   4.674   5.496  2.1561  0.1213 -1.4821
15173TIP3   OH267009   0.028   2.555  13.591 -0.2871  0.2142  0.6228
15173TIP3    H167010   0.034   2.460  13.601 -1.5816 -0.1627 -1.5268
15173TIP3    H267011  -0.038   2.581  13.654 -1.1226 -0.5936  0.1175
15174TIP3   OH267012   0.172   3.816  15.133 -0.3393  0.2333 -0.1699
15174TIP3    H167013   0.081   3.788  15.128  0.1069 -2.1503  2.4371
15174TIP3    H267014   0.222   3.735  15.128  1.4126  1.0852  1.8864
15175TIP3   OH267015   4.659   4.280  14.442 -0.0575  0.1110 -0.1714
15175TIP3    H167016   4.641   4.341  14.514  0.2096 -1.4344  1.2620
15175TIP3    H267017   4.581   4.224  14.438 -0.9847  1.4014 -2.4876
15176TIP3   OH267018   0.300   6.569  16.817  0.1448 -0.0148 -0.0051
15176TIP3    H167019   0.318   6.475  16.810  0.5026  0.1367 -1.3729
15176TIP3    H267020   0.386   6.611  16.810  0.0154  0.4150  0.8611
15177TIP3   OH267021   3.682   1.324   4.300 -0.2128  0.1481 -0.1406
15177TIP3    H167022   3.731   1.276   4.366 -0.9206 -1.3416 -0.6364
15177TIP3    H267023   3.746   1.343   4.231  0.3240  0.9266  0.5599
15178TIP3   OH267024   0.224   4.598  12.581 -0.0305 -0.2175  0.7001
15178TIP3    H167025   0.283   4.606  12.656 -1.1990 -1.3844  1.8076
15178TIP3    H267026   0.179   4.683  12.578 -0.7251 -0.5074  2.0282
15179TIP3   OH267027   0.970   0.176   5.757  0.0789  0.2941  0.8253
15179TIP3    H167028   0.951   0.247   5.819 -0.6329  1.4853 -0.6932
15179TIP3    H267029   0.983   0.221   5.673 -0.5550 -1.4034 -0.2150
15180TIP3   OH267030   3.152   0.204   5.264 -0.3369  0.1533  0.1772
15180TIP3    H167031   3.218   0.152   5.310  0.1797 -1.0941 -1.8448
15180TIP3    H267032   3.072   0.153   5.272 -0.3119  0.0766 -0.0691
15181TIP3   OH267033   6.637   3.525   5.941 -0.0740 -0.1400 -0.2518
15181TIP3    H167034   6.676   3.531   5.854 -1.8537  0.0719 -1.0881
15181TIP3    H267035   6.543   3.515   5.925 -0.5678  0.8095  1.6478
15182TIP3   OH267036   0.079   0.451   4.548  0.1904 -0.0871  0.2161
15182TIP3    H167037   0.094   0.508   4.473 -1.0847 -0.7031 -0.5520
15182TIP3    H267038   0.031   0.505   4.610 -2.3541 -0.6335 -1.1220
15183TIP3   OH267039   4.687   0.391  14.664  0.3314  0.6702 -0.3099
15183TIP3    H167040   4.665   0.298  14.673  2.1968  0.1252 -1.0959
15183TIP3    H267041   4.767   0.402  14.715  0.0598  1.9075 -0.1053
15184TIP3   OH267042   1.815   3.880  14.954 -0.0121  0.0133 -0.5948
15184TIP3    H167043   1.761   3.825  15.010 -0.4303 -0.6843 -1.6555
15184TIP3    H267044   1.879   3.920  15.014 -0.1449 -1.0657  0.2976
15185TIP3   OH267045   6.491   5.599  10.927 -0.3437  0.4163  0.0143
15185TIP3    H167046   6.462   5.672  10.982 -0.7810 -0.0408  0.3969
15185TIP3    H267047   6.410   5.564  10.889 -0.2736 -0.6003  0.7554
15186TIP3   OH267048   4.116   0.762   0.552  0.2221 -0.2149 -0.3695
15186TIP3    H167049   4.125   0.706   0.474  0.0282 -0.8568  0.0572
15186TIP3    H267050   4.172   0.720   0.618 -1.9577 -1.4652  0.7911
15187TIP3   OH267051   2.190   0.807   1.454  0.5161  0.1093  0.0165
15187TIP3    H167052   2.118   0.859   1.420  0.9803  0.0809 -1.0744
15187TIP3    H267053   2.189   0.727   1.400  1.5486  0.2561 -0.2531
15188TIP3   OH267054   0.107   0.442   5.697 -0.2273  0.0339 -0.7982
15188TIP3    H167055   0.032   0.497   5.718  0.1783  0.7283 -1.1615
15188TIP3    H267056   0.074   0.352   5.708 -1.5028  0.2898 -2.2404
15189TIP3   OH267057   6.440   5.711  13.972  1.1055  0.1809  0.1284
15189TIP3    H167058   6.445   5.699  13.877  1.7305  1.3994 -0.0090
15189TIP3    H267059   6.380   5.642  14.002  0.8613 -0.1835 -1.1518
15190TIP3   OH267060   6.426   1.927   6.047  0.4547  0.0921 -0.6524
15190TIP3    H167061   6.364   1.980   5.997 -0.4840 -1.0302 -0.7122
15190TIP3    H267062   6.435   1.974   6.130 -3.2017 -1.3419  0.8073
15191TIP3   OH267063   4.106   0.475   3.225  0.2418 -0.2406 -0.4172
15191TIP3    H167064   4.094   0.433   3.140 -1.7477 -1.9418  0.5896
15191TIP3    H267065   4.051   0.553   3.222  1.0159  0.2937 -1.0286
15192TIP3   OH267066   6.359   1.762   4.699 -0.2202 -0.0188 -0.3516
15192TIP3    H167067   6.398   1.849   4.702  1.1022 -0.6091 -0.0661
15192TIP3    H267068   6.414   1.712   4.639 -0.2952 -0.9818  0.3587
15193TIP3   OH267069   0.289   0.865   0.224 -0.0824  0.0680  0.3023
15193TIP3    H167070   0.237   0.786   0.237  0.5647 -0.2974  0.7002
15193TIP3    H267071   0.238   0.917   0.160 -1.0333 -0.1754  0.8402
15194TIP3   OH267072   5.352   2.606  11.935  0.1741 -0.2790 -0.1794
15194TIP3    H167073   5.284   2.579  11.997 -0.0079  0.3804 -0.0879
15194TIP3    H267074   5.320   2.574  11.850 -0.6420  0.6924 -0.2596
15195TIP3   OH267075   1.300   6.231  12.262  0.0149 -0.0134 -0.0302
15195TIP3    H167076   1.268   6.320  12.244 -0.1511 -0.0006  0.3238
15195TIP3    H267077   1.366   6.244  12.331 -2.0011 -0.4570  2.0941
15196TIP3   OH267078   4.218   0.821  13.441  0.1670  0.3897  0.3349
15196TIP3    H167079   4.245   0.734  13.470 -1.4909 -0.1817  0.2926
15196TIP3    H267080   4.171   0.805  13.359 -1.5756  1.1053  1.1575
15197TIP3   OH267081   4.376   2.349  12.597 -0.7201  0.4455 -0.3101
15197TIP3    H167082   4.310   2.373  12.531  0.3786  0.4270 -1.4476
15197TIP3    H267083   4.455   2.396  12.570  0.5998 -1.8654 -0.7371
15198TIP3   OH267084   2.685   1.210  13.175  0.4180 -0.5931  0.2161
15198TIP3    H167085   2.676   1.286  13.233 -0.4037  1.6012 -2.5683
15198TIP3    H267086   2.771   1.175  13.196  0.6367  0.7956  1.9385
15199TIP3   OH267087   0.436   6.583  12.674 -0.0565 -0.2694  0.1462
15199TIP3    H167088   0.528   6.609  12.678  0.7394 -2.3975 -1.9940
15199TIP3    H267089   0.436   6.489  12.690 -1.5029 -0.7878 -2.3029
15200TIP3   OH267090   5.972   3.509  15.486  0.0392  0.0270  0.2131
15200TIP3    H167091   5.937   3.504  15.397 -1.0816  3.3913  0.3361
15200TIP3    H267092   6.058   3.550  15.475 -0.5296  1.4192  0.6800
15201TIP3   OH267093   0.268   2.673  13.712 -0.2054 -0.5146 -0.5358
15201TIP3    H167094   0.195   2.631  13.667 -0.7692  0.4179 -0.5149
15201TIP3    H267095   0.302   2.605  13.771 -0.6602 -1.1420 -0.9847
15202TIP3   OH267096   6.189   3.936   4.818 -0.0278  0.6064  0.2761
15202TIP3    H167097   6.140   3.965   4.894 -0.7791 -0.9103  0.4090
15202TIP3    H267098   6.123   3.928   4.748  0.1081 -0.7913  0.2736
15203TIP3   OH267099   1.153   0.356  17.126  0.4734 -0.8092 -0.1609
15203TIP3    H167100   1.204   0.326  17.051  1.3301 -1.2603  0.5894
15203TIP3    H267101   1.081   0.406  17.087  1.8080  0.3686 -1.2372
15204TIP3   OH267102   1.697   4.184  13.961 -0.1616  0.6148 -0.0682
15204TIP3    H167103   1.664   4.117  14.021  1.7512 -0.0522  0.3080
15204TIP3    H267104   1.625   4.245  13.951 -1.6242 -0.9636  0.3873
15205TIP3   OH267105   3.184   1.835   0.714  0.1813  0.2418  0.2928
15205TIP3    H167106   3.239   1.828   0.636  0.1422 -1.8298  0.3949
15205TIP3    H267107   3.247   1.843   0.787  0.2204  1.9388  0.1195
15206TIP3   OH267108   2.110   5.228   6.596 -0.7226 -0.1621 -0.1810
15206TIP3    H167109   2.165   5.200   6.670 -0.1096  1.8056  0.1508
15206TIP3    H267110   2.127   5.321   6.587 -2.1572 -0.0016 -1.6897
15207TIP3   OH267111   1.684   6.747  11.438 -0.4152  0.3847 -0.5283
15207TIP3    H167112   1.608   6.798  11.468 -0.3255 -0.4726  1.2607
15207TIP3    H267113   1.663   6.725  11.347 -0.9862  2.5802 -0.9999
15208TIP3   OH267114   4.734   0.819  17.197 -0.4160  0.4957  0.7159
15208TIP3    H167115   4.669   0.842  17.131 -0.7898 -0.9154  0.5650
15208TIP3    H267116   4.684   0.805  17.277 -0.1065  0.9244  0.9948
15209TIP3   OH267117   1.558   4.567  12.806 -0.3291  0.1190 -0.1750
15209TIP3    H167118   1.589   4.505  12.739  0.6310 -1.0423  1.2923
15209TIP3    H267119   1.530   4.644  12.756  0.5127 -0.6427 -1.9025
15210TIP3   OH267120   6.512   0.335  15.073 -0.4587 -0.2981 -0.8395
15210TIP3    H167121   6.467   0.265  15.025  0.3968 -0.8341 -0.8924
15210TIP3    H267122   6.542   0.395  15.004  1.8974 -1.7237 -1.1861
15211TIP3   OH267123   1.026   1.562   1.046  0.0406 -0.3841  0.0052
15211TIP3    H167124   0.986   1.609   0.973  1.1351  0.0625 -0.3214
15211TIP3    H267125   1.005   1.614   1.123  2.5571  1.5780 -0.5267
15212TIP3   OH267126   6.562   2.872  16.618 -0.1791  0.1384  0.2294
15212TIP3    H167127   6.539   2.962  16.637  0.4814 -0.1877  2.9537
15212TIP3    H267128   6.642   2.878  16.565 -0.0450  1.1651  0.5395
15213TIP3   OH267129   3.606   0.860  16.673  0.2182 -0.0117 -0.1971
15213TIP3    H167130   3.541   0.822  16.616  0.4076 -0.8947  0.1564
15213TIP3    H267131   3.655   0.785  16.707  1.4933  0.6305 -0.5484
15214TIP3   OH267132   0.207   4.233  11.496 -0.2616  0.1272  0.0856
15214TIP3    H167133   0.157   4.314  11.487 -1.8752 -0.7191  0.9141
15214TIP3    H267134   0.175   4.177  11.425 -1.1842 -0.7244  1.1191
15215TIP3   OH267135   4.247   1.067  16.110  0.5429 -0.7512  0.2731
15215TIP3    H167136   4.324   1.090  16.161 -1.3688  0.7548  2.7171
15215TIP3    H267137   4.233   1.142  16.052  0.9597 -1.0743 -0.2511
15216TIP3   OH267138   5.993   2.380   3.481 -0.0762  0.0032 -0.3589
15216TIP3    H167139   5.997   2.324   3.403  0.0815  0.3866 -0.6333
15216TIP3    H267140   6.047   2.336   3.545  0.1231 -0.1142 -0.6051
15217TIP3   OH267141   3.433   1.893   4.307  0.1978  0.1415  0.5110
15217TIP3    H167142   3.357   1.945   4.332 -0.1580  0.2340 -0.7404
15217TIP3    H267143   3.398   1.805   4.292  0.3422  0.1679  0.0043
15218TIP3   OH267144   4.286   4.779  11.392 -0.0927 -0.0224 -0.6384
15218TIP3    H167145   4.248   4.784  11.305  1.1250  0.9325 -1.1472
15218TIP3    H267146   4.213   4.793  11.452 -0.7240  0.6817 -1.5552
15219TIP3   OH267147   2.182   4.046  11.893  0.3290  0.0359 -0.6585
15219TIP3    H167148   2.177   4.128  11.942 -1.2192  0.9031 -2.1681
15219TIP3    H267149   2.266   4.009  11.918  0.5713  1.5157  0.9319
15220TIP3   OH267150   4.270   0.959   4.221  0.0012  0.1841 -0.1958
15220TIP3    H167151   4.236   0.886   4.168  0.6120  0.9348 -1.6957
15220TIP3    H267152   4.198   1.023   4.221  1.0528  1.5590 -2.9489
15221TIP3   OH267153   0.186   1.423   1.837  0.2799 -0.0722 -0.2304
15221TIP3    H167154   0.142   1.458   1.759  0.4716  1.6880  0.4088
15221TIP3    H267155   0.276   1.408   1.808  0.1245 -0.3067 -0.5990
15222TIP3   OH267156   4.345   1.907   1.014 -0.1706  0.2867  0.0739
15222TIP3    H167157   4.434   1.873   1.025  0.2342  0.8435 -1.2539
15222TIP3    H267158   4.356   1.983   0.957 -1.3859  0.9835  0.7425
15223TIP3   OH267159   0.710   0.451   5.128 -0.6296 -0.0887 -0.2570
15223TIP3    H167160   0.728   0.431   5.036 -0.1577  1.1794 -0.4622
15223TIP3    H267161   0.622   0.489   5.129 -0.2397  0.8395 -0.3411
15224TIP3   OH267162   5.940   5.998  13.241 -0.4000 -0.4492  0.3554
15224TIP3    H167163   5.871   6.024  13.181  0.4927  2.1279  0.2971
15224TIP3    H267164   5.906   6.018  13.328  0.7669  2.5767  0.2517
15225TIP3   OH267165   5.118   1.405  10.292  0.8930  0.6291 -0.0556
15225TIP3    H167166   5.166   1.381  10.372  1.4038  2.6706  0.3114
15225TIP3    H267167   5.137   1.335  10.230  1.5569 -0.3358  1.1949
15226TIP3   OH267168   5.683   3.197   2.734 -0.1407  0.0960 -0.0183
15226TIP3    H167169   5.685   3.238   2.647  0.1587 -0.1129 -0.1155
15226TIP3    H267170   5.722   3.261   2.792  0.8438 -0.2504 -0.2661
15227TIP3   OH267171   3.116   2.453  16.329  0.6435 -0.3261  0.7188
15227TIP3    H167172   3.069   2.536  16.338 -0.1399 -0.4590 -1.4033
15227TIP3    H267173   3.059   2.400  16.273  1.5693 -1.9558  1.2512
15228TIP3   OH267174   1.055   3.849   3.217  0.3602  0.6037 -0.1710
15228TIP3    H167175   1.112   3.925   3.210  0.4937  0.3608 -3.1085
15228TIP3    H267176   1.028   3.831   3.127  0.8836 -3.2238  0.2476
15229TIP3   OH267177   4.794   1.447   3.751  0.3363  0.2745 -0.0046
15229TIP3    H167178   4.742   1.416   3.824  1.3491 -0.0437  0.5961
15229TIP3    H267179   4.815   1.538   3.773  0.7189  0.1503  0.1459
15230TIP3   OH267180   0.187   1.641   4.207  0.5875  0.9290 -0.6561
15230TIP3    H167181   0.125   1.658   4.135 -1.7397 -2.1301  0.4107
15230TIP3    H267182   0.177   1.717   4.265 -2.7700  0.3406 -0.2474
15231TIP3   OH267183   3.980   4.918   3.920 -0.2588 -0.0805  0.6876
15231TIP3    H167184   4.071   4.920   3.892 -0.8382 -0.6027 -1.4547
15231TIP3    H267185   3.983   4.903   4.014  1.8450 -0.4160  0.6022
15232TIP3   OH267186   4.631   1.664  13.175  0.2453 -0.3409 -0.2580
15232TIP3    H167187   4.672   1.617  13.102  0.4198 -0.2478 -0.2178
15232TIP3    H267188   4.691   1.652  13.248  0.7199  0.6733 -0.4701
15233TIP3   OH267189   5.735   5.821   1.533 -0.2400 -0.0699  0.1276
15233TIP3    H167190   5.679   5.814   1.610  1.6197  0.8592  1.6446
15233TIP3    H267191   5.816   5.777   1.559  0.5714  0.6276 -1.1419
15234TIP3   OH267192   4.885   6.061  15.234  0.4494  0.0372 -0.0843
15234TIP3    H167193   4.928   6.073  15.319  1.4182 -0.9349 -0.4086
15234TIP3    H267194   4.797   6.031  15.256  0.7038 -0.2460  0.5751
15235TIP3   OH267195   5.179   4.898   0.689 -0.5095 -0.4665 -0.2992
15235TIP3    H167196   5.126   4.819   0.673  0.9308 -1.3566 -0.9097
15235TIP3    H267197   5.179   4.943   0.604 -0.1938 -0.5459 -0.3435
15236TIP3   OH267198   4.391   4.841   4.411  0.3714 -0.4169 -0.2268
15236TIP3    H167199   4.314   4.894   4.432 -0.3798 -1.2566 -0.7769
15236TIP3    H267200   4.461   4.880   4.463 -0.3256  0.6201 -0.0188
15237TIP3   OH267201   2.489   0.107  16.925 -0.0658  0.1405 -0.5491
15237TIP3    H167202   2.566   0.160  16.906 -0.2215 -0.2743 -2.5814
15237TIP3    H267203   2.435   0.162  16.981  0.7199  1.3154 -0.9093
15238TIP3   OH267204   0.972   6.057  11.891  0.9232  0.1215  0.1205
15238TIP3    H167205   0.960   5.990  11.958  0.7044  1.4773  1.4851
15238TIP3    H267206   1.056   6.097  11.911  0.6249  0.8835 -0.1072
15239TIP3   OH267207   0.009   5.236   2.730  0.4969  0.1547  0.3505
15239TIP3    H167208   0.068   5.221   2.804 -1.3751 -1.6128  1.5853
15239TIP3    H267209  -0.027   5.150   2.710 -0.1709  0.8492 -1.6933
15240TIP3   OH267210   3.102   6.003  16.895 -0.0048 -0.7175  0.0927
15240TIP3    H167211   3.031   5.989  16.957  0.2212 -0.2104  0.4702
15240TIP3    H267212   3.094   6.096  16.870  0.4890 -0.6712  0.0949
15241TIP3   OH267213   2.865   2.606   0.640 -0.0043 -0.2976 -0.2154
15241TIP3    H167214   2.907   2.617   0.726 -1.5118  0.1881  0.4925
15241TIP3    H267215   2.813   2.526   0.650 -1.0042  0.3312 -0.3198
15242TIP3   OH267216   1.764   0.684   5.300  0.4467 -0.4087 -0.1150
15242TIP3    H167217   1.734   0.698   5.210  1.9493 -0.5441 -0.6663
15242TIP3    H267218   1.739   0.594   5.320 -0.5854 -0.1317 -0.0983
15243TIP3   OH267219   4.028   1.702  11.913 -0.0281  0.3696  0.8045
15243TIP3    H167220   4.003   1.677  11.824 -0.9424 -3.3999  1.9141
15243TIP3    H267221   4.065   1.790  11.905 -0.7793  0.4794 -3.1296
15244TIP3   OH267222   3.828   6.316   1.052 -0.3388  0.0890  0.5202
15244TIP3    H167223   3.770   6.382   1.091 -0.6968 -0.3410  0.7314
15244TIP3    H267224   3.898   6.304   1.116 -0.4207  0.0699  0.6071
15245TIP3   OH267225   5.115   6.530   2.700  0.4965 -0.0234  0.2627
15245TIP3    H167226   5.108   6.500   2.790 -0.6381  0.9841  0.5333
15245TIP3    H267227   5.067   6.465   2.649  2.1426 -1.2599  0.1778
15246TIP3   OH267228   5.662   6.384   1.386 -0.3211 -0.0513 -0.0635
15246TIP3    H167229   5.640   6.317   1.321 -0.7715  0.4716 -0.4604
15246TIP3    H267230   5.637   6.466   1.344 -0.9119  0.2733  0.8969
15247TIP3   OH267231   2.143   0.251   3.513  0.0068  0.2249  0.0875
15247TIP3    H167232   2.174   0.168   3.477 -0.0059  0.0872  0.3866
15247TIP3    H267233   2.124   0.306   3.437  1.9869  0.6918 -0.1473
15248TIP3   OH267234   0.250   0.735  14.123 -0.0218  0.2355 -0.2786
15248TIP3    H167235   0.201   0.711  14.044 -1.0630  0.7988  0.1660
15248TIP3    H267236   0.207   0.686  14.194  1.2040 -0.6328 -0.1186
15249TIP3   OH267237   6.747   0.421   3.667 -0.2155 -0.0401  0.0787
15249TIP3    H167238   6.734   0.463   3.752 -1.2302  0.7208 -0.4322
15249TIP3    H267239   6.840   0.399   3.665  0.0773  1.0476  0.8833
15250TIP3   OH267240   0.994   6.482   0.533 -0.1491  0.6927 -0.1836
15250TIP3    H167241   0.926   6.542   0.564 -0.7918  2.0936 -3.8882
15250TIP3    H267242   0.957   6.395   0.548 -1.4309  1.3474  0.6313
15251TIP3   OH267243   4.485   4.111  16.972  0.1474 -0.1638 -0.2675
15251TIP3    H167244   4.574   4.079  16.987  0.2800  0.5790  0.6161
15251TIP3    H267245   4.454   4.138  17.059 -0.7315  0.1219 -0.6539
15252TIP3   OH267246   1.226   1.235   4.467 -0.1731  0.2856  0.4737
15252TIP3    H167247   1.182   1.320   4.469 -0.9349 -0.0411 -1.2655
15252TIP3    H267248   1.318   1.256   4.486 -0.2192  1.6156 -0.6160
15253TIP3   OH267249   1.340   4.678   4.956 -0.6728 -0.4042  0.4352
15253TIP3    H167250   1.272   4.622   4.994 -1.8790  1.0149  0.4483
15253TIP3    H267251   1.317   4.767   4.984  0.5696  0.2405 -0.4805
15254TIP3   OH267252   4.822   5.608  15.118  0.1006  0.1524 -0.1531
15254TIP3    H167253   4.807   5.680  15.179  0.8500  0.9381 -0.8669
15254TIP3    H267254   4.762   5.625  15.045  0.1871 -0.0277 -0.2675
15255TIP3   OH267255   3.590   4.824  12.963  0.1081  0.1729 -0.7791
15255TIP3    H167256   3.592   4.857  12.874 -0.3110  0.1299 -0.8091
15255TIP3    H267257   3.498   4.800  12.978 -0.0270  1.1203  0.0111
15256TIP3   OH267258   0.617   0.222  15.605 -0.0936  0.1193 -0.1555
15256TIP3    H167259   0.539   0.166  15.595 -0.3702  0.3138  0.7415
15256TIP3    H267260   0.686   0.162  15.633 -0.4420  0.2389  1.0051
15257TIP3   OH267261   0.711   6.313   5.183 -0.3713 -0.2380 -0.5574
15257TIP3    H167262   0.692   6.323   5.276 -1.1888 -1.0583 -0.6286
15257TIP3    H267263   0.685   6.223   5.162 -1.7152  0.4160 -1.9198
15258TIP3   OH267264   3.631   1.129   4.967  0.4670 -0.3047 -0.5336
15258TIP3    H167265   3.569   1.072   4.923 -0.3197  0.5377 -0.5339
15258TIP3    H267266   3.694   1.154   4.900 -0.8217  1.1137 -1.2694
15259TIP3   OH267267   2.239   6.434   2.863 -0.3044  0.2648  0.3139
15259TIP3    H167268   2.279   6.381   2.794  0.5449  2.6508 -1.1406
15259TIP3    H267269   2.152   6.454   2.830 -0.4976  0.0816  0.7033
15260TIP3   OH267270   4.900   2.429  14.878 -0.4165 -0.1572  0.3692
15260TIP3    H167271   4.901   2.504  14.938 -0.7335  1.3792 -1.4480
15260TIP3    H267272   4.808   2.404  14.872 -0.8796  1.7127 -1.7514
15261TIP3   OH267273   0.953   0.511  13.248 -0.2112  0.1492  0.4181
15261TIP3    H167274   0.919   0.562  13.174 -0.2821  0.2288  0.5049
15261TIP3    H267275   1.048   0.510  13.236 -0.1125  1.2167  1.0000
15262TIP3   OH267276   1.496   0.725   1.390  0.2398 -0.2574  0.5041
15262TIP3    H167277   1.450   0.712   1.307 -0.2779  0.5313  0.6653
15262TIP3    H267278   1.427   0.745   1.453  0.5448 -1.5387  1.2981
15263TIP3   OH267279   1.455   5.787   1.200  0.3566 -0.1143  0.4488
15263TIP3    H167280   1.393   5.814   1.268 -0.2787 -0.5744  0.0674
15263TIP3    H267281   1.418   5.706   1.166 -0.0955  0.8147 -1.3931
15264TIP3   OH267282   1.375   3.512   0.319  0.3998 -0.2324  0.1313
15264TIP3    H167283   1.368   3.431   0.269 -2.4575 -0.0138  0.0066
15264TIP3    H267284   1.369   3.484   0.410 -0.9518 -0.2022  0.0794
15265TIP3   OH267285   0.937   4.689  15.692 -0.2770 -0.3554 -0.1351
15265TIP3    H167286   1.028   4.694  15.722 -0.3354 -1.0741  0.1815
15265TIP3    H267287   0.922   4.596  15.678 -0.6847 -0.1529 -1.0892
15266TIP3   OH267288   1.392   4.818  14.792 -0.2542 -0.0240 -0.2658
15266TIP3    H167289   1.309   4.841  14.750 -0.0793  2.3556  0.5346
15266TIP3    H267290   1.399   4.723  14.782 -2.7333 -0.1971 -0.9442
15267TIP3   OH267291   4.928   5.088  14.652 -0.5560  0.6762 -0.0211
15267TIP3    H167292   4.850   5.078  14.598  0.0373  0.3722 -0.8460
15267TIP3    H267293   4.984   5.014  14.628  1.2466  2.4358 -1.6653
15268TIP3   OH267294   5.397   4.844   3.921 -0.3524  0.0807  0.2417
15268TIP3    H167295   5.301   4.853   3.920 -0.3806 -0.0719 -1.5096
15268TIP3    H267296   5.428   4.933   3.936 -0.7577  0.0335  1.4578
15269TIP3   OH267297   2.665   6.245   2.493  0.4106 -0.8483  0.2032
15269TIP3    H167298   2.624   6.291   2.421  1.8629 -2.1862 -1.5701
15269TIP3    H267299   2.737   6.301   2.521  0.8179 -1.0296 -0.4682
15270TIP3   OH267300   6.675   5.415  11.858  0.0743  1.1293  0.1772
15270TIP3    H167301   6.745   5.466  11.818  0.5665  0.5702  0.2984
15270TIP3    H267302   6.599   5.429  11.802  0.6196  0.7418 -0.6943
15271TIP3   OH267303   6.291   1.607   0.184  0.2627 -0.9460  0.3886
15271TIP3    H167304   6.343   1.638   0.109 -0.9211  0.1563 -0.0067
15271TIP3    H267305   6.275   1.685   0.236  1.4367 -1.7693  2.0750
15272TIP3   OH267306   2.784   5.093   5.798  0.4659  0.1768  0.1553
15272TIP3    H167307   2.770   5.186   5.815 -0.7700 -0.0709  0.5456
15272TIP3    H267308   2.725   5.072   5.726  0.0557 -0.4953  0.6697
15273TIP3   OH267309   0.830   5.790  10.529  0.6010 -0.2360 -0.0153
15273TIP3    H167310   0.738   5.773  10.509  0.4201  1.2033 -0.4684
15273TIP3    H267311   0.864   5.705  10.557 -0.4830 -1.1215 -1.2855
15274TIP3   OH267312   0.674   6.403  16.999  0.0795 -0.2363  0.8025
15274TIP3    H167313   0.744   6.451  16.955  0.6398  0.0070  1.9218
15274TIP3    H267314   0.627   6.470  17.048 -1.5599 -0.2326 -0.6600
15275TIP3   OH267315   5.648   0.383   0.439 -0.5735  0.0681  0.0784
15275TIP3    H167316   5.655   0.469   0.480  0.4079  1.0387 -1.9919
15275TIP3    H267317   5.613   0.399   0.352  2.2634 -1.1970 -1.4401
15276TIP3   OH267318   2.472   1.418   2.167 -0.1331  0.0953  0.2550
15276TIP3    H167319   2.540   1.424   2.234 -0.4510 -0.4833  0.6386
15276TIP3    H267320   2.461   1.324   2.153 -2.0803  0.0942  1.4873
15277TIP3   OH267321   1.433   4.242  14.263  0.7598 -0.1915 -0.7217
15277TIP3    H167322   1.443   4.326  14.219  3.3381 -1.3492 -2.6374
15277TIP3    H267323   1.489   4.249  14.341 -0.5795  0.4761  0.2129
15278TIP3   OH267324   0.070   3.420  15.678 -0.6533  0.8027 -0.4451
15278TIP3    H167325   0.074   3.513  15.698  2.9153  0.7277 -0.1335
15278TIP3    H267326   0.146   3.383  15.723 -1.8471 -2.2526 -0.7117
15279TIP3   OH267327   3.119   4.588   1.522 -0.0051 -0.3427 -0.0375
15279TIP3    H167328   3.175   4.666   1.523 -0.3453 -0.0852 -0.4325
15279TIP3    H267329   3.162   4.526   1.580  1.3173 -0.5817 -1.2374
15280TIP3   OH267330   5.942   6.416  16.141  0.1380  0.3712  0.8207
15280TIP3    H167331   5.881   6.448  16.075  1.5907  2.2278  0.2832
15280TIP3    H267332   5.978   6.335  16.103  0.8978  1.3678 -0.6858
15281TIP3   OH267333   1.767   4.133   1.776 -0.0121  0.3613 -0.5829
15281TIP3    H167334   1.757   4.115   1.869  0.7397  2.1603 -0.1012
15281TIP3    H267335   1.818   4.060   1.742  1.2747  0.5772  0.8021
15282TIP3   OH267336   6.348   1.306  13.139 -0.0732 -0.0137  0.4616
15282TIP3    H167337   6.311   1.369  13.201 -0.5921 -0.5810  0.7375
15282TIP3    H267338   6.302   1.323  13.057  0.9299  1.0381  0.0951
15283TIP3   OH267339   5.958   0.101   5.875  0.2825  0.2391 -0.0776
15283TIP3    H167340   6.002   0.135   5.953 -1.2953  3.3137 -0.3944
15283TIP3    H267341   6.007   0.137   5.801  0.0009 -0.2106 -0.4933
15284TIP3   OH267342   0.462   4.905  17.070 -0.2320 -0.0972 -0.0861
15284TIP3    H167343   0.552   4.871  17.071 -0.9443 -2.1424 -0.6428
15284TIP3    H267344   0.411   4.837  17.115 -1.5612  0.8867 -0.0604
15285TIP3   OH267345   5.994   4.848  13.106 -0.2075 -0.2795  0.0285
15285TIP3    H167346   5.943   4.881  13.032  1.8900  1.7303 -0.6218
15285TIP3    H267347   5.939   4.864  13.182 -1.3104  0.0717 -0.8161
15286TIP3   OH267348   4.803   5.705  10.504 -0.4532  0.3653 -0.4821
15286TIP3    H167349   4.889   5.688  10.543 -0.7327  1.5372  0.6954
15286TIP3    H267350   4.771   5.618  10.478 -0.7696 -0.7434  3.0610
15287TIP3   OH267351   6.284   4.525  13.638  0.5365  0.6045 -0.8584
15287TIP3    H167352   6.217   4.592  13.657  0.1037  0.3183 -1.3721
15287TIP3    H267353   6.360   4.553  13.690  0.6999  2.0473 -1.7969
15288TIP3   OH267354   5.098   6.610  13.386  0.2570 -0.1310 -0.0254
15288TIP3    H167355   5.100   6.542  13.319 -0.9405 -0.0143 -0.2055
15288TIP3    H267356   5.167   6.585  13.447 -1.9942 -3.2198  1.5298
15289TIP3   OH267357   3.636   4.418  13.097  0.4099  0.2360  1.2763
15289TIP3    H167358   3.680   4.494  13.060 -1.1787  0.9242  0.7171
15289TIP3    H267359   3.560   4.454  13.142 -0.3460 -1.0126  1.0445
15290TIP3   OH267360   6.011   1.899  12.035  0.4663 -0.1360 -0.9132
15290TIP3    H167361   6.057   1.980  12.058  2.5164 -1.3213 -0.6482
15290TIP3    H267362   5.918   1.923  12.039  0.9595  1.7608  0.8268
15291TIP3   OH267363   0.790   6.456   3.722  0.7315  0.7591 -0.2980
15291TIP3    H167364   0.780   6.361   3.725  0.3395  0.7382 -1.5931
15291TIP3    H267365   0.716   6.491   3.772 -0.1360  0.4060 -1.3112
15292TIP3   OH267366   1.755   5.470  13.242  0.0739 -1.0504  0.2549
15292TIP3    H167367   1.793   5.553  13.269 -0.6839 -0.4896 -0.3765
15292TIP3    H267368   1.797   5.405  13.298  0.2285 -0.1756  1.1747
15293TIP3   OH267369   5.695   0.790   6.401 -0.7215 -0.1248  0.0181
15293TIP3    H167370   5.756   0.859   6.373 -0.5893 -0.2620 -0.0361
15293TIP3    H267371   5.645   0.769   6.322 -1.2480  0.4019  0.2072
15294TIP3   OH267372   3.198   6.378   3.700  0.3191  0.1531 -0.4758
15294TIP3    H167373   3.292   6.367   3.709  0.2001 -0.2530  0.3117
15294TIP3    H267374   3.180   6.360   3.608  1.2625  2.1397 -1.1014
15295TIP3   OH267375   3.144   0.775   5.329  0.3376 -0.2254  0.0141
15295TIP3    H167376   3.173   0.692   5.292  0.5212 -0.1857  0.0710
15295TIP3    H267377   3.068   0.752   5.383  0.1237 -0.2961 -0.3134
15296TIP3   OH267378   0.555   5.548   1.696  0.1286 -0.2226  0.0143
15296TIP3    H167379   0.552   5.453   1.685 -0.4770 -0.3244  0.9565
15296TIP3    H267380   0.648   5.568   1.707  0.4833 -0.4509 -2.1164
15297TIP3   OH267381   4.738   3.020   1.452  0.1616 -0.1833 -0.1385
15297TIP3    H167382   4.746   2.928   1.476 -0.8194  0.0716  1.2873
15297TIP3    H267383   4.770   3.068   1.528 -0.0032  0.6616 -0.5838
15298TIP3   OH267384   4.815   2.653   2.504  0.2894 -0.1875 -0.1329
15298TIP3    H167385   4.864   2.589   2.557 -1.8293 -0.2986  1.8717
15298TIP3    H267386   4.828   2.736   2.550  0.9747  0.3519 -1.2789
15299TIP3   OH267387   3.631   4.616   4.725  0.7889  1.0431  0.4504
15299TIP3    H167388   3.555   4.608   4.668  1.5694  1.7614 -0.7273
15299TIP3    H267389   3.598   4.594   4.812 -0.1629 -1.3201 -0.4323
15300TIP3   OH267390   3.812   4.236   0.207 -0.4913  0.9158 -0.1980
15300TIP3    H167391   3.744   4.302   0.212 -0.5688  0.8003  0.2694
15300TIP3    H267392   3.768   4.154   0.229 -0.7222  0.4645 -2.1222
15301TIP3   OH267393   5.917   4.924   0.252  0.0186 -0.1223  0.2033
15301TIP3    H167394   5.978   4.897   0.321 -0.6753 -0.8381  0.5548
15301TIP3    H267395   5.844   4.862   0.260 -0.9030  0.9154  0.0033
15302TIP3   OH267396   3.598   3.985  15.505  0.8565  0.7137  0.3683
15302TIP3    H167397   3.688   3.960  15.488  0.9752  1.1454  0.3460
15302TIP3    H267398   3.601   4.080  15.519  0.3770  0.7653  0.1589
15303TIP3   OH267399   4.540   5.966  14.736 -0.2800  0.2457 -0.3020
15303TIP3    H167400   4.627   5.952  14.700 -1.6948 -1.5988 -3.4614
15303TIP3    H267401   4.503   6.038  14.683 -0.0903  2.4775  2.3781
15304TIP3   OH267402   6.186   1.928   1.199 -0.8173  0.0130 -0.3454
15304TIP3    H167403   6.162   1.839   1.173 -0.2253 -0.9790  2.2147
15304TIP3    H267404   6.282   1.929   1.195 -0.7328 -0.0336  1.2213
15305TIP3   OH267405   1.237   4.846  16.656 -0.0433 -0.3693 -0.7831
15305TIP3    H167406   1.183   4.925  16.653 -0.7119 -0.8137 -0.8599
15305TIP3    H267407   1.321   4.872  16.621  0.5198  0.8925  1.3337
15306TIP3   OH267408   3.258   0.008  16.809 -0.3655  0.0434  0.2507
15306TIP3    H167409   3.350   0.028  16.825 -0.4638  3.5063 -2.2361
15306TIP3    H267410   3.230  -0.043  16.885  3.2462 -0.0378  1.6969
15307TIP3   OH267411   1.306   6.635  13.922  0.0813  0.5037 -0.2681
15307TIP3    H167412   1.388   6.662  13.881  0.0366 -0.9635 -1.3912
15307TIP3    H267413   1.239   6.684  13.875  0.1608  0.1145 -0.7915
15308TIP3   OH267414   1.327   4.998   1.861  0.5418 -0.0027  0.0544
15308TIP3    H167415   1.375   4.921   1.889  2.2579  1.1060  0.3041
15308TIP3    H267416   1.290   5.035   1.941 -0.6706 -0.7852 -0.1219
15309TIP3   OH267417   6.539   4.344  14.868 -0.4305 -0.0140  0.0737
15309TIP3    H167418   6.621   4.391  14.851 -0.1988  0.6745  2.6544
15309TIP3    H267419   6.559   4.253  14.845  0.8052  0.2629 -0.0611
15310TIP3   OH267420   6.132   6.077  16.238  0.7622  0.4001  0.1070
15310TIP3    H167421   6.117   6.118  16.153  0.4244 -0.7695 -0.4078
15310TIP3    H267422   6.116   5.984  16.224  1.4900  0.0761  1.2649
15311TIP3   OH267423   5.268   0.563   5.685 -0.5478  0.0525 -0.5903
15311TIP3    H167424   5.240   0.654   5.670  1.0934  0.4744 -1.4498
15311TIP3    H267425   5.337   0.549   5.620 -2.9229 -2.9145 -2.7603
15312TIP3   OH267426   4.227   6.673   1.282  0.0382 -0.7012 -0.0383
15312TIP3    H167427   4.298   6.640   1.337 -2.2299 -0.6125  3.2510
15312TIP3    H267428   4.218   6.764   1.307 -1.0942 -0.6526 -0.5720
15313TIP3   OH267429   0.258   4.212   1.862  0.4645  0.4338  0.1195
15313TIP3    H167430   0.202   4.220   1.785 -0.5421  0.2659  0.8132
15313TIP3    H267431   0.258   4.299   1.902 -0.7971  0.0146  1.1084
15314TIP3   OH267432   4.403   2.462  17.118 -0.1644  0.4038 -0.3477
15314TIP3    H167433   4.455   2.421  17.187 -2.7313 -0.1257  1.3953
15314TIP3    H267434   4.436   2.423  17.037  1.8013 -0.2124  0.6786
15315TIP3   OH267435   6.622   1.681  10.602 -0.1497 -0.8124 -0.3890
15315TIP3    H167436   6.674   1.635  10.668 -0.8337 -0.5211  0.3679
15315TIP3    H267437   6.536   1.638  10.605 -0.3331 -0.4748 -0.7369
15316TIP3   OH267438   2.919   2.968  14.661 -0.1390  0.1714 -0.2411
15316TIP3    H167439   2.907   2.938  14.571  0.6346  1.7633 -0.9095
15316TIP3    H267440   2.858   2.914  14.713 -1.7307  0.2765 -1.9088
15317TIP3   OH267441   6.420   3.971   1.957 -0.1243 -0.5072  0.3094
15317TIP3    H167442   6.408   4.016   1.874  0.7876  1.2031  1.0422
15317TIP3    H267443   6.488   3.906   1.940 -0.0166 -0.2336 -0.3206
15318TIP3   OH267444   5.739   5.481   5.222  0.6438 -0.0466 -0.6284
15318TIP3    H167445   5.777   5.520   5.144  0.5446  0.6653 -0.3260
15318TIP3    H267446   5.667   5.427   5.190  0.9849 -0.2311 -1.0778
15319TIP3   OH267447   5.621   4.591  12.673 -0.0572 -0.0061  0.0681
15319TIP3    H167448   5.674   4.615  12.749  0.4446 -2.2692  0.5050
15319TIP3    H267449   5.631   4.665  12.612  0.0662  1.5511  1.8921
15320TIP3   OH267450   2.221   5.112   3.637 -0.0409  0.5136  0.0615
15320TIP3    H167451   2.169   5.082   3.563  2.8035  1.1915 -2.4583
15320TIP3    H267452   2.193   5.203   3.651  0.4200  0.8994 -1.3135
15321TIP3   OH267453   3.267   6.513   0.678 -0.2570  0.0336  0.2855
15321TIP3    H167454   3.195   6.478   0.731  0.9743  0.2564  2.1840
15321TIP3    H267455   3.292   6.440   0.621 -1.1520 -0.4514  0.4850
15322TIP3   OH267456   0.116   1.515   2.299 -0.5231 -0.7615  0.1892
15322TIP3    H167457   0.062   1.529   2.221 -0.2523 -0.1365  0.1040
15322TIP3    H267458   0.063   1.549   2.371  0.4505  1.5880 -0.1129
15323TIP3   OH267459   6.442   0.387  10.678 -0.2482 -0.2010  0.3904
15323TIP3    H167460   6.416   0.396  10.586 -0.8367  0.1858  0.5873
15323TIP3    H267461   6.423   0.473  10.716 -1.0790 -0.7066  1.1380
15324TIP3   OH267462   3.646   0.949   2.210  0.4877 -0.0451 -0.3759
15324TIP3    H167463   3.704   0.951   2.134 -1.3594  0.8201 -1.8401
15324TIP3    H267464   3.618   1.040   2.222 -0.3542 -0.3865  0.4526
15325TIP3   OH267465   6.424   1.318  13.922 -0.1084  0.2336  0.0472
15325TIP3    H167466   6.386   1.244  13.876  1.5191  0.2515 -1.4390
15325TIP3    H267467   6.515   1.291  13.940 -0.2310  0.8578  1.8688
15326TIP3   OH267468   2.071   1.906   3.075  0.2240  0.1347 -0.1448
15326TIP3    H167469   2.048   1.928   2.984 -0.2580  0.4718  0.0583
15326TIP3    H267470   2.104   1.816   3.070  3.0219  1.0936 -1.1409
15327TIP3   OH267471   2.231   2.207  16.574 -0.4906 -0.3136  0.1876
15327TIP3    H167472   2.256   2.289  16.616 -0.0969 -1.6220  2.6757
15327TIP3    H267473   2.196   2.234  16.488  2.8177  2.1574 -0.5946
15328TIP3   OH267474   5.588   2.236  16.815  0.1847 -0.1861 -0.3903
15328TIP3    H167475   5.631   2.304  16.763  0.9300 -0.1557  0.2562
15328TIP3    H267476   5.496   2.262  16.815  0.4317  0.7284 -0.3040
15329TIP3   OH267477   3.804   4.289   5.832 -0.0075 -0.7157  0.0686
15329TIP3    H167478   3.746   4.223   5.871  0.4888 -0.4562  1.2852
15329TIP3    H267479   3.746   4.343   5.778 -1.0395 -0.0711  1.7425
15330TIP3   OH267480   4.710   3.955  15.038 -0.8312 -0.0311  0.1963
15330TIP3    H167481   4.668   3.909  14.965 -0.0560  0.5320 -0.6284
15330TIP3    H267482   4.723   3.887  15.104 -1.0850 -0.6696 -0.3936
15331TIP3   OH267483   2.285   1.204   4.063 -0.3457 -0.5048 -0.3919
15331TIP3    H167484   2.350   1.137   4.083 -1.1142 -1.4046 -0.8433
15331TIP3    H267485   2.224   1.200   4.136  0.9507  1.4935  0.9054
15332TIP3   OH267486   4.936   6.013   3.078  0.2326  0.2736 -0.0207
15332TIP3    H167487   4.844   5.986   3.074  0.3264 -0.5192  1.9121
15332TIP3    H267488   4.937   6.099   3.038 -1.1871 -0.0983 -0.9332
15333TIP3   OH267489   5.607   4.390   4.993 -0.3649 -0.0363 -0.1223
15333TIP3    H167490   5.693   4.423   4.966 -0.5975  0.5923 -0.1055
15333TIP3    H267491   5.549   4.466   4.987 -0.8848 -0.4164  0.0333
15334TIP3   OH267492   0.673   6.410  15.730  0.2777  0.0962 -0.4539
15334TIP3    H167493   0.766   6.388  15.719 -0.1685 -0.6943 -3.2179
15334TIP3    H267494   0.671   6.506  15.727  1.1672  0.2812  1.9682
15335TIP3   OH267495   5.659   0.363  14.511  0.5107 -0.3035 -0.6737
15335TIP3    H167496   5.648   0.268  14.502 -1.0524 -0.1570 -0.5548
15335TIP3    H267497   5.609   0.400  14.438 -0.5927  0.4691  0.4426
15336TIP3   OH267498   0.860   4.362   0.192 -0.0433  0.2608  0.4256
15336TIP3    H167499   0.945   4.395   0.220  0.5626 -0.5727 -0.3808
15336TIP3    H267500   0.835   4.419   0.119  2.0880 -2.2818 -2.5446
15337TIP3   OH267501   3.002   6.766  12.339  0.5375 -0.7059 -0.2288
15337TIP3    H167502   3.067   6.796  12.403 -0.4205 -1.5493  1.1957
15337TIP3    H267503   2.933   6.832  12.342 -0.1202 -1.4062  0.6117
15338TIP3   OH267504   4.796   0.669  12.060 -0.4266  0.4176 -0.0949
15338TIP3    H167505   4.710   0.698  12.031  0.0656  1.8179 -0.2172
15338TIP3    H267506   4.781   0.582  12.097 -1.7087  0.2048 -1.0517
15339TIP3   OH267507   0.648   6.017   3.941  0.1555 -0.1494 -0.1252
15339TIP3    H167508   0.568   6.069   3.937  0.0268 -0.4418 -1.8331
15339TIP3    H267509   0.658   5.996   4.034 -0.9993  1.0287  0.2884
15340TIP3   OH267510   1.735   3.450  16.718 -0.4423 -0.1413 -0.1155
15340TIP3    H167511   1.799   3.519  16.739  0.8275 -0.8435 -1.4823
15340TIP3    H267512   1.728   3.399  16.799  1.9206 -0.9220 -0.3000
15341TIP3   OH267513   1.352   2.242   1.674  0.6114 -0.0957 -0.1376
15341TIP3    H167514   1.289   2.279   1.736  0.6150  1.4082 -0.9692
15341TIP3    H267515   1.437   2.250   1.718  0.3474 -1.2537  0.6040
15342TIP3   OH267516   2.592   2.727   5.912 -0.5991  0.3733  0.4516
15342TIP3    H167517   2.595   2.741   5.818  0.4914  0.8712  0.5467
15342TIP3    H267518   2.510   2.680   5.927 -0.7543  0.2440 -0.7444
15343TIP3   OH267519   4.211   1.242  11.527 -0.3617  0.5542  0.0712
15343TIP3    H167520   4.140   1.299  11.497 -0.2507  0.5103 -0.2762
15343TIP3    H267521   4.219   1.262  11.621 -0.4014  1.0280 -0.0227
15344TIP3   OH267522   4.153   4.621  16.183  0.0975 -0.2866  0.3079
15344TIP3    H167523   4.117   4.700  16.144 -0.0801 -0.6767 -0.3307
15344TIP3    H267524   4.150   4.637  16.278  0.8246  0.7935  0.1595
15345TIP3   OH267525   5.351   4.840   5.605 -0.9992 -0.4613  0.2300
15345TIP3    H167526   5.321   4.931   5.610  1.4026  0.4138  0.0410
15345TIP3    H267527   5.440   4.842   5.641 -1.1635 -2.9085  0.9590
15346TIP3   OH267528   1.572   0.408  15.361  0.2299  0.1953 -0.5662
15346TIP3    H167529   1.597   0.349  15.432 -2.7553  1.2200  1.5174
15346TIP3    H267530   1.520   0.354  15.302 -0.7953  0.2229  0.2791
15347TIP3   OH267531   6.186   0.006   0.145  0.6310  0.1167  0.3953
15347TIP3    H167532   6.093  -0.008   0.129  0.3922  1.3075  0.6431
15347TIP3    H267533   6.217   0.050   0.066  0.7855  0.4991  0.6669
15348TIP3   OH267534   5.618   5.108  15.000  0.1433 -0.4785 -0.1116
15348TIP3    H167535   5.578   5.047  14.938 -0.9867 -1.5144  1.5487
15348TIP3    H267536   5.710   5.112  14.974 -0.2682 -0.9120 -1.7820
15349TIP3   OH267537   5.467   1.259  12.077 -0.6427  0.6781 -0.5451
15349TIP3    H167538   5.524   1.193  12.037  1.2924  1.6287  0.4965
15349TIP3    H267539   5.452   1.227  12.166 -2.6576 -0.0570 -1.0805
15350TIP3   OH267540   0.925   3.416  10.679 -0.6829 -0.0082  0.2474
15350TIP3    H167541   0.888   3.367  10.753 -0.2919 -1.4227 -0.4495
15350TIP3    H267542   0.943   3.349  10.613 -0.2401  1.1182 -0.8125
15351TIP3   OH267543   3.020   4.461   4.169  0.1114 -0.2429  0.1621
15351TIP3    H167544   2.953   4.478   4.235  1.7376  1.2409  1.5355
15351TIP3    H267545   2.984   4.497   4.088 -0.8810  0.2158  0.7850
15352TIP3   OH267546   0.176   4.273  13.065  0.1619 -0.1190 -0.3343
15352TIP3    H167547   0.109   4.297  13.001 -0.2452 -0.8639 -0.1888
15352TIP3    H267548   0.220   4.197  13.027  1.5821  0.9230 -0.8856
15353TIP3   OH267549   2.952   5.647  15.900 -0.1723 -0.5267  0.5648
15353TIP3    H167550   3.026   5.634  15.959 -0.3432 -0.5128  0.7820
15353TIP3    H267551   2.979   5.603  15.819 -0.1039 -0.9011  0.7858
15354TIP3   OH267552   3.068   3.412  15.871  0.2488 -0.2306 -0.0681
15354TIP3    H167553   3.048   3.329  15.913 -0.6787 -0.4020 -0.8330
15354TIP3    H267554   2.986   3.462  15.874  0.2101 -0.1691 -1.4734
15355TIP3   OH267555   5.971   2.977  15.327  0.5184 -0.0747  0.1929
15355TIP3    H167556   5.929   2.974  15.413 -1.1938 -0.4577 -0.6151
15355TIP3    H267557   5.943   2.896  15.284  0.3578  0.6818 -1.1606
15356TIP3   OH267558   5.430   6.117   0.842  0.0132  0.1721 -0.2216
15356TIP3    H167559   5.336   6.099   0.840  0.1734 -1.2266  1.6737
15356TIP3    H267560   5.436   6.208   0.874 -0.6780  0.5439 -1.0998
15357TIP3   OH267561   0.003   0.594  16.580  0.0290 -0.8802 -0.1520
15357TIP3    H167562   0.008   0.669  16.639  0.5757 -0.1433 -1.1144
15357TIP3    H267563  -0.031   0.523  16.635  0.4356 -0.1958  1.0265
15358TIP3   OH267564   3.990   6.364  11.210  0.7869  0.0897  0.2345
15358TIP3    H167565   3.961   6.336  11.296 -0.8281  0.1634 -0.2651
15358TIP3    H267566   4.061   6.426  11.228  1.7309 -1.2877  1.4346
15359TIP3   OH267567   6.542   6.452  16.798  0.2486 -0.7046 -0.2834
15359TIP3    H167568   6.551   6.405  16.881  1.1180 -0.5509 -0.2816
15359TIP3    H267569   6.570   6.388  16.732  1.5183 -0.1769 -0.2721
15360TIP3   OH267570   0.484   2.628   5.472 -0.7621 -0.4426 -0.2873
15360TIP3    H167571   0.546   2.609   5.542 -0.3572 -0.5867 -0.6753
15360TIP3    H267572   0.398   2.617   5.512 -0.6057  2.1688  0.9322
15361TIP3   OH267573   4.248   0.488   4.403  0.4479  0.2543 -0.1521
15361TIP3    H167574   4.209   0.537   4.331  3.5964  1.5239 -1.1419
15361TIP3    H267575   4.205   0.522   4.482 -2.0967 -0.2119 -1.2247
15362TIP3   OH267576   6.641   4.200   0.042 -0.1931  0.2042  0.1157
15362TIP3    H167577   6.567   4.260   0.048 -0.8126 -0.6674  1.7821
15362TIP3    H267578   6.625   4.135   0.110  0.5908 -1.7130 -1.4571
15363TIP3   OH267579   0.203   0.518   1.745  1.2562  0.0466  0.2062
15363TIP3    H167580   0.223   0.589   1.685  2.5968  0.3487  0.9599
15363TIP3    H267581   0.111   0.497   1.729  1.1326  1.2482 -0.7442
15364TIP3   OH267582   0.576   4.956   2.716  0.6174 -0.1606 -0.2735
15364TIP3    H167583   0.666   4.988   2.718  1.1678 -1.6484  1.4108
15364TIP3    H267584   0.580   4.876   2.664  0.1470  0.0255 -0.6094
15365TIP3   OH267585   5.059   1.425   3.834 -0.1738 -0.2846  0.0895
15365TIP3    H167586   5.087   1.486   3.765  0.2423 -0.9453 -0.3363
15365TIP3    H267587   4.973   1.394   3.805 -0.1985 -0.2194  0.0931
15366TIP3   OH267588   4.194   0.304   2.434 -0.1562 -0.0788 -0.3374
15366TIP3    H167589   4.223   0.342   2.351  1.3697  0.4696  0.4241
15366TIP3    H267590   4.234   0.217   2.436  1.3076  0.5784  0.5930
15367TIP3   OH267591   6.489   5.530   2.025  0.0757  0.5148 -0.2123
15367TIP3    H167592   6.466   5.473   1.951  0.7948 -1.1765  0.7976
15367TIP3    H267593   6.529   5.607   1.985  0.2019 -0.2409 -1.5895
15368TIP3   OH267594   2.684   0.566  11.947  0.8787  0.2333  0.8440
15368TIP3    H167595   2.634   0.619  12.010  0.2729 -0.5740  1.0602
15368TIP3    H267596   2.624   0.554  11.873  0.1809 -1.9030  1.6849
15369TIP3   OH267597   6.440   5.313   6.227 -0.0917 -0.2188 -1.0104
15369TIP3    H167598   6.480   5.227   6.225  0.3222 -0.1569  1.2262
15369TIP3    H267599   6.514   5.374   6.234 -0.4401  0.0706  0.5594
15370TIP3   OH267600   5.796   0.792   1.931  0.5889 -0.5137  0.4747
15370TIP3    H167601   5.735   0.771   2.003 -1.8163  0.9727 -0.9772
15370TIP3    H267602   5.816   0.885   1.943  2.0796 -0.8270  0.5242
15371TIP3   OH267603   5.595   4.537  16.950 -0.1721 -0.1749 -0.8071
15371TIP3    H167604   5.527   4.481  16.987  0.3419 -0.0004  0.4519
15371TIP3    H267605   5.551   4.585  16.880 -1.0808 -0.7924 -0.6755
15372TIP3   OH267606   4.253   3.685  12.393  0.0991 -0.2991  0.0529
15372TIP3    H167607   4.335   3.677  12.443  0.1585  0.3999  0.0820
15372TIP3    H267608   4.217   3.770  12.420  1.2778  1.2261 -2.7284
15373TIP3   OH267609   0.973   3.728   2.614  0.4009  0.0246  0.0091
15373TIP3    H167610   0.949   3.813   2.578 -0.8886  0.5099  1.8369
15373TIP3    H267611   0.957   3.736   2.708 -0.2458 -2.3855  0.1958
15374TIP3   OH267612   1.822   1.077   1.991  0.0425 -0.2944 -0.3627
15374TIP3    H167613   1.805   1.066   1.898  0.6433 -0.4348 -0.4635
15374TIP3    H267614   1.911   1.112   1.995  0.0721 -0.4213  0.1618
15375TIP3   OH267615   0.453   0.698   2.199  0.5131 -0.7510 -0.2321
15375TIP3    H167616   0.495   0.750   2.131  0.7418 -0.3644  0.2014
15375TIP3    H267617   0.370   0.671   2.160  1.6257 -2.4966 -1.5299
15376TIP3   OH267618   5.675   6.263   5.167  0.2858 -0.5665  0.2439
15376TIP3    H167619   5.745   6.320   5.137  0.6690 -0.9560  0.3816
15376TIP3    H267620   5.610   6.322   5.204 -0.5315  0.0041 -1.9622
15377TIP3   OH267621   3.469   1.926   5.308  0.3227 -0.8194 -0.2417
15377TIP3    H167622   3.488   1.909   5.400 -3.3480  1.3480  1.1704
15377TIP3    H267623   3.525   2.000   5.285 -0.8689  0.7241  1.4237
15378TIP3   OH267624   2.347   4.942   5.591  0.2438 -0.1134  0.5825
15378TIP3    H167625   2.252   4.933   5.585  0.2616 -0.8539  1.2299
15378TIP3    H267626   2.373   4.977   5.506 -0.8277  2.2104  1.1336
15379TIP3   OH267627   2.749   0.832  14.746  0.8108 -0.0725  0.1157
15379TIP3    H167628   2.800   0.756  14.775 -0.1444 -0.3300  1.1665
15379TIP3    H267629   2.661   0.798  14.733 -0.1349  1.2169  2.5942
15380TIP3   OH267630   2.763   4.191   0.703 -0.1692  0.1824  0.4043
15380TIP3    H167631   2.729   4.117   0.653 -0.7801  1.5924 -1.3515
15380TIP3    H267632   2.849   4.161   0.734 -0.2965 -1.1688 -0.4559
15381TIP3   OH267633   4.294   1.784   5.257  0.1078 -0.3233 -0.5099
15381TIP3    H167634   4.201   1.768   5.269 -0.0449  0.5221 -0.5345
15381TIP3    H267635   4.335   1.751   5.337  0.0528 -2.7424 -1.3998
15382TIP3   OH267636   2.055   0.879   1.998 -0.4213  0.3610 -0.1467
15382TIP3    H167637   2.093   0.950   2.050 -1.9113 -0.0446  1.5848
15382TIP3    H267638   1.975   0.917   1.960  0.0805  0.3186 -1.2991
15383TIP3   OH267639   3.044   6.478  13.447  0.3283  0.1055 -0.2039
15383TIP3    H167640   3.097   6.400  13.431  0.6998  0.5157 -1.0409
15383TIP3    H267641   2.967   6.445  13.493  1.5280 -0.4202  1.5471
15384TIP3   OH267642   1.607   2.419  13.883  0.0340  0.1495 -0.4423
15384TIP3    H167643   1.638   2.495  13.933  0.8529  0.3954 -1.3007
15384TIP3    H267644   1.553   2.370  13.945 -0.2718  1.2804  0.2167
15385TIP3   OH267645   1.622   2.282   4.989  0.2962  0.4420  0.3628
15385TIP3    H167646   1.580   2.242   4.913 -1.4145  2.5317  0.0967
15385TIP3    H267647   1.674   2.354   4.953 -1.7657  2.4612  1.1394
15386TIP3   OH267648   2.246   0.873   5.616  0.0060  0.3210 -0.0425
15386TIP3    H167649   2.288   0.943   5.666 -1.7379 -0.7720  3.2121
15386TIP3    H267650   2.164   0.912   5.584  0.0478  0.3550 -0.1098
15387TIP3   OH267651   0.628   0.817  10.803  0.3254 -0.2726  0.0124
15387TIP3    H167652   0.589   0.744  10.851 -0.4619 -0.0844 -0.3180
15387TIP3    H267653   0.721   0.813  10.824 -0.2373  1.1298  3.3138
15388TIP3   OH267654   5.563   4.014   5.243  0.0719  0.0814 -0.0311
15388TIP3    H167655   5.562   3.927   5.203  0.8486  0.5099 -1.0299
15388TIP3    H267656   5.537   4.073   5.172  0.2346  0.7366  0.4435
15389TIP3   OH267657   6.816   0.093   2.667 -0.0348  0.1406  0.5943
15389TIP3    H167658   6.858   0.124   2.587 -0.1700  0.3181  0.5913
15389TIP3    H267659   6.879   0.111   2.736  0.4229 -0.7485  0.4288
15390TIP3   OH267660   4.615   5.847  10.351  0.1368 -0.2732  0.3266
15390TIP3    H167661   4.579   5.803  10.429 -0.1364 -0.7401 -0.0594
15390TIP3    H267662   4.710   5.838  10.360  0.0808 -1.1404  0.1474
15391TIP3   OH267663   4.589   5.491  12.914 -0.2058 -0.2366 -0.5677
15391TIP3    H167664   4.502   5.508  12.949  0.3344  0.4676  0.4967
15391TIP3    H267665   4.630   5.434  12.980  0.2632 -0.2663 -0.8836
15392TIP3   OH267666   1.560   4.998  13.072  0.2801 -0.0254  0.2719
15392TIP3    H167667   1.542   5.069  13.134  0.7734  1.4281 -1.1832
15392TIP3    H267668   1.651   4.974  13.089  0.9301  1.4754 -0.9096
15393TIP3   OH267669   0.549   3.253  15.126  0.2007 -0.3343  0.1067
15393TIP3    H167670   0.629   3.202  15.141  0.8092  0.2129 -1.0824
15393TIP3    H267671   0.573   3.343  15.149 -0.9046 -0.5477  2.3262
15394TIP3   OH267672   4.976   2.049   1.135  0.3043 -0.0891 -0.3225
15394TIP3    H167673   4.888   2.045   1.174  0.6968  1.7342  0.8691
15394TIP3    H267674   5.007   1.959   1.139 -0.7412 -0.4373  1.1535
15395TIP3   OH267675   4.567   0.003  12.996  0.3172 -0.2486  0.4033
15395TIP3    H167676   4.542   0.081  12.947 -1.8905 -0.6317  0.7946
15395TIP3    H267677   4.581   0.034  13.086 -1.2825 -0.3572  0.7223
15396TIP3   OH267678   2.713   2.481  13.242  0.6141 -0.1472 -0.4133
15396TIP3    H167679   2.701   2.492  13.336 -2.0479  2.2163 -0.8780
15396TIP3    H267680   2.805   2.501  13.226  0.6947  1.1864  1.4950
15397TIP3   OH267681   1.807   3.690  11.308  0.3126  0.2944 -0.4029
15397TIP3    H167682   1.865   3.614  11.302  0.6942  0.6104 -0.8374
15397TIP3    H267683   1.866   3.766  11.299 -0.0112  0.6524  0.4269
15398TIP3   OH267684   2.030   1.487   6.160 -0.5547 -0.2914  0.2075
15398TIP3    H167685   2.086   1.443   6.224  0.3617 -1.0743 -1.0663
15398TIP3    H267686   2.089   1.508   6.088 -1.1397  2.2883  0.3710
15399TIP3   OH267687   2.861   6.278  16.745 -0.5324 -0.2618 -0.4334
15399TIP3    H167688   2.769   6.284  16.771 -0.2026 -1.9778  1.2705
15399TIP3    H267689   2.876   6.185  16.730  0.7548  0.0798 -1.4555
15400TIP3   OH267690   1.914   1.385   0.699 -0.3026  0.1582 -0.6582
15400TIP3    H167691   1.935   1.406   0.790 -0.2354  1.1013 -0.8866
15400TIP3    H267692   1.820   1.371   0.699 -0.2464 -0.2420 -0.3720
15401TIP3   OH267693   0.802   6.320   0.892 -0.0657 -0.0015  0.0463
15401TIP3    H167694   0.715   6.301   0.855 -0.1349 -2.2629  1.1657
15401TIP3    H267695   0.784   6.353   0.980  0.2029  1.6538 -0.4840
15402TIP3   OH267696   1.899   3.808   5.062 -0.4837 -0.6661  0.1853
15402TIP3    H167697   1.973   3.763   5.103  0.4667  1.4919  0.9604
15402TIP3    H267698   1.845   3.838   5.135 -1.0306 -0.4278 -0.3106
15403TIP3   OH267699   2.596   4.057   4.753 -0.4565 -0.4416  0.4290
15403TIP3    H167700   2.530   3.993   4.727  0.4822 -1.0595 -0.4880
15403TIP3    H267701   2.551   4.142   4.743 -0.8776 -0.7973 -0.9592
15404TIP3   OH267702   2.367   0.318   4.567 -0.1666  0.1633 -0.2664
15404TIP3    H167703   2.314   0.320   4.647 -0.1883  0.7874 -0.2864
15404TIP3    H267704   2.333   0.244   4.518 -1.3423  0.8103 -0.4783
15405TIP3   OH267705   6.111   0.840  13.570  0.1392  0.0869 -0.3957
15405TIP3    H167706   6.122   0.892  13.649  0.4760 -0.2510 -0.2193
15405TIP3    H267707   6.150   0.755  13.590 -0.8318 -0.4038 -0.5174
15406TIP3   OH267708   4.102   2.509  17.050 -0.1877 -0.6179 -0.2912
15406TIP3    H167709   4.179   2.470  17.091 -0.9313 -0.9381  0.8231
15406TIP3    H267710   4.137   2.555  16.974  1.3812  0.8085  1.2024
15407TIP3   OH267711   0.920   6.026  17.119  0.3422 -0.6645 -0.4999
15407TIP3    H167712   0.959   6.031  17.206  1.8700 -0.8273 -1.1370
15407TIP3    H267713   0.988   6.058  17.060 -0.7744 -0.2368 -1.6170
15408TIP3   OH267714   6.129   2.618  13.429 -0.1095  0.2260  0.2917
15408TIP3    H167715   6.130   2.529  13.465 -0.0665  0.2896  0.4504
15408TIP3    H267716   6.102   2.673  13.503 -0.4682  0.3041  0.0999
15409TIP3   OH267717   1.915   2.297  16.713 -0.1090  0.0260 -0.6990
15409TIP3    H167718   1.956   2.212  16.730 -1.9827 -0.7235  0.4383
15409TIP3    H267719   1.988   2.359  16.711  1.1174 -1.2630  0.9374
15410TIP3   OH267720   2.307   5.763  12.720  0.1958  0.7146  0.0107
15410TIP3    H167721   2.216   5.734  12.726  0.1194  0.5810 -1.4982
15410TIP3    H267722   2.322   5.778  12.627  1.4025  1.8013  0.3463
15411TIP3   OH267723   3.748   6.014   4.792  0.2893  0.2897 -0.2516
15411TIP3    H167724   3.675   6.007   4.855  0.3992 -2.0968 -0.2849
15411TIP3    H267725   3.749   6.106   4.766 -2.6120  0.4472 -0.1219
15412TIP3   OH267726   3.718   2.061  15.979 -1.1215 -0.1028 -0.1341
15412TIP3    H167727   3.717   2.022  15.892  1.4882  0.0158 -0.3074
15412TIP3    H267728   3.783   2.131  15.973 -1.1764  0.1773  1.8042
15413TIP3   OH267729   0.079   2.868   1.385 -0.2414 -0.2050  0.7851
15413TIP3    H167730   0.024   2.894   1.459  0.2917 -0.6658  1.3581
15413TIP3    H267731   0.149   2.934   1.383  0.6042 -1.0325  1.6739
15414TIP3   OH267732   3.637   6.790   0.298  0.2370  0.1628 -0.0229
15414TIP3    H167733   3.545   6.772   0.315  0.8221 -1.5659  1.7172
15414TIP3    H267734   3.683   6.711   0.324  2.2238  0.8387 -1.1633
15415TIP3   OH267735   4.203   0.318  17.042 -0.2228  0.0189 -0.5311
15415TIP3    H167736   4.243   0.357  16.964 -0.5393  0.3756 -0.5182
15415TIP3    H267737   4.273   0.266  17.081 -0.2517 -0.7147 -1.4216
15416TIP3   OH267738   3.001   2.933  13.080 -0.2169 -0.2105 -0.0556
15416TIP3    H167739   3.053   2.965  13.007 -1.0767 -1.1301 -1.1187
15416TIP3    H267740   2.913   2.921  13.044 -1.1498  1.0626  1.6151
15417TIP3   OH267741   3.625   0.078   0.593 -0.2809 -0.3803 -0.1564
15417TIP3    H167742   3.713   0.074   0.556 -0.6226 -1.1922 -0.9243
15417TIP3    H267743   3.601  -0.013   0.609 -0.5770 -0.1099  1.0694
15418TIP3   OH267744   5.681   1.096   6.360 -0.0179  0.1295  0.2185
15418TIP3    H167745   5.737   1.030   6.318 -0.3934 -1.2265  1.7534
15418TIP3    H267746   5.592   1.072   6.335 -0.2665 -0.8692  1.9628
15419TIP3   OH267747   3.905   6.815  13.329 -0.2541  0.5535  0.1499
15419TIP3    H167748   3.877   6.839  13.240  0.3571  1.4473  0.1837
15419TIP3    H267749   3.991   6.856  13.338 -0.7948  1.4241  1.5650
15420TIP3   OH267750   5.057   1.568   1.647  0.2096 -0.4442  0.1777
15420TIP3    H167751   4.997   1.501   1.679 -0.4703 -0.8252 -1.8151
15420TIP3    H267752   5.141   1.522   1.640  0.5108 -0.2165  1.8287
15421TIP3   OH267753   5.591   5.544  11.451 -0.4867 -0.0463  0.1633
15421TIP3    H167754   5.663   5.578  11.505 -1.6079  0.6374  1.2834
15421TIP3    H267755   5.594   5.596  11.371 -0.8794  1.3077  0.9943
15422TIP3   OH267756   1.300   4.468   2.428  0.3087  0.1013 -0.5836
15422TIP3    H167757   1.293   4.398   2.363  0.5337 -0.4945  0.0146
15422TIP3    H267758   1.394   4.478   2.441  0.2580 -0.2963  0.1697
15423TIP3   OH267759   5.959   3.881  13.177 -0.2784  0.7380 -0.1298
15423TIP3    H167760   6.021   3.892  13.104  0.0306 -0.7537 -0.1273
15423TIP3    H267761   5.902   3.809  13.149  0.4398 -0.5219  1.4710
15424TIP3   OH267762   3.810   5.886   0.316 -0.1649 -0.5275  0.2842
15424TIP3    H167763   3.825   5.897   0.410 -0.9654  0.7115  0.2978
15424TIP3    H267764   3.724   5.925   0.302 -0.7303 -2.0447 -0.7274
15425TIP3   OH267765   0.392   6.040   0.465  0.4229  0.0636 -0.4411
15425TIP3    H167766   0.427   6.014   0.551  0.8783  0.6124 -0.4537
15425TIP3    H267767   0.462   6.017   0.403  0.0710 -0.3858 -0.6765
15426TIP3   OH267768   4.489   5.890  10.971 -0.0180 -0.4772 -0.4829
15426TIP3    H167769   4.532   5.844  11.043  1.6338  1.1704 -0.3433
15426TIP3    H267770   4.549   5.881  10.897 -0.2236  0.4387 -0.7743
15427TIP3   OH267771   5.174   5.384   2.177 -0.1494 -0.1678  0.7186
15427TIP3    H167772   5.152   5.291   2.169  0.2803 -0.1012 -2.4395
15427TIP3    H267773   5.270   5.387   2.171 -0.2624  0.5611 -1.7884
15428TIP3   OH267774   5.281   0.182   4.840 -0.7825  0.6697 -0.3255
15428TIP3    H167775   5.376   0.188   4.827 -0.7916 -0.9795 -1.4115
15428TIP3    H267776   5.246   0.258   4.793 -0.0207  1.1332 -0.1614
15429TIP3   OH267777   5.775   5.655   4.407  0.0214 -0.5536  0.0808
15429TIP3    H167778   5.837   5.726   4.391  0.4005 -0.6523  1.0344
15429TIP3    H267779   5.816   5.602   4.476 -0.1027 -1.9087 -0.8549
15430TIP3   OH267780   1.475   6.537  13.657  0.5410 -0.3918 -0.3096
15430TIP3    H167781   1.514   6.571  13.737 -0.9565  1.4189 -0.2778
15430TIP3    H267782   1.530   6.572  13.587  0.5731 -0.1221 -0.1522
15431TIP3   OH267783   5.115   5.716  17.118  0.2520  0.5794  0.0374
15431TIP3    H167784   5.142   5.770  17.044 -2.0618 -0.0037 -1.3291
15431TIP3    H267785   5.159   5.755  17.193  3.3253  0.7409 -1.6689
15432TIP3   OH267786   1.876   4.010  12.908 -0.1796 -0.1423  0.5376
15432TIP3    H167787   1.798   4.059  12.937 -0.5513  0.7199 -1.7305
15432TIP3    H267788   1.921   4.070  12.849  0.5092 -1.7947 -0.6716
15433TIP3   OH267789   0.697   4.689   2.171 -0.4150  0.6254  0.2648
15433TIP3    H167790   0.758   4.740   2.225 -2.0628  3.0252  0.0079
15433TIP3    H267791   0.751   4.620   2.133  1.5130  0.8977  2.2700
15434TIP3   OH267792   3.543   1.357   1.912  0.7512  0.5486  0.2967
15434TIP3    H167793   3.611   1.315   1.860  1.2486  1.4333  0.1974
15434TIP3    H267794   3.464   1.350   1.859  1.2011  1.2424 -0.4994
15435TIP3   OH267795   0.018   2.348   2.806  0.3617 -0.5273 -0.1178
15435TIP3    H167796   0.002   2.439   2.783  0.0343 -1.1256 -2.4694
15435TIP3    H267797  -0.068   2.306   2.805  0.5779 -1.0003  0.3212
15436TIP3   OH267798   3.413   6.002  14.271 -0.6027  1.0810 -0.1813
15436TIP3    H167799   3.403   5.909  14.290 -0.4732  0.8319 -1.2949
15436TIP3    H267800   3.506   6.013  14.251 -0.6118  1.4641 -0.0256
15437TIP3   OH267801   1.101   1.286   2.084 -0.5121 -0.6909 -0.6781
15437TIP3    H167802   1.075   1.216   2.144 -0.0270 -0.7731 -0.5527
15437TIP3    H267803   1.174   1.249   2.034  0.2738 -0.0266 -0.0648
15438TIP3   OH267804   6.808   0.161   3.482  0.5567  0.1399 -0.1255
15438TIP3    H167805   6.744   0.090   3.483  0.9450 -0.2456 -1.5324
15438TIP3    H267806   6.766   0.232   3.532 -0.8629 -0.1825 -0.8263
15439TIP3   OH267807   5.534   0.478  13.811  0.5427  0.2294  0.4451
15439TIP3    H167808   5.588   0.435  13.745 -0.8139 -1.1308  0.1570
15439TIP3    H267809   5.488   0.406  13.855 -0.1450  1.2541  1.4716
15440TIP3   OH267810   0.550   1.645  11.889  0.2345  0.1603  0.3384
15440TIP3    H167811   0.626   1.702  11.877  0.9993 -0.8210  0.3768
15440TIP3    H267812   0.480   1.703  11.919  0.7609  1.1980 -0.4164
15441TIP3   OH267813   0.276   5.393  14.082 -0.0037  0.5500  0.0907
15441TIP3    H167814   0.226   5.312  14.090 -1.2874  1.2024 -0.9656
15441TIP3    H267815   0.212   5.458  14.054  0.6826  2.2999  2.2945
15442TIP3   OH267816   3.074   5.333   4.564 -0.3157 -0.0900  0.4425
15442TIP3    H167817   3.066   5.367   4.654  0.8956 -0.4535  0.6994
15442TIP3    H267818   3.031   5.248   4.567  1.2667 -0.9005  1.1558
15443TIP3   OH267819   4.768   4.170  16.309 -0.3947  0.1112  0.1465
15443TIP3    H167820   4.815   4.097  16.269  1.6221  1.5180 -0.2404
15443TIP3    H267821   4.679   4.163  16.275  0.3295 -0.8595 -1.6916
15444TIP3   OH267822   5.741   6.414  15.459  0.3802 -0.3539  0.0350
15444TIP3    H167823   5.686   6.470  15.513 -1.0677  1.0173 -2.6815
15444TIP3    H267824   5.713   6.324  15.479 -2.0387  0.2604 -0.4032
15445TIP3   OH267825   2.332   0.870   0.108 -0.0989  0.0245  0.0702
15445TIP3    H167826   2.327   0.962   0.084 -2.1239 -0.1241 -0.2080
15445TIP3    H267827   2.375   0.869   0.194  1.4712  1.0558 -0.6582
15446TIP3   OH267828   3.558   5.832   4.390  0.0886 -0.2785  0.0955
15446TIP3    H167829   3.650   5.850   4.412 -0.4543  2.9174  0.2004
15446TIP3    H267830   3.510   5.848   4.471 -0.9687  2.8276 -0.9796
15447TIP3   OH267831   2.593   2.854  13.996 -0.2392 -0.5184  0.3640
15447TIP3    H167832   2.641   2.847  13.914  1.0022 -0.0960  1.0304
15447TIP3    H267833   2.649   2.906  14.053 -0.5671 -1.7085  1.8569
15448TIP3   OH267834   0.131   4.002   2.652 -0.1467  0.3958  0.6363
15448TIP3    H167835   0.060   4.063   2.672 -0.8538 -0.6768  1.4992
15448TIP3    H267836   0.155   3.965   2.737  1.5126  0.7984  0.3756
15449TIP3   OH267837   1.105   2.922   3.211 -0.5971  0.3431  0.2081
15449TIP3    H167838   1.171   2.883   3.153  0.0107  1.8026 -0.1260
15449TIP3    H267839   1.039   2.854   3.222 -0.0328 -0.4466 -1.0886
15450TIP3   OH267840   2.684   5.484  12.570  0.0311  0.1952  0.1420
15450TIP3    H167841   2.728   5.399  12.579  0.6028  0.2972 -1.3312
15450TIP3    H267842   2.751   5.548  12.593  0.1690  0.2947 -0.5113
15451TIP3   OH267843   0.237   0.114   0.676 -0.1744  0.4900  0.1780
15451TIP3    H167844   0.319   0.091   0.720  0.0610 -0.2744 -0.6338
15451TIP3    H267845   0.253   0.093   0.584 -1.4796 -0.2325  0.0927
15452TIP3   OH267846   3.836   4.747  16.955  0.0952  0.2667 -0.1397
15452TIP3    H167847   3.808   4.670  16.906  0.5387 -0.1027  0.1846
15452TIP3    H267848   3.845   4.717  17.045  0.0351  0.7593  0.0365
15453TIP3   OH267849   2.437   3.273   1.882 -0.2896 -0.3275  0.1509
15453TIP3    H167850   2.506   3.337   1.866  0.9693 -2.0479 -1.9146
15453TIP3    H267851   2.441   3.256   1.976  0.8793  0.9034  0.3512
15454TIP3   OH267852   3.207   6.003   2.497 -0.5541 -0.0247 -0.0070
15454TIP3    H167853   3.277   5.937   2.498 -1.3811 -1.0037  3.0541
15454TIP3    H267854   3.132   5.956   2.461 -0.2672  0.3736 -1.1852
15455TIP3   OH267855   4.574   2.473   4.286 -0.1625  0.3903 -0.2163
15455TIP3    H167856   4.611   2.516   4.363  1.5552 -2.1901  0.5411
15455TIP3    H267857   4.622   2.510   4.212 -0.8127  1.8443  0.0521
15456TIP3   OH267858   2.520   2.379  15.448 -0.0914 -0.2211  0.2599
15456TIP3    H167859   2.448   2.369  15.509 -1.2787 -1.1365 -1.2161
15456TIP3    H267860   2.543   2.290  15.423  0.6569  0.1137 -0.2928
15457TIP3   OH267861   3.598   3.583  10.976 -0.0493  0.7183  0.6214
15457TIP3    H167862   3.568   3.544  10.894 -0.6564 -0.4750  1.3799
15457TIP3    H267863   3.675   3.635  10.952  0.2687 -0.2759 -0.5652
15458TIP3   OH267864   5.681   0.804  15.349  0.0389  0.0824 -0.9389
15458TIP3    H167865   5.770   0.784  15.321 -0.2492 -0.9338 -1.1509
15458TIP3    H267866   5.633   0.823  15.268  0.4451  2.4009 -0.7269
15459TIP3   OH267867   6.028   6.106   3.326  0.0250 -0.1389  0.2858
15459TIP3    H167868   6.012   6.170   3.396  0.9433  0.4320 -0.0050
15459TIP3    H267869   6.114   6.069   3.346  1.2347  1.4560 -1.5480
15460TIP3   OH267870   3.803   6.446   1.555  0.4642  0.1555  0.5641
15460TIP3    H167871   3.739   6.518   1.556 -0.0219 -0.2189 -0.9585
15460TIP3    H267872   3.771   6.385   1.622 -1.1656 -0.3194 -0.5828
15461TIP3   OH267873   5.845   1.884  14.866  0.0296 -0.1515 -0.1807
15461TIP3    H167874   5.941   1.883  14.863  0.0517 -0.0533  0.3607
15461TIP3    H267875   5.823   1.965  14.911 -0.3637  0.5759 -1.6153
15462TIP3   OH267876   4.703   3.397  14.970  0.0186  0.0032 -0.1863
15462TIP3    H167877   4.700   3.401  14.875 -0.1616 -1.7576 -0.2993
15462TIP3    H267878   4.691   3.304  14.990 -0.7282  0.4401  1.5886
15463TIP3   OH267879   3.185   4.471  16.428  0.0188 -0.1035 -0.2135
15463TIP3    H167880   3.197   4.528  16.352 -1.5244  1.5655  0.6820
15463TIP3    H267881   3.255   4.497  16.489  0.0223  0.0272 -0.2731
15464TIP3   OH267882   6.438   3.382  17.105  0.0647 -0.1870  0.1379
15464TIP3    H167883   6.376   3.329  17.154  1.0781  0.0890  1.8026
15464TIP3    H267884   6.445   3.338  17.020 -0.9777 -1.2706  0.5800
15465TIP3   OH267885   4.053   6.212  11.610  0.4792 -0.1462 -0.8288
15465TIP3    H167886   4.074   6.152  11.540  2.0335 -2.0071  1.1012
15465TIP3    H267887   4.125   6.204  11.672 -1.0258  0.9953  1.2257
15466TIP3   OH267888   4.373   2.902   4.495  0.2999 -0.5070 -0.2944
15466TIP3    H167889   4.440   2.924   4.560 -0.4517  0.5603  0.1600
15466TIP3    H267890   4.392   2.812   4.470  0.9315 -0.7699  1.0237
15467TIP3   OH267891   6.259   3.178   5.806 -0.6161 -0.1364  0.3432
15467TIP3    H167892   6.271   3.180   5.901  0.7712 -0.5413  0.2033
15467TIP3    H267893   6.337   3.222   5.771  0.3611 -2.4814 -0.6739
15468TIP3   OH267894   3.259   6.176   4.591  0.2286 -0.4532 -0.1724
15468TIP3    H167895   3.316   6.142   4.521  0.0086  0.4265 -0.7911
15468TIP3    H267896   3.188   6.112   4.595 -0.1306 -0.1495 -1.2633
15469TIP3   OH267897   3.862   4.972   1.317 -0.3178  0.1149 -0.2052
15469TIP3    H167898   3.780   5.022   1.320  0.2261  1.1221 -1.2175
15469TIP3    H267899   3.846   4.903   1.253 -0.7480 -0.4395  0.4771
15470TIP3   OH267900   3.378   4.018  11.675  0.3700  0.0958 -0.6574
15470TIP3    H167901   3.377   3.986  11.585  3.0662 -1.5152 -0.2225
15470TIP3    H267902   3.286   4.022  11.700 -0.3964 -0.4079 -3.1408
15471TIP3   OH267903   2.901   0.627  17.124 -0.2192 -0.0413 -0.0010
15471TIP3    H167904   2.976   0.568  17.114  1.0512  1.0116  2.3999
15471TIP3    H267905   2.919   0.699  17.063 -0.1888 -0.6169 -0.6835
15472TIP3   OH267906   1.214   2.309   3.163 -0.2355 -0.3195  0.3289
15472TIP3    H167907   1.264   2.268   3.233 -0.9206 -1.0152  0.4268
15472TIP3    H267908   1.163   2.377   3.206  0.6409  0.4332  0.2202
15473TIP3   OH267909   5.810   5.576   1.744  0.2685  0.5408 -0.5038
15473TIP3    H167910   5.720   5.557   1.716  0.0231 -0.8560  1.1097
15473TIP3    H267911   5.801   5.647   1.807  0.5588  1.8521 -1.8697
15474TIP3   OH267912   3.216   6.814   1.401 -0.0224  0.1090  0.3875
15474TIP3    H167913   3.290   6.867   1.372  0.8172 -1.8804 -1.2803
15474TIP3    H267914   3.145   6.836   1.340  0.3229 -0.6463 -0.2984
15475TIP3   OH267915   3.150   5.590  15.703 -0.0861  0.3582 -0.6625
15475TIP3    H167916   3.162   5.634  15.620 -0.4598  0.5247 -0.6300
15475TIP3    H267917   3.226   5.615  15.755 -0.1524  0.7381 -0.7448
15476TIP3   OH267918   5.520   6.134  12.900  0.1247 -0.4548  0.2119
15476TIP3    H167919   5.496   6.076  12.828 -0.1181 -1.3997  1.0358
15476TIP3    H267920   5.493   6.087  12.978  1.6418 -0.0511  1.0041
15477TIP3   OH267921   4.499   4.990   2.969  0.3353  0.1160  0.3785
15477TIP3    H167922   4.552   5.052   3.019 -0.2950 -0.5011  1.8743
15477TIP3    H267923   4.522   4.905   3.005 -0.6069 -0.2870  0.0579
15478TIP3   OH267924   1.079   0.626  15.904  0.2735 -0.1220  0.1702
15478TIP3    H167925   1.075   0.571  15.982 -0.9004 -1.2375 -0.6333
15478TIP3    H267926   0.988   0.645  15.883  0.6050  0.8400 -0.4794
15479TIP3   OH267927   1.317   1.373   5.026 -0.3144  0.1668 -0.2381
15479TIP3    H167928   1.311   1.292   5.076 -1.1556  0.3940  0.0430
15479TIP3    H267929   1.230   1.412   5.033  0.0125  0.9722 -0.5734
15480TIP3   OH267930   0.064   5.813   5.361  0.0898 -0.1997 -0.2092
15480TIP3    H167931   0.015   5.853   5.289  0.4677  2.6456  0.9811
15480TIP3    H267932   0.058   5.876   5.433  2.3169 -1.4878  1.2539
15481TIP3   OH267933   1.647   2.974   4.737 -0.2889 -0.1045  0.2163
15481TIP3    H167934   1.741   2.958   4.744 -0.3225 -0.6153 -0.4523
15481TIP3    H267935   1.626   3.025   4.816  0.3928 -0.6891  0.7913
15482TIP3   OH267936   6.288   1.124  11.290 -0.2487 -0.2931  0.5890
15482TIP3    H167937   6.301   1.101  11.198 -0.7592  1.6108  0.0086
15482TIP3    H267938   6.213   1.183  11.290 -1.4676 -1.7280  2.4676
15483TIP3   OH267939   5.012   5.776  12.041 -0.2606  0.0479  0.5553
15483TIP3    H167940   4.996   5.775  11.947  1.3481 -0.7366  0.2414
15483TIP3    H267941   5.020   5.683  12.064  1.2138  0.2850  1.0862
15484TIP3   OH267942   4.082   6.695  16.551  0.1310 -0.0341 -0.3275
15484TIP3    H167943   3.989   6.673  16.556  0.5965 -1.8833  1.6409
15484TIP3    H267944   4.105   6.679  16.460 -0.6200 -3.7357 -0.0164
15485TIP3   OH267945   0.579   5.153  16.864 -0.1262 -0.4744  0.3074
15485TIP3    H167946   0.586   5.236  16.818 -0.7965 -0.5370  0.0896
15485TIP3    H267947   0.502   5.111  16.827  0.5828 -1.4939 -0.0511
15486TIP3   OH267948   6.730   5.476  12.535  0.7470  0.4769 -0.3293
15486TIP3    H167949   6.798   5.409  12.538  1.1727  0.9255  1.1272
15486TIP3    H267950   6.652   5.432  12.569  1.0466  0.7138  0.7035
15487TIP3   OH267951   3.822   3.487   0.555 -0.3905 -0.1120  0.1565
15487TIP3    H167952   3.813   3.417   0.490 -0.2831 -0.9908  1.0647
15487TIP3    H267953   3.907   3.471   0.595 -1.0708 -0.4818  1.5164
15488TIP3   OH267954   5.129   2.541  15.601  0.0816  0.7069 -0.1886
15488TIP3    H167955   5.088   2.463  15.564  0.1681  1.2807 -1.5509
15488TIP3    H267956   5.134   2.603  15.527  2.3758  1.0537  0.1945
15489TIP3   OH267957   2.758   5.020  13.209 -0.0832 -0.0494  0.6168
15489TIP3    H167958   2.829   4.957  13.221  1.6390  1.7350  0.3033
15489TIP3    H267959   2.783   5.096  13.263 -0.5539  1.5382 -1.2668
15490TIP3   OH267960   5.559   5.612   1.657  0.0221 -0.2754  0.8553
15490TIP3    H167961   5.487   5.582   1.713 -1.2107 -1.3608 -1.1928
15490TIP3    H267962   5.524   5.607   1.568  1.8587  1.4856 -0.0463
15491TIP3   OH267963   0.889   1.634   4.089 -0.8308  0.0718 -0.2131
15491TIP3    H167964   0.809   1.669   4.050 -0.9204 -0.3099 -0.3775
15491TIP3    H267965   0.934   1.711   4.125 -1.1908  0.3072 -0.2623
15492TIP3   OH267966   0.399   6.043   1.065 -0.4814 -0.0625 -0.3045
15492TIP3    H167967   0.436   5.955   1.056 -0.1014  0.1469 -0.8685
15492TIP3    H267968   0.306   6.029   1.082 -0.3762 -0.5788 -0.1480
15493TIP3   OH267969   5.349   2.653   5.407 -0.3770  0.0222  0.4134
15493TIP3    H167970   5.345   2.719   5.476 -1.2435 -0.4650  0.8435
15493TIP3    H267971   5.258   2.635   5.386 -0.1320  1.1457 -1.8311
15494TIP3   OH267972   6.394   2.680  16.949 -0.2297  0.0532  0.7153
15494TIP3    H167973   6.483   2.661  16.921  0.1719  0.3697  1.7139
15494TIP3    H267974   6.362   2.597  16.986 -0.3913 -0.0888  0.2602
15495TIP3   OH267975   3.066   0.971  16.034 -0.1193  0.8641 -0.2675
15495TIP3    H167976   3.024   0.956  15.950 -0.9563 -0.7266  0.3791
15495TIP3    H267977   3.007   0.930  16.098  0.2994  2.3291  1.1449
15496TIP3   OH267978   1.203   3.832  15.378  0.3459  0.0430 -0.3407
15496TIP3    H167979   1.284   3.881  15.396 -0.1449  0.9171 -0.4441
15496TIP3    H267980   1.158   3.884  15.312  0.1953 -1.0058 -1.0960
15497TIP3   OH267981   1.094   4.856   2.064 -0.5466 -0.3333  0.0398
15497TIP3    H167982   1.095   4.798   1.988 -1.0480 -1.3753  0.8076
15497TIP3    H267983   1.019   4.914   2.048  0.2418  0.4713 -0.9589
15498TIP3   OH267984   0.353   3.473   1.133  0.3242  0.1534 -0.1244
15498TIP3    H167985   0.419   3.462   1.064  1.2951  1.0032  0.6194
15498TIP3    H267986   0.284   3.525   1.092  0.7361  0.3710 -0.5571
15499TIP3   OH267987   6.032   5.727  12.791  0.4456  0.0648 -0.2856
15499TIP3    H167988   5.957   5.668  12.803  0.8397 -0.5295 -0.6610
15499TIP3    H267989   6.098   5.696  12.852 -0.1305  1.5469  1.1763
15500TIP3   OH267990   2.431   1.507   1.883  0.5091  0.3834  0.6576
15500TIP3    H167991   2.488   1.523   1.958 -0.4675 -1.0200  1.7537
15500TIP3    H267992   2.419   1.412   1.882 -1.4895  0.6011  0.2172
15501TIP3   OH267993   1.169   5.429   6.057 -0.3939  0.0104 -0.1541
15501TIP3    H167994   1.142   5.481   6.132  2.6279 -0.3321  1.3420
15501TIP3    H267995   1.251   5.469   6.029  0.5622 -2.2115 -0.7410
15502TIP3   OH267996   3.771   2.114  16.461  0.0055 -0.6575  0.1992
15502TIP3    H167997   3.690   2.103  16.411  0.0774  1.2144 -0.3757
15502TIP3    H267998   3.742   2.136  16.550 -0.1100 -0.9821  0.2435
15503TIP3   OH267999   2.335   4.646  12.108 -0.3755  0.3750  0.3274
15503TIP3    H168000   2.380   4.574  12.152 -2.4387 -0.5149  1.1182
15503TIP3    H268001   2.366   4.725  12.152 -0.4795 -0.3069  1.6663
15504TIP3   OH268002   1.959   0.908  11.343  0.0765  0.2149 -0.0862
15504TIP3    H168003   2.035   0.901  11.285  1.1796 -0.4135  1.3780
15504TIP3    H268004   1.978   0.984  11.398 -2.2707  2.6187 -2.2711
15505TIP3   OH268005   1.254   0.477  15.349 -0.0587  0.6070 -0.2944
15505TIP3    H168006   1.333   0.447  15.304  0.8396  1.7834  0.4422
15505TIP3    H268007   1.251   0.426  15.430 -1.0551 -0.7007 -1.1191
15506TIP3   OH268008   0.538   5.893  15.063  0.5591 -0.6786  0.3954
15506TIP3    H168009   0.560   5.842  15.141 -1.7416  0.8679  2.2058
15506TIP3    H268010   0.488   5.832  15.008  0.2103 -1.1726  1.2395
15507TIP3   OH268011   4.274   1.754   6.319  0.2098  0.3184 -0.1738
15507TIP3    H168012   4.201   1.723   6.372  0.3236 -0.6310 -0.5322
15507TIP3    H268013   4.268   1.849   6.321 -0.5233  0.2635  0.5027
15508TIP3   OH268014   1.734   0.163   2.588 -0.7488  0.3908 -0.9788
15508TIP3    H168015   1.645   0.175   2.555 -1.5764 -0.3315  0.8615
15508TIP3    H268016   1.761   0.251   2.616 -2.2554  0.1574  1.5725
15509TIP3   OH268017   1.329   5.747  16.920  0.3719 -0.0156 -0.0042
15509TIP3    H168018   1.301   5.659  16.945  2.3172 -1.0533 -1.1527
15509TIP3    H268019   1.383   5.776  16.993  0.2871 -0.0757  0.0826
15510TIP3   OH268020   5.635   0.563   6.129 -0.0462  0.0219  0.2847
15510TIP3    H168021   5.570   0.633   6.128 -0.3394 -0.2378  0.7890
15510TIP3    H268022   5.604   0.502   6.196  0.2023 -0.5900 -0.1417
15511TIP3   OH268023   3.031   2.003  14.226 -0.0710 -0.3117  0.1485
15511TIP3    H168024   3.093   2.072  14.249 -0.0346  0.3127 -1.6587
15511TIP3    H268025   3.084   1.923  14.225  0.8029  0.2318 -1.5119
15512TIP3   OH268026   1.936   3.605  16.736  0.3696 -0.0776  0.5735
15512TIP3    H168027   1.950   3.588  16.829 -0.2346  0.3455  0.7526
15512TIP3    H268028   1.973   3.692  16.722  1.7262 -0.7098  0.0947
15513TIP3   OH268029   3.127   5.677   1.405  0.4877 -0.0447  0.2301
15513TIP3    H168030   3.178   5.654   1.482 -0.1809 -0.4071  0.5739
15513TIP3    H268031   3.067   5.746   1.434 -1.0506 -1.4489  0.5578
15514TIP3   OH268032   2.021   5.488   1.965  0.3437 -0.6069  0.2002
15514TIP3    H168033   1.943   5.433   1.965 -0.2785  0.2515  1.0211
15514TIP3    H268034   2.043   5.498   1.872 -0.7899 -0.4971 -0.0717
15515TIP3   OH268035   1.118   3.261   2.192 -0.0513  0.2232  0.0396
15515TIP3    H168036   1.087   3.237   2.105  1.8364 -2.4897  0.0020
15515TIP3    H268037   1.141   3.354   2.185  1.0569 -0.1901 -2.7018
15516TIP3   OH268038   6.279   5.630  10.631 -0.4920  0.2354 -0.5092
15516TIP3    H168039   6.268   5.566  10.701 -2.1762  0.9804 -0.0378
15516TIP3    H268040   6.310   5.709  10.676 -0.2885  0.3272 -0.8083
15517TIP3   OH268041   1.852   1.502   4.441  0.0079  0.2185 -0.4606
15517TIP3    H168042   1.844   1.468   4.530  0.0155  1.3206 -0.0133
15517TIP3    H268043   1.896   1.433   4.392  0.9318 -0.0108  0.6429
15518TIP3   OH268044   5.190   0.466  12.353  0.2179 -0.1706  0.2532
15518TIP3    H168045   5.190   0.371  12.362 -1.2431 -0.1741  0.4363
15518TIP3    H268046   5.120   0.496  12.412  0.8175  1.0396  0.3921
15519TIP3   OH268047   4.755   4.373   4.480  0.0973 -0.0624 -0.4561
15519TIP3    H168048   4.670   4.336   4.458 -0.0408 -0.3582  0.5332
15519TIP3    H268049   4.780   4.329   4.561 -0.0133  1.8905  0.6868
15520TIP3   OH268050   2.573   6.031   3.977 -0.0617  0.2475  0.1134
15520TIP3    H168051   2.667   6.043   3.968  0.0422 -0.5746 -0.0115
15520TIP3    H268052   2.558   6.028   4.072 -0.1571  1.6809  0.1676
15521TIP3   OH268053   2.196   4.296  10.373  0.3045 -0.1358  0.4894
15521TIP3    H168054   2.214   4.273  10.464  3.4988 -0.4167 -0.0704
15521TIP3    H268055   2.265   4.251  10.323 -1.7824 -0.6201 -2.1876
15522TIP3   OH268056   3.048   0.140  15.694 -0.4076  0.0346 -0.0970
15522TIP3    H168057   2.961   0.176  15.709  0.3181  1.2530  1.6287
15522TIP3    H268058   3.081   0.188  15.617 -1.3889 -0.7580 -1.0354
15523TIP3   OH268059   2.272   2.351   6.589  0.6800  0.3169  0.2992
15523TIP3    H168060   2.237   2.262   6.599 -3.4190  1.2271 -3.1566
15523TIP3    H268061   2.249   2.395   6.671  1.3467 -1.3058  1.4209
15524TIP3   OH268062   4.462   6.708  16.400 -0.0183 -0.2054  0.3586
15524TIP3    H168063   4.401   6.781  16.408 -1.1750 -1.1610  0.6666
15524TIP3    H268064   4.418   6.646  16.343  0.6148 -0.9815  0.6872
15525TIP3   OH268065   5.791   5.825  16.687 -0.0373 -0.2620  0.6343
15525TIP3    H168066   5.731   5.756  16.658 -1.1949 -0.3155  2.9756
15525TIP3    H268067   5.821   5.797  16.773  1.1161  1.1858  0.7510
15526TIP3   OH268068   0.645   6.082  15.887 -0.5964  0.2091  0.1930
15526TIP3    H168069   0.577   6.074  15.820 -1.0281 -0.9609  0.7253
15526TIP3    H268070   0.724   6.045  15.846 -0.5955  0.4505 -0.0214
15527TIP3   OH268071   5.792   3.903   6.193 -0.2249 -0.0828 -0.2764
15527TIP3    H168072   5.771   3.843   6.265 -0.2059  1.1415  0.7971
15527TIP3    H268073   5.707   3.925   6.154 -0.4316  0.6258  0.5404
15528TIP3   OH268074   2.472   4.388   4.290  0.4358 -0.5216  0.1512
15528TIP3    H168075   2.536   4.453   4.318  0.0582 -0.1647  0.2033
15528TIP3    H268076   2.388   4.424   4.319  0.2732 -1.2883  0.6524
15529TIP3   OH268077   4.470   0.412   5.384  0.3612  0.0241 -0.1240
15529TIP3    H168078   4.378   0.394   5.403  0.1029  1.8867  0.5851
15529TIP3    H268079   4.519   0.357   5.446 -0.2519 -0.8027 -0.3507
15530TIP3   OH268080   5.947   4.354  11.523 -0.5140 -0.3171  0.2105
15530TIP3    H168081   6.031   4.396  11.541 -1.5849  1.2281  1.9000
15530TIP3    H268082   5.938   4.359  11.427  1.7464 -1.4982 -0.1402
15531TIP3   OH268083   3.759   2.497   3.903 -0.0565 -0.2614 -0.4748
15531TIP3    H168084   3.765   2.410   3.943  1.4867  0.4217  0.8835
15531TIP3    H268085   3.841   2.540   3.927 -1.4397  2.1462  0.2233
15532TIP3   OH268086   1.794   0.956  14.378  0.1637 -0.6431  0.0425
15532TIP3    H168087   1.747   0.997  14.306  2.1325  0.2539 -0.8164
15532TIP3    H268088   1.866   1.017  14.396  1.0357 -1.9766  1.2264
15533TIP3   OH268089   0.760   2.952  16.592 -0.4038  0.0494  1.0523
15533TIP3    H168090   0.718   2.942  16.677 -0.6677 -2.3864  0.6844
15533TIP3    H268091   0.736   3.041  16.565  0.9651  1.5222  4.1444
15534TIP3   OH268092   0.942   1.880   4.901  0.1678  0.5901 -0.3710
15534TIP3    H168093   0.859   1.895   4.855  0.6303 -0.0012 -1.4330
15534TIP3    H268094   0.975   1.968   4.920 -1.4291  0.8581  1.4883
15535TIP3   OH268095   0.188   2.138  14.596  0.0975 -0.6480 -0.0299
15535TIP3    H168096   0.151   2.089  14.522 -0.6881 -0.8361  0.4795
15535TIP3    H268097   0.181   2.078  14.670 -0.9676  0.2549  0.6248
15536TIP3   OH268098   3.398   4.088   5.780  0.6847  0.2873  0.2822
15536TIP3    H168099   3.378   4.091   5.686 -0.3954 -1.2217  0.4154
15536TIP3    H268100   3.467   4.022   5.788 -0.3121 -0.7533  0.6629
15537TIP3   OH268101   2.735   3.751  16.509 -0.2855 -0.2381 -0.0482
15537TIP3    H168102   2.657   3.791  16.547  0.8900  0.5045  1.7166
15537TIP3    H268103   2.792   3.734  16.584  0.8396 -1.7046 -1.1836
15538TIP3   OH268104   2.292   0.896   3.630  0.3835  0.5606 -0.0862
15538TIP3    H168105   2.264   0.981   3.666  0.3392  1.0607 -1.2317
15538TIP3    H268106   2.350   0.920   3.558  0.2899 -0.3862 -0.4832
15539TIP3   OH268107   1.487   4.314  17.181  0.4737  0.6803  0.3263
15539TIP3    H168108   1.572   4.294  17.143  1.0816 -0.8901  2.3630
15539TIP3    H268109   1.431   4.240  17.155 -0.4250  1.8432 -1.2560
15540TIP3   OH268110   4.105   6.717  11.993  0.1958 -0.4766 -0.4377
15540TIP3    H168111   4.159   6.766  12.056 -0.1565  0.6600 -0.9902
15540TIP3    H268112   4.050   6.661  12.048  0.7468 -0.4153  0.2048
15541TIP3   OH268113   0.849   1.060  12.468 -0.6730  0.0365 -0.4114
15541TIP3    H168114   0.803   1.144  12.461  0.0543  0.3658 -1.5189
15541TIP3    H268115   0.854   1.028  12.377 -0.4803 -0.9513 -0.0628
15542TIP3   OH268116   5.618   6.667   4.679 -0.4792  0.1642  0.1810
15542TIP3    H168117   5.543   6.705   4.633 -1.2968 -1.1820  0.3617
15542TIP3    H268118   5.628   6.580   4.640 -0.4869 -0.5741  1.7821
15543TIP3   OH268119   6.810   5.650   2.534  0.1196 -0.1866 -0.0700
15543TIP3    H168120   6.785   5.610   2.451  1.7740 -1.7612  0.1214
15543TIP3    H268121   6.803   5.578   2.598 -2.6007  1.3225  1.5359
15544TIP3   OH268122   4.060   0.427  15.138 -0.5181  0.2847 -1.1787
15544TIP3    H168123   4.011   0.480  15.075 -1.9243  0.5909  0.1043
15544TIP3    H268124   4.069   0.341  15.097 -0.6466  0.7242 -2.1416
15545TIP3   OH268125   4.192   1.599  14.920 -0.1749 -0.2938 -0.2592
15545TIP3    H168126   4.222   1.532  14.859 -2.0072  0.1115 -1.7109
15545TIP3    H268127   4.097   1.597  14.912 -0.5689 -0.6762  3.1416
15546TIP3   OH268128   6.097   5.943   5.763  0.4763 -0.3678 -0.0259
15546TIP3    H168129   6.019   5.938   5.819  0.8099  0.6528  0.5470
15546TIP3    H268130   6.078   5.883   5.691 -0.5094 -0.7254  0.5094
15547TIP3   OH268131   5.094   1.543   4.329  0.0029 -0.5699  0.5489
15547TIP3    H168132   5.061   1.457   4.354 -1.8405 -0.1748 -0.3830
15547TIP3    H268133   5.063   1.556   4.240  0.0035  1.1725  0.7724
15548TIP3   OH268134   0.386   2.803  12.628 -0.3538 -0.2807 -0.1775
15548TIP3    H168135   0.460   2.851  12.666  0.2571 -0.8085 -0.6602
15548TIP3    H268136   0.428   2.736  12.573 -1.1983 -0.3100 -0.7989
15549TIP3   OH268137   2.187   0.094   4.265 -0.5800 -0.9252 -0.9729
15549TIP3    H168138   2.258   0.105   4.329 -1.8750  0.9144  0.2236
15549TIP3    H268139   2.227   0.120   4.182  0.8420 -2.3880 -0.8105
15550TIP3   OH268140   2.562   6.080  11.139 -0.2528  0.0152 -0.1836
15550TIP3    H168141   2.525   6.030  11.066 -0.8266 -2.1151  1.4806
15550TIP3    H268142   2.486   6.109  11.189  0.1576 -1.9746  1.7088
15551TIP3   OH268143   3.285   2.843   0.388  0.6050 -0.1256  0.5604
15551TIP3    H168144   3.269   2.887   0.304  0.7121 -0.0421  0.5834
15551TIP3    H268145   3.210   2.868   0.443  0.6484 -0.0002  0.5623
15552TIP3   OH268146   4.525   4.235  13.132 -0.5712  0.0833 -0.7766
15552TIP3    H168147   4.606   4.231  13.183  0.0180  0.1420 -1.6960
15552TIP3    H268148   4.528   4.321  13.090 -0.0365 -0.7692 -2.5541
15553TIP3   OH268149   6.455   4.927   5.364  0.8630 -0.4340  0.3577
15553TIP3    H168150   6.397   4.851   5.366 -4.1349  2.9040  0.1844
15553TIP3    H268151   6.483   4.939   5.455 -2.7760  0.3269  1.5328
15554TIP3   OH268152   6.414   0.323   5.234  0.8521 -0.1975  0.6079
15554TIP3    H168153   6.346   0.386   5.212  1.3590  0.3914  0.7040
15554TIP3    H268154   6.479   0.332   5.165  0.4733 -1.3350  0.0628
15555TIP3   OH268155   1.704   0.592  15.533 -0.2750 -0.1515 -0.5696
15555TIP3    H168156   1.658   0.531  15.475 -1.2050 -1.3018  1.2778
15555TIP3    H268157   1.692   0.678  15.493 -2.9898 -0.5758 -0.8359
15556TIP3   OH268158   6.205   6.409  13.953  0.7069 -0.5320  0.6916
15556TIP3    H168159   6.258   6.335  13.983 -0.0911 -1.9273 -1.1175
15556TIP3    H268160   6.117   6.373  13.941 -0.0964  1.1303  1.2999
15557TIP3   OH268161   5.957   3.499   5.163  0.2515  0.3361  0.1546
15557TIP3    H168162   6.020   3.427   5.161 -0.6661 -0.4812  0.3210
15557TIP3    H268163   5.950   3.528   5.072  0.5056  0.1218  0.0666
15558TIP3   OH268164   5.002   2.066  12.032 -0.2158  0.1577  0.3488
15558TIP3    H168165   4.978   2.131  11.966  1.5444  1.3917  0.8875
15558TIP3    H268166   5.062   2.007  11.987 -0.3926 -0.0469  0.3756
15559TIP3   OH268167   3.546   1.347   5.159  0.3240  0.3877  0.2603
15559TIP3    H168168   3.509   1.276   5.211  1.9533  0.0025  0.9481
15559TIP3    H268169   3.515   1.427   5.202 -0.4732  0.0956  0.2444
15560TIP3   OH268170   2.453   5.481  12.789  0.3888  0.4133 -0.1783
15560TIP3    H168171   2.466   5.535  12.711 -0.3218 -0.0565 -0.6323
15560TIP3    H268172   2.442   5.392  12.755  4.5425 -0.6396  0.6731
15561TIP3   OH268173   0.537   4.008   4.222  0.0538 -0.1627 -0.1715
15561TIP3    H168174   0.595   4.071   4.178  1.6829 -0.3015  1.6439
15561TIP3    H268175   0.460   4.059   4.247 -0.4498  0.1475 -2.1765
15562TIP3   OH268176   1.716   6.242  12.464 -0.0280  0.0177  0.7445
15562TIP3    H168177   1.727   6.167  12.522  0.0947 -2.6904 -2.4609
15562TIP3    H268178   1.804   6.280  12.457 -0.4313  1.7845  3.8342
15563TIP3   OH268179   5.513   3.387   3.657  0.1045 -0.1074  0.0013
15563TIP3    H168180   5.505   3.463   3.599 -0.5783  0.8026  1.2422
15563TIP3    H268181   5.592   3.404   3.708 -0.9841  0.6496  1.4832
15564TIP3   OH268182   3.924   0.672   3.573  0.0518  0.1989 -0.1735
15564TIP3    H168183   3.915   0.648   3.481 -0.5264  1.4867 -0.4629
15564TIP3    H268184   3.847   0.633   3.615 -1.1116  1.8344 -0.7145
15565TIP3   OH268185   0.824   1.428   2.677  0.7691  0.2369  0.3340
15565TIP3    H168186   0.855   1.425   2.586  0.9860  0.3826  0.4013
15565TIP3    H268187   0.748   1.486   2.674 -1.4075 -2.4298 -0.3778
15566TIP3   OH268188   1.707   0.769   3.014 -0.0015 -0.0578  0.2822
15566TIP3    H168189   1.657   0.714   2.954 -1.1284  0.4417  0.7243
15566TIP3    H268190   1.740   0.708   3.081 -2.3986 -0.0807  1.5421
15567TIP3   OH268191   1.786   3.474   5.343 -0.2160 -0.2067 -0.2757
15567TIP3    H168192   1.833   3.533   5.402 -0.8628  0.9788 -0.9102
15567TIP3    H268193   1.842   3.468   5.265 -1.5686  2.2305 -1.5761
15568TIP3   OH268194   4.314   0.784  15.483  0.1773  0.2721 -0.2010
15568TIP3    H168195   4.287   0.867  15.444 -0.0102 -0.1600 -1.0070
15568TIP3    H268196   4.293   0.718  15.417  2.0490 -0.2389 -0.3438
15569TIP3   OH268197   5.571   3.441   1.568  0.2059 -0.0239  0.2583
15569TIP3    H168198   5.567   3.530   1.603 -2.5289  0.0763 -0.0880
15569TIP3    H268199   5.587   3.453   1.474  0.5040  0.0474  0.3158
15570TIP3   OH268200   2.076   5.391   4.288  0.3778  0.0013 -0.5354
15570TIP3    H168201   2.094   5.482   4.311 -0.0267  0.0893 -0.5495
15570TIP3    H268202   2.072   5.345   4.372  0.9292 -0.0720 -0.5474
15571TIP3   OH268203   4.942   1.850   3.142 -0.4079 -0.2068 -0.5485
15571TIP3    H168204   4.917   1.760   3.121  1.2422 -0.4228 -1.8075
15571TIP3    H268205   5.022   1.841   3.194 -1.0679  0.5241  0.6368
15572TIP3   OH268206   4.212   4.680   1.913  0.0006 -0.0614 -0.1109
15572TIP3    H168207   4.268   4.738   1.862 -0.5238 -0.0168 -0.6468
15572TIP3    H268208   4.271   4.614   1.949  0.1863 -1.1340 -2.2100
15573TIP3   OH268209   0.502   4.790   4.470  0.1137 -0.0837 -0.2166
15573TIP3    H168210   0.508   4.810   4.377  1.1244  2.0144  0.2409
15573TIP3    H268211   0.542   4.703   4.478 -0.2968 -0.4411 -1.7613
15574TIP3   OH268212   1.856   6.425   2.339  0.0592  0.7911 -0.5359
15574TIP3    H168213   1.786   6.463   2.393  1.0209  0.7456  0.7898
15574TIP3    H268214   1.853   6.331   2.357  0.7417  0.8430 -0.1193
15575TIP3   OH268215   2.162   4.502   1.544  0.5711 -0.1163  0.5164
15575TIP3    H168216   2.098   4.571   1.523  0.7987  0.5232  1.7766
15575TIP3    H268217   2.216   4.494   1.465  0.1324  0.7058  0.1165
15576TIP3   OH268218   1.074   2.586   0.904 -0.0296 -0.3465  0.9413
15576TIP3    H168219   1.086   2.611   0.996  0.6531 -1.9389  1.3085
15576TIP3    H268220   1.161   2.556   0.876 -0.1068  0.5916 -0.3953
15577TIP3   OH268221   5.219   0.325   0.289 -0.5469  0.2460 -0.2888
15577TIP3    H168222   5.275   0.253   0.262 -1.3729 -0.7600  0.5924
15577TIP3    H268223   5.262   0.362   0.367 -0.8180 -0.1774  0.0653
15578TIP3   OH268224   2.834   1.506   3.207 -0.0074 -0.2838  0.1015
15578TIP3    H168225   2.782   1.436   3.247  1.1692 -1.6073 -0.5971
15578TIP3    H268226   2.775   1.582   3.206 -1.4667 -1.3605  0.5087
15579TIP3   OH268227   1.296   1.242  12.760  0.0436 -0.1265  0.6177
15579TIP3    H168228   1.384   1.279  12.771 -0.8595  2.5392 -0.4496
15579TIP3    H268229   1.307   1.149  12.777  2.7578  0.3774  2.1557
15580TIP3   OH268230   4.547   3.873   4.308 -0.3595 -0.2665 -0.2571
15580TIP3    H168231   4.620   3.851   4.251 -1.5930 -2.5080 -1.0939
15580TIP3    H268232   4.509   3.952   4.271  0.7043  0.0337 -0.7200
15581TIP3   OH268233   0.020   1.245  14.589  0.2693  0.0923  0.5199
15581TIP3    H168234  -0.065   1.249  14.633  0.7231  0.3180  1.3916
15581TIP3    H268235   0.065   1.171  14.631 -0.0230 -0.9407 -0.9155
15582TIP3   OH268236   6.457   4.761  13.318 -0.0574  0.3001  0.3875
15582TIP3    H168237   6.425   4.674  13.342  0.1204  0.8776  2.9346
15582TIP3    H268238   6.380   4.806  13.282 -0.4568 -0.4836  0.2376
15583TIP3   OH268239   4.660   2.784  15.670  0.9433  0.0799  0.1864
15583TIP3    H168240   4.619   2.714  15.721 -0.8840 -1.4815 -3.1649
15583TIP3    H268241   4.587   2.835  15.635  1.9570 -0.0627 -2.3425
15584TIP3   OH268242   3.875   0.447   5.168 -0.1855 -0.4963 -0.0208
15584TIP3    H168243   3.927   0.381   5.122  1.2326  0.7562 -0.2655
15584TIP3    H268244   3.792   0.448   5.120 -0.1027 -1.8034 -0.2488
15585TIP3   OH268245   2.157   4.620   2.789  0.6340 -0.3173  0.1669
15585TIP3    H168246   2.109   4.589   2.712  1.2413 -0.2575 -0.2447
15585TIP3    H268247   2.215   4.547   2.812  0.1543 -0.5001  0.8359
15586TIP3   OH268248   5.866   2.703  16.052  0.1465 -0.0256  0.0910
15586TIP3    H168249   5.926   2.630  16.041  1.3756  0.8348  0.8193
15586TIP3    H268250   5.844   2.702  16.146  0.3905  0.6956  0.1593
15587TIP3   OH268251   1.942   1.875  14.889 -0.1238 -0.0256  0.0716
15587TIP3    H168252   1.961   1.788  14.923 -2.9701 -0.2091  1.4973
15587TIP3    H268253   1.901   1.922  14.962 -0.0914  1.9966 -1.1093
15588TIP3   OH268254   4.820   1.025  15.749  0.0905  0.5312 -0.4732
15588TIP3    H168255   4.905   1.065  15.767  0.5660 -0.6811  0.0571
15588TIP3    H268256   4.840   0.937  15.718 -0.9500  0.5325 -1.2247
15589TIP3   OH268257   0.628   3.261   5.869  0.5848  0.3195 -0.2630
15589TIP3    H168258   0.688   3.333   5.851 -0.3361  1.2575  0.2775
15589TIP3    H268259   0.617   3.263   5.964 -0.9514  0.7434 -0.4170
15590TIP3   OH268260   0.899   6.304  12.429  0.0966  0.0089 -0.5295
15590TIP3    H168261   0.874   6.309  12.521  2.1900 -1.2316  0.1925
15590TIP3    H268262   0.846   6.371  12.386 -0.2337  1.3201  1.7335
15591TIP3   OH268263   1.831   0.331  16.771  0.4423 -0.4509 -0.6507
15591TIP3    H168264   1.794   0.417  16.792  2.7429  0.3210  0.5986
15591TIP3    H268265   1.846   0.290  16.856  0.9921 -1.3333 -1.1590
15592TIP3   OH268266   2.679   4.752   5.035 -0.0487  0.1685 -0.2050
15592TIP3    H168267   2.682   4.833   5.085  1.1593 -0.1763  0.3195
15592TIP3    H268268   2.759   4.705   5.060 -0.3254 -0.8253 -1.0964
15593TIP3   OH268269   2.137   2.133  14.212 -0.6910  0.1762 -0.1411
15593TIP3    H168270   2.203   2.178  14.159  0.6950 -0.0959  1.2660
15593TIP3    H268271   2.061   2.191  14.212 -0.1331  0.9216 -1.0739
15594TIP3   OH268272   2.695   3.075  12.525  0.0949  0.2888  0.1224
15594TIP3    H168273   2.713   3.169  12.528 -1.1424  0.6688 -2.0882
15594TIP3    H268274   2.694   3.048  12.617  0.7686  2.3572  0.8028
15595TIP3   OH268275   2.428   0.294   1.275 -0.2952 -0.2000 -0.2985
15595TIP3    H168276   2.476   0.265   1.197 -0.5893  2.5176 -1.6083
15595TIP3    H268277   2.338   0.307   1.245 -1.4291 -2.9388  1.5608
15596TIP3   OH268278   4.330   2.162  16.051  0.2664 -0.0343 -0.6116
15596TIP3    H168279   4.378   2.079  16.044  0.0910 -0.4638  2.0544
15596TIP3    H268280   4.241   2.137  16.075 -0.1956  0.8940 -1.2899
15597TIP3   OH268281   2.113   2.287   3.408 -0.3148  0.3049 -0.0536
15597TIP3    H168282   2.054   2.337   3.351  1.7387  2.5725 -0.3837
15597TIP3    H268283   2.165   2.353   3.453  1.5078 -1.5341  0.7338
15598TIP3   OH268284   1.188   4.738  15.795  0.3009  0.0650 -0.0960
15598TIP3    H168285   1.273   4.725  15.839 -0.3687 -0.5338  1.0563
15598TIP3    H268286   1.205   4.808  15.732  1.4178  0.6302  0.7875
15599TIP3   OH268287   3.685   3.787  14.056 -0.0112 -0.2699  0.0369
15599TIP3    H168288   3.722   3.728  13.992  1.6702  0.6576  0.0984
15599TIP3    H268289   3.744   3.781  14.131  2.0617  3.6405 -1.0416
15600TIP3   OH268290   4.527   0.305  12.532  0.2897  0.3227  0.5972
15600TIP3    H168291   4.493   0.394  12.540 -1.0420 -0.1595  0.5920
15600TIP3    H268292   4.550   0.279  12.621  2.5507  1.3323  0.3769
15601TIP3   OH268293   3.802   5.756   6.045  0.1929  0.1851 -0.0712
15601TIP3    H168294   3.841   5.675   6.010 -0.7710 -0.0604 -0.6081
15601TIP3    H268295   3.796   5.741   6.139  0.6711 -0.0789 -0.0763
15602TIP3   OH268296   2.521   4.219   0.171 -0.0136 -0.7830 -0.1519
15602TIP3    H168297   2.616   4.211   0.162 -0.1383 -2.1987 -0.3665
15602TIP3    H268298   2.503   4.195   0.262 -0.2030 -0.9513 -0.2327
15603TIP3   OH268299   0.811   6.269  16.465 -0.1217 -0.7850  0.2165
15603TIP3    H168300   0.903   6.243  16.465 -0.3485 -1.6634 -1.0285
15603TIP3    H268301   0.762   6.187  16.470 -0.8414 -0.3415  0.6754
15604TIP3   OH268302   0.302   2.380  14.596  0.5784  0.1226  0.5115
15604TIP3    H168303   0.251   2.445  14.548  0.2903  0.7109  1.5651
15604TIP3    H268304   0.251   2.299  14.590 -0.6715  0.7680  1.7735
15605TIP3   OH268305   2.522   4.662  12.714  0.0511 -0.4842 -0.4575
15605TIP3    H168306   2.467   4.587  12.735 -0.3583 -0.0921 -0.1280
15605TIP3    H268307   2.575   4.677  12.792 -0.0332 -0.2916 -0.4347
15606TIP3   OH268308   1.708   0.273  15.991 -0.1200 -0.9869 -0.6526
15606TIP3    H168309   1.719   0.186  16.029  1.6259 -0.4834  0.1408
15606TIP3    H268310   1.768   0.328  16.042  0.3932  0.2500 -2.5117
15607TIP3   OH268311   0.578   5.771   4.836  0.0717 -0.2890 -0.2203
15607TIP3    H168312   0.586   5.724   4.919 -0.5427 -0.4975 -0.2759
15607TIP3    H268313   0.597   5.704   4.769 -0.4617 -0.3733 -0.2867
15608TIP3   OH268314   4.718   0.537   5.553 -0.2028 -0.2535 -0.0128
15608TIP3    H168315   4.664   0.616   5.557 -0.7675 -0.5400 -1.4549
15608TIP3    H268316   4.804   0.566   5.585 -0.0159  1.3111 -1.7363
15609TIP3   OH268317   6.725   2.038  14.330  0.4348  0.0288 -0.0727
15609TIP3    H168318   6.795   1.988  14.372  0.7040 -0.0668 -0.6315
15609TIP3    H268319   6.737   2.127  14.361  3.6837  1.0984 -3.6246
15610TIP3   OH268320   3.595   2.132   4.240  0.7116 -0.1818  0.8972
15610TIP3    H168321   3.531   2.119   4.170 -0.1866  0.6098  1.5573
15610TIP3    H268322   3.586   2.056   4.297  0.2728 -0.0134  1.0531
15611TIP3   OH268323   3.329   0.775   1.080  0.0382 -0.3044  0.0806
15611TIP3    H168324   3.343   0.761   0.986  3.3293 -1.4372  0.6135
15611TIP3    H268325   3.396   0.837   1.105 -0.4826 -0.3952  1.7992
15612TIP3   OH268326   2.337   0.762  15.489 -0.3872 -0.0726 -0.6256
15612TIP3    H168327   2.334   0.829  15.420  2.0240 -0.2970 -1.0365
15612TIP3    H268328   2.255   0.714  15.479 -0.6753  0.7281 -2.5165
15613TIP3   OH268329   3.078   2.316   0.482  0.3791 -0.5813  0.2001
15613TIP3    H168330   3.154   2.363   0.514 -0.3064  0.1938  0.7156
15613TIP3    H268331   3.017   2.384   0.453  0.5350 -1.2106 -1.7856
15614TIP3   OH268332   3.021   4.513  11.996  0.0782  0.0927 -0.5841
15614TIP3    H168333   3.006   4.446  12.063 -0.5199 -1.7308 -2.4337
15614TIP3    H268334   3.114   4.532  12.003  0.5552 -1.9042 -0.8017
15615TIP3   OH268335   5.009   2.209  16.283 -0.4407  0.2343  0.8855
15615TIP3    H168336   5.062   2.256  16.218  0.3607  0.8187  1.9174
15615TIP3    H268337   4.923   2.202  16.243  0.1393  0.2030 -0.4101
15616TIP3   OH268338   6.749   5.645  15.090 -0.1361 -0.2418 -0.2619
15616TIP3    H168339   6.660   5.646  15.125 -0.9234  1.4016 -2.0501
15616TIP3    H268340   6.794   5.716  15.137 -0.0692 -0.4565 -0.0055
15617TIP3   OH268341   4.901   2.255  16.615  0.0643  0.4113 -0.1689
15617TIP3    H168342   4.982   2.237  16.664  1.2760  2.1480 -1.4190
15617TIP3    H268343   4.891   2.178  16.559  0.2201 -0.3158  0.7591
15618TIP3   OH268344   2.555   5.511  11.648 -0.3882  0.5846 -0.4031
15618TIP3    H168345   2.559   5.455  11.570 -0.4457  0.5403 -0.3743
15618TIP3    H268346   2.632   5.567  11.641 -0.6824  0.9576 -0.7864
15619TIP3   OH268347   2.278   4.553   1.803 -0.2577  0.1969 -0.3002
15619TIP3    H168348   2.203   4.568   1.745  0.0418  0.8768 -0.5277
15619TIP3    H268349   2.240   4.518   1.884 -0.7072 -0.5004 -0.8005
15620TIP3   OH268350   6.726   2.879  12.729 -0.3762  0.8681  0.2088
15620TIP3    H168351   6.674   2.813  12.683 -0.3768  0.0674  1.2982
15620TIP3    H268352   6.661   2.937  12.769 -0.4202  0.4405  0.7660
15621TIP3   OH268353   4.653   0.321   4.240 -0.0712  0.0371 -0.2635
15621TIP3    H168354   4.615   0.374   4.310 -0.7684 -0.5180 -0.2169
15621TIP3    H268355   4.734   0.368   4.216  0.0738  0.3351  0.7636
15622TIP3   OH268356   6.044   1.439  15.358 -0.0626  0.0124  0.6738
15622TIP3    H168357   6.053   1.344  15.357 -2.9375 -0.3624  1.7680
15622TIP3    H268358   6.030   1.463  15.266  0.0586 -0.6701  0.4713
15623TIP3   OH268359   4.298   6.403   1.977  0.1669  0.4891  0.3569
15623TIP3    H168360   4.231   6.359   1.924 -0.1080  0.0308  1.0738
15623TIP3    H268361   4.304   6.351   2.056 -0.9462  2.3159  1.7289
15624TIP3   OH268362   1.416   1.971   1.282 -0.0436 -0.1274  0.4422
15624TIP3    H168363   1.398   2.060   1.315  0.1806  0.4166 -0.8402
15624TIP3    H268364   1.465   1.985   1.202 -0.1510 -1.4275  0.1330
15625TIP3   OH268365   1.001   2.034  14.104 -0.6593  0.0822 -0.2526
15625TIP3    H168366   1.061   2.020  14.030  0.4802 -0.6840  0.7639
15625TIP3    H268367   1.001   2.128  14.117 -1.3859  0.2860 -1.6279
15626TIP3   OH268368   0.864   6.628  10.837 -0.4086  0.0060  0.4450
15626TIP3    H168369   0.880   6.695  10.904 -0.4562  0.8329 -0.3473
15626TIP3    H268370   0.897   6.667  10.756  0.8768 -1.4961  0.1761
15627TIP3   OH268371   0.579   6.432  16.359  0.5050  0.3404 -0.0593
15627TIP3    H168372   0.656   6.375  16.362  0.5943 -0.0242 -3.7602
15627TIP3    H268373   0.615   6.521  16.367  0.9558  0.0811  0.8864
15628TIP3   OH268374   2.055   5.649   0.255  0.5805  0.2525  0.2711
15628TIP3    H168375   2.007   5.569   0.234 -0.5930  0.7137  1.0530
15628TIP3    H268376   2.139   5.639   0.211  0.8062 -1.8023  1.0475
15629TIP3   OH268377   2.030   4.714   1.142 -0.0282 -0.6074  0.2726
15629TIP3    H168378   1.938   4.741   1.144  0.0793  0.0212 -1.3117
15629TIP3    H268379   2.029   4.632   1.093  0.4279  0.4161 -1.5414
15630TIP3   OH268380   5.897   2.799   2.134 -0.5795  0.2292 -0.4121
15630TIP3    H168381   5.918   2.834   2.047 -0.6318  2.5307  0.4381
15630TIP3    H268382   5.922   2.707   2.129  0.7712  0.6327 -2.4283
15631TIP3   OH268383   6.746   5.877   3.538  0.2596  0.2105 -0.2923
15631TIP3    H168384   6.768   5.843   3.624  0.1059  1.3188  0.1994
15631TIP3    H268385   6.751   5.801   3.480  0.5802 -0.5004  0.6484
15632TIP3   OH268386   5.841   1.064   1.663  0.0604  0.0236 -0.0194
15632TIP3    H168387   5.847   1.109   1.748  2.0872  1.2066 -0.7182
15632TIP3    H268388   5.857   0.972   1.683  1.3092  0.3909  0.8397
15633TIP3   OH268389   6.361   0.775  14.098 -0.0812  0.3870 -0.1701
15633TIP3    H168390   6.336   0.694  14.143  0.9231  0.3076  0.2728
15633TIP3    H268391   6.456   0.772  14.095 -0.0959  0.8162 -1.5587
15634TIP3   OH268392   1.279   2.021   4.309 -0.4726 -0.5923  0.2853
15634TIP3    H168393   1.309   2.019   4.218  1.2787  1.9433  0.7178
15634TIP3    H268394   1.215   2.092   4.312  0.7157  0.4714  1.3292
15635TIP3   OH268395   1.587   0.184  11.801  0.0973 -0.0172 -1.1100
15635TIP3    H168396   1.643   0.107  11.806 -0.0015 -0.0783 -0.9013
15635TIP3    H268397   1.645   0.258  11.818 -0.0856 -0.1666  0.2748
15636TIP3   OH268398   4.555   4.070   2.570 -1.3976  0.0481 -0.5014
15636TIP3    H168399   4.556   4.021   2.652 -1.0504 -0.6898 -0.9305
15636TIP3    H268400   4.616   4.022   2.513 -3.2900 -0.7729 -1.9392
15637TIP3   OH268401   0.004   6.147  10.779  0.5266  0.0986 -0.3056
15637TIP3    H168402   0.053   6.228  10.790  1.7185 -0.4142 -1.4827
15637TIP3    H268403   0.072   6.080  10.767 -0.4410 -0.9569 -0.0545
15638TIP3   OH268404   0.885   1.993  16.602 -0.2533 -0.2238  0.5219
15638TIP3    H168405   0.955   1.991  16.537 -0.4911  2.6585  0.0153
15638TIP3    H268406   0.930   1.992  16.686  0.3621  0.4035  0.2154
15639TIP3   OH268407   5.544   4.261  14.239 -0.6029 -0.1683  0.1709
15639TIP3    H168408   5.458   4.253  14.199 -0.2958  1.0253 -0.8113
15639TIP3    H268409   5.605   4.245  14.167 -0.0075 -0.6920  0.7816
15640TIP3   OH268410   2.365   4.147   4.368  0.1262 -0.0673  0.0231
15640TIP3    H168411   2.419   4.070   4.352  0.6077  0.7373 -2.7778
15640TIP3    H268412   2.422   4.221   4.348 -0.8277  0.9941  1.0326
15641TIP3   OH268413   0.207   1.020  14.023 -0.0439 -0.1378 -0.3483
15641TIP3    H168414   0.223   1.093  14.084  0.1154 -0.0362 -0.5100
15641TIP3    H268415   0.162   0.954  14.075 -1.4151  0.6228 -0.5234
15642TIP3   OH268416   0.642   0.111   2.146  0.0436  0.6500 -0.1505
15642TIP3    H168417   0.637   0.072   2.233  1.0799  0.4199 -0.1812
15642TIP3    H268418   0.717   0.170   2.150  0.7778 -0.1826 -1.2103
15643TIP3   OH268419   5.007   4.868  14.232  0.2176 -0.3185  0.3923
15643TIP3    H168420   5.014   4.943  14.173 -2.3334 -0.4042 -0.1223
15643TIP3    H268421   5.028   4.792  14.177  1.7600 -0.1242  0.6552
15644TIP3   OH268422   3.241   1.763  14.847 -0.2470  0.7166 -0.7437
15644TIP3    H168423   3.306   1.755  14.917 -0.6474  0.4733 -0.4011
15644TIP3    H268424   3.244   1.679  14.802 -2.1386 -0.2762  0.8552
15645TIP3   OH268425   4.354   4.471   0.812  0.1515 -0.5932 -0.2128
15645TIP3    H168426   4.261   4.470   0.834 -0.0114  0.4409 -0.7917
15645TIP3    H268427   4.363   4.403   0.745 -0.8332  1.4111 -2.5000
15646TIP3   OH268428   4.351   3.108   5.099  0.1321 -0.1706  0.3386
15646TIP3    H168429   4.295   3.186   5.092  0.0362 -0.0235  2.3313
15646TIP3    H268430   4.335   3.060   5.017 -2.1776  0.3460  0.4162
15647TIP3   OH268431   4.628   1.470   1.720 -0.3592  0.3060 -0.0229
15647TIP3    H168432   4.557   1.531   1.703 -1.8480 -1.9964 -3.0339
15647TIP3    H268433   4.585   1.387   1.740  1.5104 -0.7652 -0.2004
15648TIP3   OH268434   4.460   3.589   4.784  0.8439 -0.1062 -0.0292
15648TIP3    H168435   4.446   3.570   4.876  1.5168  1.8742  0.5261
15648TIP3    H268436   4.555   3.584   4.772  0.8642  0.7717 -0.3258
15649TIP3   OH268437   3.099   3.497   4.120  0.0845 -0.0498 -0.1594
15649TIP3    H168438   3.012   3.468   4.093 -0.2021 -0.6950  1.3667
15649TIP3    H268439   3.133   3.544   4.044 -1.4353 -0.1186 -0.9187
15650TIP3   OH268440   4.546   4.383   5.212  0.0424 -0.5419  0.2223
15650TIP3    H168441   4.471   4.442   5.215 -2.1013 -2.8985 -2.1645
15650TIP3    H268442   4.574   4.383   5.120  3.9191  1.1548  1.1758
15651TIP3   OH268443   1.438   6.551  13.215 -0.5401 -0.3106  0.6719
15651TIP3    H168444   1.432   6.637  13.257  0.8437 -0.0574  0.4382
15651TIP3    H268445   1.487   6.568  13.134  0.3693 -1.4205  0.9592
15652TIP3   OH268446   4.779   6.114   5.773 -0.2313  0.0638 -0.0589
15652TIP3    H168447   4.807   6.033   5.816 -1.8648 -0.5325 -0.0543
15652TIP3    H268448   4.848   6.177   5.793 -0.5192 -0.3916  2.7760
15653TIP3   OH268449   3.749   2.327   1.463 -0.0376 -0.3026  0.1755
15653TIP3    H168450   3.817   2.264   1.487  2.4163  2.3213  0.6127
15653TIP3    H268451   3.795   2.410   1.453 -2.4956  0.8737 -3.8195
15654TIP3   OH268452   3.372   1.154   2.966 -0.0919  0.3565 -0.1531
15654TIP3    H168453   3.410   1.072   2.997  0.7137  0.8523  0.1954
15654TIP3    H268454   3.290   1.128   2.923  1.2912 -0.9311 -2.1863
15655TIP3   OH268455   3.566   2.895   0.331 -0.5020 -0.9935  0.1891
15655TIP3    H168456   3.583   2.988   0.347 -2.3784 -0.0037 -2.6965
15655TIP3    H268457   3.489   2.876   0.384 -0.7349 -0.5600  0.0201
15656TIP3   OH268458   3.563   3.921   5.622  0.0673 -0.3227  0.2634
15656TIP3    H168459   3.572   3.904   5.715  0.1272  0.0670  0.3314
15656TIP3    H268460   3.505   3.852   5.590 -0.6310  0.0270  0.7489
15657TIP3   OH268461   5.890   4.801   2.893  0.1342 -0.4784 -0.0966
15657TIP3    H168462   5.851   4.886   2.915 -0.8199 -0.9708  0.1640
15657TIP3    H268463   5.828   4.761   2.832  0.4494 -1.1001 -0.0147
15658TIP3   OH268464   1.071   3.937   4.389 -0.0125  0.1027  0.2423
15658TIP3    H168465   1.095   4.016   4.341  1.9873 -0.0158  0.9689
15658TIP3    H268466   1.071   3.868   4.323  4.4391 -0.3990  0.4950
15659TIP3   OH268467   4.774   6.522   2.124 -0.0338 -0.7180 -0.7173
15659TIP3    H168468   4.762   6.429   2.146 -0.7137 -0.2429  1.1330
15659TIP3    H268469   4.689   6.549   2.090 -0.1710 -0.5428 -0.2503
15660TIP3   OH268470   6.182   6.487  12.455  0.5787  0.5034 -0.2054
15660TIP3    H168471   6.151   6.576  12.441 -0.0724  0.6066  1.6544
15660TIP3    H268472   6.110   6.431  12.425  1.2029  0.5292 -1.8999
15661TIP3   OH268473   2.166   0.652   2.628  0.2456  0.5239 -0.0290
15661TIP3    H168474   2.242   0.703   2.657  0.0695  0.5193  0.4547
15661TIP3    H268475   2.125   0.623   2.710 -1.2608  1.9526 -0.2316
15662TIP3   OH268476   1.009   3.966  16.912  0.1818 -0.1047  0.0039
15662TIP3    H168477   1.029   3.895  16.851 -0.0532 -1.8097  1.8177
15662TIP3    H268478   0.920   3.992  16.891  0.6864  0.5461 -1.4754
15663TIP3   OH268479   2.569   3.503   1.854  0.3803 -0.1379 -0.0797
15663TIP3    H168480   2.518   3.553   1.918  2.2476  0.2179  1.2429
15663TIP3    H268481   2.546   3.541   1.769 -0.9948  0.4546  0.5221
15664TIP3   OH268482   5.269   5.885   4.187  0.4662 -0.4119 -0.2064
15664TIP3    H168483   5.308   5.971   4.168 -0.0107 -0.1936 -0.2075
15664TIP3    H268484   5.178   5.893   4.159  0.2824 -0.7503  0.2734
15665TIP3   OH268485   1.004   5.683   2.498  0.6536 -0.0606 -0.0038
15665TIP3    H168486   0.922   5.714   2.461  1.5186  1.2744 -0.8875
15665TIP3    H268487   1.046   5.761   2.534  1.7773 -0.6090 -0.0727
15666TIP3   OH268488   3.492   5.308   5.702  0.2142  0.5453 -0.0802
15666TIP3    H168489   3.523   5.263   5.780  0.4552  0.9213  0.0476
15666TIP3    H268490   3.413   5.353   5.730 -0.4634 -0.4187 -0.4078
15667TIP3   OH268491   5.369   6.129   6.778  0.0975  0.0742  0.4985
15667TIP3    H168492   5.298   6.067   6.799 -1.2970  0.7068 -1.9982
15667TIP3    H268493   5.430   6.078   6.725 -0.0585  0.3066  0.0899
15668TIP3   OH268494   5.508   1.099   1.578 -0.1985 -0.0176  0.1488
15668TIP3    H168495   5.448   1.075   1.507  0.7132  1.2579 -1.0906
15668TIP3    H268496   5.595   1.097   1.539  0.4501 -0.3542  1.5283
15669TIP3   OH268497   5.364   1.049  15.924  0.3782 -0.2442 -0.0947
15669TIP3    H168498   5.300   1.019  15.989  0.3961  1.2047  0.6424
15669TIP3    H268499   5.425   0.976  15.915 -0.5303 -1.0744  0.3255
15670TIP3   OH268500   1.721   2.026  14.585 -0.2397  0.0141  0.2503
15670TIP3    H168501   1.634   2.055  14.555 -0.6359 -1.4219 -0.0535
15670TIP3    H268502   1.746   2.091  14.650 -0.2241  2.1411 -1.7474
15671TIP3   OH268503   4.121   0.703  12.635  0.1326  0.2804  0.1696
15671TIP3    H168504   4.081   0.620  12.662 -1.7964  0.7270 -1.1293
15671TIP3    H268505   4.188   0.677  12.572  2.7502 -0.5452  3.0139
15672TIP3   OH268506   0.110   2.095   0.897 -0.1247 -0.0316 -0.4754
15672TIP3    H168507   0.139   2.121   0.809 -0.5782 -1.4041 -1.0550
15672TIP3    H268508   0.023   2.136   0.906 -0.4174 -0.5211 -0.9950
15673TIP3   OH268509   4.248   5.628  13.808  0.1622  0.3354 -0.4858
15673TIP3    H168510   4.321   5.689  13.799 -0.8548  1.4265 -1.8264
15673TIP3    H268511   4.262   5.562  13.740 -0.4482  0.9697 -1.2566
15674TIP3   OH268512   5.355   4.222   4.238  0.3132  0.4321 -0.0739
15674TIP3    H168513   5.311   4.138   4.224 -0.8128  0.6462  1.8076
15674TIP3    H268514   5.443   4.199   4.267 -0.1573 -0.1380  0.9404
15675TIP3   OH268515   2.084   4.015   3.253 -0.3383  1.1538  0.6574
15675TIP3    H168516   2.112   3.940   3.200  0.7381  2.7894 -1.2126
15675TIP3    H268517   2.035   3.976   3.325  0.4507 -1.3629 -0.0622
15676TIP3   OH268518   5.399   5.023   1.210  0.2429  0.1556 -0.0639
15676TIP3    H168519   5.330   4.958   1.220  1.8210 -1.8446 -1.4003
15676TIP3    H268520   5.364   5.086   1.147 -0.5151 -0.5354 -0.3424
15677TIP3   OH268521   6.412   2.932  15.143 -0.4574 -0.0890 -0.2694
15677TIP3    H168522   6.447   2.850  15.178  1.4205  0.4027 -0.8661
15677TIP3    H268523   6.362   2.905  15.065  0.6122 -0.6543 -0.7921
15678TIP3   OH268524   2.109   3.149   3.588  0.2189 -0.1203 -0.5342
15678TIP3    H168525   2.076   3.203   3.659  1.1183  0.6246 -0.6615
15678TIP3    H268526   2.118   3.209   3.514 -1.5089 -1.0524 -1.5671
15679TIP3   OH268527   5.634   1.280  16.181 -0.8049  0.2904  0.5744
15679TIP3    H168528   5.559   1.245  16.228 -0.3628  1.2632  2.1114
15679TIP3    H268529   5.659   1.358  16.231  0.2680  0.8717 -0.7907
15680TIP3   OH268530   1.064   3.527  16.471  0.3530 -0.6576 -0.3621
15680TIP3    H168531   0.979   3.569  16.457  0.4921 -0.3465 -0.2690
15680TIP3    H268532   1.059   3.491  16.560  0.4067 -0.4352 -0.2698
15681TIP3   OH268533   2.970   3.372   5.339  0.1479 -0.1602  0.3563
15681TIP3    H168534   2.899   3.408   5.392  0.0950 -0.1290  0.2637
15681TIP3    H268535   3.037   3.441   5.339 -0.1008  0.0882 -0.1197
15682TIP3   OH268536   3.596   4.435   0.241  0.3102  0.6558  0.3662
15682TIP3    H168537   3.561   4.500   0.181 -1.5611  0.9634  1.6860
15682TIP3    H268538   3.547   4.449   0.322  1.7609 -0.6442  1.5327
15683TIP3   OH268539   4.577   0.647   2.413 -0.3933  0.2529  0.3992
15683TIP3    H168540   4.643   0.688   2.358  0.7267 -0.8179  0.8888
15683TIP3    H268541   4.516   0.607   2.351  0.0026  0.3610 -0.0632
15684TIP3   OH268542   0.982   1.834  17.193  0.2316  0.2373 -0.1458
15684TIP3    H168543   1.009   1.912  17.241  0.3881  0.8220 -1.1639
15684TIP3    H268544   1.034   1.836  17.113 -0.2408 -0.5608 -0.4796
15685TIP3   OH268545   4.944   1.303  14.494 -0.4055 -0.2902 -0.3192
15685TIP3    H168546   5.038   1.286  14.483 -0.4083  0.4641 -1.7076
15685TIP3    H268547   4.902   1.241  14.435 -0.6724  0.6923 -1.1853
15686TIP3   OH268548   2.101   4.399   5.103 -0.3182 -0.0988 -0.0314
15686TIP3    H168549   2.147   4.430   5.181 -0.0688 -0.8334  0.1278
15686TIP3    H268550   2.138   4.449   5.031  0.4728 -0.4243  0.1449
15687TIP3   OH268551   1.365   0.325   6.026 -0.0348  0.9036  0.9718
15687TIP3    H168552   1.333   0.290   5.943 -0.9279  2.9078  0.4105
15687TIP3    H268553   1.316   0.277   6.093  0.0075 -0.0674  0.3312
15688TIP3   OH268554   4.968   4.780   2.649  0.2538  0.3862  0.0541
15688TIP3    H168555   4.880   4.784   2.686 -0.1813 -1.8083 -0.6109
15688TIP3    H268556   4.955   4.796   2.556  0.9241  2.4752  0.2564
15689TIP3   OH268557   4.234   2.851   2.777 -0.1590 -0.0853  0.8746
15689TIP3    H168558   4.168   2.908   2.738 -0.0881 -0.2063  0.5731
15689TIP3    H268559   4.312   2.907   2.786 -0.1638 -0.0666  0.8035
15690TIP3   OH268560   1.078   5.771  15.060  0.3856  0.2569 -0.0240
15690TIP3    H168561   1.110   5.698  15.114  1.5768 -0.1054 -1.1673
15690TIP3    H268562   0.992   5.742  15.030  0.6199 -0.4640 -0.0295
15691TIP3   OH268563   0.258   5.756  16.107 -0.0120  0.0547  0.1198
15691TIP3    H168564   0.335   5.783  16.058 -0.5022 -0.1054 -0.7553
15691TIP3    H268565   0.263   5.660  16.110 -0.3067  0.0268 -0.1696
15692TIP3   OH268566   2.201   5.959  14.623 -0.8857 -0.5406  0.2398
15692TIP3    H168567   2.218   5.999  14.708 -0.2559 -2.0805  0.8741
15692TIP3    H268568   2.136   6.016  14.582 -0.8359  0.5000  1.5366
15693TIP3   OH268569   5.440   6.217   6.418 -0.5631 -0.1671  0.0437
15693TIP3    H168570   5.484   6.146   6.464 -0.5046  0.5199  1.0801
15693TIP3    H268571   5.377   6.173   6.360  0.3565 -1.0927 -0.2753
15694TIP3   OH268572   2.046   1.363   1.815  0.2994 -0.3974  0.5582
15694TIP3    H168573   2.072   1.305   1.887  3.0601  0.6679  0.5401
15694TIP3    H268574   2.044   1.305   1.738 -1.8074 -1.3650  1.2800
15695TIP3   OH268575   3.013   2.902   1.615  0.0984 -0.0091  0.2403
15695TIP3    H168576   2.942   2.965   1.629  0.0286  0.0014 -0.1444
15695TIP3    H268577   3.093   2.953   1.626  0.0608  0.4982 -1.4318
15696TIP3   OH268578   2.266   1.191  12.369 -0.1868 -0.4525  0.5989
15696TIP3    H168579   2.255   1.260  12.434 -1.6979  0.6429 -0.7136
15696TIP3    H268580   2.180   1.186  12.325  0.8333 -0.9281 -1.4645
15697TIP3   OH268581   1.140   3.435  12.721  0.3500  0.1229  0.1306
15697TIP3    H168582   1.115   3.424  12.813 -1.6829 -2.0705 -0.5951
15697TIP3    H268583   1.144   3.530  12.708 -1.9942  0.5371  1.8318
15698TIP3   OH268584   5.650   3.964   2.633 -0.4152  0.3384  0.3128
15698TIP3    H168585   5.711   4.003   2.570 -0.3965  0.7837  0.6047
15698TIP3    H268586   5.664   4.013   2.714 -2.4883  1.7624 -0.1100
15699TIP3   OH268587   1.733   6.643  16.068 -0.1114  0.2380  0.4288
15699TIP3    H168588   1.783   6.674  15.993  0.6559 -1.3454  0.2515
15699TIP3    H268589   1.681   6.719  16.095  1.3347  1.5161 -0.2474
15700TIP3   OH268590   2.463   2.031  11.250  0.4315 -0.0979  0.4804
15700TIP3    H168591   2.417   1.968  11.195  0.2919  0.5444 -0.1547
15700TIP3    H268592   2.410   2.110  11.246  1.4421  0.5825 -0.0704
15701TIP3   OH268593   0.607   0.782  13.164 -0.1367 -0.4657  0.3361
15701TIP3    H168594   0.601   0.764  13.258  1.9243 -0.3106  0.5392
15701TIP3    H268595   0.550   0.716  13.123 -0.1585 -1.2837  1.6222
15702TIP3   OH268596   5.920   1.948   1.789  0.2794  0.7232 -0.3961
15702TIP3    H168597   5.891   1.908   1.707  1.2889  0.5852 -0.6937
15702TIP3    H268598   6.015   1.941   1.788  0.2848 -0.1519  1.2316
15703TIP3   OH268599   0.286   3.854  14.727 -0.1133 -0.3855 -0.4924
15703TIP3    H168600   0.288   3.937  14.680  0.1099 -0.2778 -0.2950
15703TIP3    H268601   0.234   3.872  14.806  1.5283  0.0893  0.5145
15704TIP3   OH268602   1.685   6.738  14.550  0.6825 -0.0049  0.0431
15704TIP3    H168603   1.684   6.793  14.472 -1.1123 -1.2674 -0.9009
15704TIP3    H268604   1.734   6.660  14.524  1.5332  0.2816  0.7427
15705TIP3   OH268605   3.445   4.183  15.297 -0.5207 -0.2379 -0.2878
15705TIP3    H168606   3.379   4.184  15.367  0.0479  1.6028  0.2876
15705TIP3    H268607   3.408   4.237  15.228 -0.5038 -0.9639 -0.8835
15706TIP3   OH268608   0.709   4.725   1.723 -0.1346  0.1479  0.3610
15706TIP3    H168609   0.765   4.680   1.660  0.2617  2.5607 -1.1287
15706TIP3    H268610   0.755   4.806   1.744 -2.1737  1.3527  0.5258
15707TIP3   OH268611   0.140   1.239   2.740  0.8816  0.4015 -0.2223
15707TIP3    H168612   0.069   1.263   2.681 -0.9804 -1.8177  0.9600
15707TIP3    H268613   0.217   1.233   2.683 -0.3543  0.5879 -1.9969
15708TIP3   OH268614   3.100   2.363   2.445 -0.2643  0.4725  0.0453
15708TIP3    H168615   3.046   2.434   2.411  0.2213 -0.2800 -2.5212
15708TIP3    H268616   3.060   2.283   2.411  1.1555 -0.2481 -0.0188
15709TIP3   OH268617   1.436   4.331  12.312  0.3561 -0.2185  0.5990
15709TIP3    H168618   1.532   4.340  12.313  0.2959  0.5962  0.0347
15709TIP3    H268619   1.414   4.306  12.401  0.8955  2.0073  1.4245
15710TIP3   OH268620   5.509   3.652   4.597 -0.0139 -0.3240  0.6826
15710TIP3    H168621   5.426   3.643   4.551  0.3684 -0.5198  0.0153
15710TIP3    H268622   5.485   3.673   4.687 -0.8091 -1.2023  0.6882
15711TIP3   OH268623   6.203   3.686   5.352 -0.0690 -0.3185  0.5257
15711TIP3    H168624   6.140   3.712   5.284  0.0029  3.0413  1.5411
15711TIP3    H268625   6.155   3.622   5.405 -1.3566 -0.4310 -0.6963
15712TIP3   OH268626   2.062   1.925  11.182 -0.2419 -0.3649  0.2001
15712TIP3    H168627   2.075   1.830  11.185 -0.3077 -0.3613  0.7072
15712TIP3    H268628   2.148   1.962  11.198  0.1714 -0.3188 -1.8439
15713TIP3   OH268629   3.042   1.495   4.956  0.2672 -0.1661  0.6416
15713TIP3    H168630   3.020   1.587   4.939 -0.3965 -0.6334 -1.3158
15713TIP3    H268631   2.957   1.453   4.970  0.0878 -1.1753 -2.5970
15714TIP3   OH268632   2.697   1.837   0.154 -0.3991 -0.0577  0.3558
15714TIP3    H168633   2.652   1.887   0.086 -0.1362 -1.5681 -0.9880
15714TIP3    H268634   2.627   1.795   0.203 -0.5582 -0.6419 -0.3423
15715TIP3   OH268635   1.002   1.811   2.296 -0.2275 -0.3670 -0.1397
15715TIP3    H168636   1.036   1.734   2.249 -1.4714 -1.0401  0.0305
15715TIP3    H268637   0.922   1.780   2.337 -1.4995  1.3869 -1.1908
15716TIP3   OH268638   5.376   0.890   3.029 -0.2922  0.3529  0.6856
15716TIP3    H168639   5.442   0.823   3.048  1.2791  1.5327 -0.3222
15716TIP3    H268640   5.380   0.901   2.934 -1.4679  0.9309  0.6926
15717TIP3   OH268641   4.444   0.280  11.335 -0.1899 -0.4710  0.1606
15717TIP3    H168642   4.385   0.205  11.327 -0.2087 -0.4625  0.2198
15717TIP3    H268643   4.475   0.295  11.245  1.1666 -1.6150  0.4073
15718TIP3   OH268644   4.692   4.107  15.611 -0.6003  0.0144 -0.2572
15718TIP3    H168645   4.607   4.103  15.655  0.1262  0.2936  1.2377
15718TIP3    H268646   4.756   4.098  15.682  0.6296  0.3730 -1.2878
15719TIP3   OH268647   1.795   2.406  14.899 -0.8424  0.0890 -0.6042
15719TIP3    H168648   1.762   2.485  14.942 -1.7422 -0.4617 -0.2579
15719TIP3    H268649   1.814   2.434  14.809 -0.3424  0.8966 -0.2624
15720TIP3   OH268650   6.041   5.270  11.565  0.0269 -0.6494  0.2547
15720TIP3    H168651   5.988   5.302  11.638  0.8427 -0.1749  0.6457
15720TIP3    H268652   6.041   5.175  11.575 -0.1750 -0.6100  0.6538
15721TIP3   OH268653   1.816   2.867  11.466  0.3067  0.4028 -0.1764
15721TIP3    H168654   1.798   2.795  11.526  0.7855  1.7454  1.6779
15721TIP3    H268655   1.885   2.834  11.409 -0.4530 -1.0613 -0.3040
15722TIP3   OH268656   5.853   6.358   3.395 -0.3692  0.2685  0.0747
15722TIP3    H168657   5.891   6.432   3.441  0.6424  0.0318 -0.3315
15722TIP3    H268658   5.877   6.372   3.303 -1.5775  0.2740 -0.2573
15723TIP3   OH268659   4.804   6.797  15.707  0.1441 -0.1558 -0.0865
15723TIP3    H168660   4.753   6.839  15.638  1.4307 -0.3580 -1.1998
15723TIP3    H268661   4.885   6.848  15.711  0.7601 -1.1335  0.1420
15724TIP3   OH268662   1.881   3.477   2.554 -0.0456  0.3117 -0.4244
15724TIP3    H168663   1.799   3.436   2.581 -0.1344  0.9967  0.4119
15724TIP3    H268664   1.912   3.522   2.633  0.3650  1.3071 -1.1353
15725TIP3   OH268665   2.615   4.046   6.300 -0.3126 -0.8701  0.3833
15725TIP3    H168666   2.546   3.996   6.255 -0.4249  0.6134 -1.2185
15725TIP3    H268667   2.584   4.137   6.297  1.4198 -0.2503  0.1929
15726TIP3   OH268668   0.728   3.620   3.109  0.1492  0.4300 -0.0216
15726TIP3    H168669   0.674   3.696   3.129  0.6083  1.7860 -3.3826
15726TIP3    H268670   0.792   3.651   3.045  1.3799 -2.4219 -0.3477
15727TIP3   OH268671   2.629   4.178  16.227 -0.6893 -0.3789  0.2553
15727TIP3    H168672   2.686   4.184  16.304 -0.7367 -1.6739  0.4123
15727TIP3    H268673   2.559   4.119  16.253 -0.7035 -0.8462 -0.7738
15728TIP3   OH268674   3.712   0.945  14.895  0.2150  0.0735  0.3089
15728TIP3    H168675   3.645   0.890  14.935 -1.0721  1.4601  0.1362
15728TIP3    H268676   3.761   0.981  14.969 -1.1410  1.3680  0.6258
15729TIP3   OH268677   0.445   5.358   5.669  0.6003  0.1371 -0.3357
15729TIP3    H168678   0.427   5.406   5.589 -0.1371  1.5820  0.6505
15729TIP3    H268679   0.365   5.311   5.688  1.0251 -0.8067 -0.8237
15730TIP3   OH268680   6.060   1.616   1.863  0.2992  0.1108  0.2484
15730TIP3    H168681   6.078   1.607   1.769 -0.1964 -3.2090  0.3566
15730TIP3    H268682   5.965   1.628   1.869 -0.0853 -2.4730  0.3345
15731TIP3   OH268683   3.553   2.595   4.055  0.4974  0.1169 -0.2418
15731TIP3    H168684   3.618   2.580   3.987  1.0209 -0.6662  0.4129
15731TIP3    H268685   3.604   2.607   4.135 -0.0690  1.8392 -0.1047
15732TIP3   OH268686   4.684   2.453  13.356  0.6664  0.2397 -0.2024
15732TIP3    H168687   4.630   2.453  13.277  1.5356  0.5607 -0.8096
15732TIP3    H268688   4.679   2.363  13.388 -0.4046  0.3229 -0.1231
15733TIP3   OH268689   5.280   3.958   4.299  0.5467  0.4135  0.3566
15733TIP3    H168690   5.201   3.918   4.262  1.1009  0.0194 -0.4230
15733TIP3    H268691   5.335   3.884   4.325  1.0075  0.6793  0.1410
15734TIP3   OH268692   6.473   4.295   1.508  0.1119  0.2681  0.0448
15734TIP3    H168693   6.421   4.375   1.501  0.3542  0.5422  1.1566
15734TIP3    H268694   6.512   4.300   1.595 -0.5725 -1.4920  0.4871
15735TIP3   OH268695   6.821   4.535   3.105 -0.3782  0.5140 -0.0658
15735TIP3    H168696   6.785   4.622   3.119 -0.6326  0.9169 -2.6931
15735TIP3    H268697   6.885   4.546   3.035 -0.3598 -1.3726 -0.4065
15736TIP3   OH268698   6.561   5.198   2.890  0.4819 -0.1125  0.1870
15736TIP3    H168699   6.505   5.276   2.886  1.6587  0.7135 -3.3753
15736TIP3    H268700   6.521   5.137   2.828  1.7352 -0.7972  0.0286
15737TIP3   OH268701   0.599   3.711  16.753 -0.1411  0.2558 -0.0673
15737TIP3    H168702   0.549   3.705  16.672  0.1197 -2.9899 -0.0984
15737TIP3    H268703   0.556   3.651  16.813  1.9316 -0.3658  0.8966
15738TIP3   OH268704   6.510   3.242  13.898  0.3537  0.0803  0.0431
15738TIP3    H168705   6.593   3.202  13.874 -0.4413 -0.9008 -1.2075
15738TIP3    H268706   6.532   3.332  13.920  1.6219  0.1303 -1.2897
15739TIP3   OH268707   0.113   3.362  13.348 -0.3170  0.3047  0.1500
15739TIP3    H168708   0.167   3.369  13.269 -0.4070  0.0439  0.0657
15739TIP3    H268709   0.175   3.345  13.419 -0.3419 -0.5849 -0.0333
15740TIP3   OH268710   4.541   2.827   4.727  0.0081  0.1826  0.2525
15740TIP3    H168711   4.586   2.904   4.760 -1.4310  0.5520  1.5081
15740TIP3    H268712   4.592   2.753   4.759  0.4303  0.5969  0.5404
15741TIP3   OH268713   0.635   6.658   0.427 -0.1190  0.9045  0.1022
15741TIP3    H168714   0.546   6.624   0.419  0.7214 -1.9933  1.5961
15741TIP3    H268715   0.681   6.621   0.351  1.0218 -2.4032  2.2091
15742TIP3   OH268716   4.823   5.628   2.128 -0.2973  0.0335  0.0021
15742TIP3    H168717   4.823   5.595   2.038 -0.1806 -1.1351  0.4142
15742TIP3    H268718   4.730   5.630   2.153 -0.2660 -0.5144  0.1631
15743TIP3   OH268719   4.607   1.148   0.058 -0.2498  0.1350 -0.4805
15743TIP3    H168720   4.585   1.230   0.103 -0.7359 -1.4592  2.4270
15743TIP3    H268721   4.688   1.118   0.100  0.1079 -0.7389 -1.7251
15744TIP3   OH268722   5.577   4.847   3.222 -0.3823  0.0257  0.5809
15744TIP3    H168723   5.568   4.901   3.143  0.6441  0.8551  0.9958
15744TIP3    H268724   5.586   4.758   3.189  0.9105  0.4484 -0.3309
15745TIP3   OH268725   4.863   1.558   5.264 -0.5802  0.1371 -0.2845
15745TIP3    H168726   4.837   1.642   5.301 -0.3470  0.4190 -0.7531
15745TIP3    H268727   4.828   1.493   5.325 -2.1361  0.5078 -0.7310
15746TIP3   OH268728   5.437   5.262   4.855  0.1196  0.0013 -0.0653
15746TIP3    H168729   5.369   5.328   4.859 -0.6122 -0.7691  0.6637
15746TIP3    H268730   5.477   5.263   4.942  0.6939  0.0879 -0.3232
15747TIP3   OH268731   0.683   1.585  12.570  0.3386  0.1899  0.1704
15747TIP3    H168732   0.651   1.645  12.637 -0.7843 -0.0684 -0.1251
15747TIP3    H268733   0.701   1.639  12.494  2.2400  0.5911  0.8322
15748TIP3   OH268734   1.900   0.727   6.349  0.2107 -0.5752  0.0504
15748TIP3    H168735   1.815   0.684   6.357 -0.2826 -0.0781 -1.9220
15748TIP3    H268736   1.964   0.656   6.351 -0.3384 -1.0677  0.2642
15749TIP3   OH268737   2.634   0.316  16.047 -0.4438 -0.4543 -0.1631
15749TIP3    H168738   2.681   0.362  15.978  1.0592 -3.1289 -1.0516
15749TIP3    H268739   2.690   0.324  16.124 -0.9420  0.4594  0.1202
15750TIP3   OH268740   4.415   3.307   4.581  0.2023  0.4327  0.1791
15750TIP3    H168741   4.416   3.263   4.496 -0.6871  0.0869  0.3376
15750TIP3    H268742   4.345   3.264   4.630  0.9684  0.3550  1.2445
15751TIP3   OH268743   2.922   3.344   6.397 -0.1620 -0.9125  0.2005
15751TIP3    H168744   2.853   3.334   6.462 -0.9129 -2.2068 -0.7329
15751TIP3    H268745   3.003   3.348   6.448 -0.7539 -1.5079  1.2263
15752TIP3   OH268746   6.696   5.031  16.104 -0.3708 -0.7588  0.5740
15752TIP3    H168747   6.676   4.937  16.101 -0.6237 -0.6925  0.0983
15752TIP3    H268748   6.670   5.064  16.018 -0.1222 -0.2830  0.6776
15753TIP3   OH268749   4.098   3.317  10.824 -0.3712  0.4488 -0.3757
15753TIP3    H168750   4.177   3.288  10.868 -1.2736 -1.2602  0.1856
15753TIP3    H268751   4.071   3.243  10.769 -0.8149  1.5150 -1.6692
15754TIP3   OH268752   1.592   4.399  13.582 -0.1525  0.5063  0.3126
15754TIP3    H168753   1.599   4.311  13.547  1.7217 -0.1639  2.1854
15754TIP3    H268754   1.538   4.446  13.518  1.4357 -1.1098 -2.4346
15755TIP3   OH268755   2.541   2.275  14.326 -0.5020 -0.0791 -0.5821
15755TIP3    H168756   2.581   2.260  14.240  1.3521  0.9472  0.0463
15755TIP3    H268757   2.611   2.314  14.378 -1.2405 -1.6385  1.7332
15756TIP3   OH268758   0.664   0.329  16.860  0.1403 -0.3535 -0.0595
15756TIP3    H168759   0.598   0.322  16.930  1.9857  1.1060  1.9667
15756TIP3    H268760   0.634   0.401  16.806 -0.0029  0.2750  0.8267
15757TIP3   OH268761   5.688   0.946   3.233  0.3002 -1.0043 -0.3565
15757TIP3    H168762   5.726   0.982   3.152 -0.3857  1.5702  0.3770
15757TIP3    H268763   5.761   0.903   3.276  0.3188 -4.2176 -3.1292
15758TIP3   OH268764   6.083   0.901   5.291  0.7548 -0.1455 -0.0434
15758TIP3    H168765   6.047   0.918   5.204  0.9587  0.1093 -0.0769
15758TIP3    H268766   6.102   0.988   5.326  0.5054 -0.2388  0.3254
15759TIP3   OH268767   4.193   5.598  10.933 -0.7798  0.3354  0.2889
15759TIP3    H168768   4.164   5.610  10.842 -0.2883  0.6080  0.1663
15759TIP3    H268769   4.253   5.670  10.949 -0.6986  0.1657  0.7652
15760TIP3   OH268770   5.737   4.977  13.741  0.7755 -0.5973 -0.2642
15760TIP3    H168771   5.714   5.068  13.760 -0.3010  0.0704 -3.9861
15760TIP3    H268772   5.659   4.927  13.765 -0.2821  0.1004 -2.0628
15761TIP3   OH268773   4.664   5.223  13.401  0.3574 -0.1556  0.2902
15761TIP3    H168774   4.574   5.246  13.425  0.9255  1.7457  0.7661
15761TIP3    H268775   4.671   5.247  13.309  0.5129  0.1607  0.3835
15762TIP3   OH268776   5.322   6.776  15.902 -0.2766  0.3219 -0.2828
15762TIP3    H168777   5.365   6.714  15.844 -1.3722  0.4212 -1.2301
15762TIP3    H268778   5.260   6.823  15.846 -2.4311 -0.5763  1.1764
15763TIP3   OH268779   5.398   0.551  11.911 -0.2826  0.0597  0.5487
15763TIP3    H168780   5.344   0.608  11.967 -1.0373  0.9036 -0.9923
15763TIP3    H268781   5.336   0.500  11.861  0.3782 -0.1937 -0.0272
15764TIP3   OH268782   1.606   2.219  13.293 -0.2205  0.4535 -0.3381
15764TIP3    H168783   1.613   2.253  13.382  0.6128  0.4741 -0.4097
15764TIP3    H268784   1.681   2.162  13.282 -2.3211 -2.6656  0.2636
15765TIP3   OH268785   5.161   1.003   5.905 -0.3098 -0.1988  0.1484
15765TIP3    H168786   5.145   1.068   5.974 -1.7613  0.5350 -0.8238
15765TIP3    H268787   5.236   0.953   5.936 -1.0490 -0.0381  2.3771
15766TIP3   OH268788   0.665   0.097   1.613 -0.1606 -0.4410  0.6864
15766TIP3    H168789   0.693   0.185   1.639  1.1558 -0.7516  0.3960
15766TIP3    H268790   0.594   0.111   1.551 -0.0531  0.4187  0.7495
15767TIP3   OH268791   4.090   2.986   1.600 -0.2173  0.3002  0.0115
15767TIP3    H168792   4.129   2.949   1.679  0.9647 -0.4393 -0.8871
15767TIP3    H268793   4.090   3.081   1.616 -0.7768  0.1088  1.2283
15768TIP3   OH268794   3.995   6.666   2.163  0.3862 -0.6368  0.0359
15768TIP3    H168795   3.917   6.612   2.146 -0.1724 -0.4643  1.8141
15768TIP3    H268796   3.968   6.755   2.138 -0.0179 -0.5756  0.6553
15769TIP3   OH268797   3.086   0.003   0.263 -0.2963  0.3124  0.3756
15769TIP3    H168798   3.041   0.056   0.329 -0.2129 -0.6808  1.2492
15769TIP3    H268799   3.135   0.067   0.211  1.1557  0.9824  2.4499
15770TIP3   OH268800   6.056   4.909  12.426 -0.5972  0.4890  0.1996
15770TIP3    H168801   6.034   4.817  12.411 -0.9189  0.5970 -0.0066
15770TIP3    H268802   6.070   4.945  12.339 -1.4912  0.8826  0.2062
15771TIP3   OH268803   5.901   4.444  14.733 -0.7835  0.5120  0.6534
15771TIP3    H168804   5.857   4.460  14.650 -1.8136 -2.0039  0.6144
15771TIP3    H268805   5.950   4.363  14.719 -0.8626  0.1052  2.4470
15772TIP3   OH268806   1.604   3.845   0.404 -0.1587 -0.3105 -0.0174
15772TIP3    H168807   1.567   3.918   0.355 -0.8090 -0.5335  0.1359
15772TIP3    H268808   1.556   3.845   0.487  1.0428  0.1797  0.7202
15773TIP3   OH268809   6.255   6.669  11.186  0.3593  0.0982 -0.2802
15773TIP3    H168810   6.191   6.598  11.191  1.0656 -0.4794  0.7645
15773TIP3    H268811   6.319   6.638  11.122  0.3102  0.1025 -0.3327
15774TIP3   OH268812   5.158   0.483   4.744 -0.3514 -0.0038 -0.2719
15774TIP3    H168813   5.156   0.568   4.788  2.5670 -1.0490  2.3482
15774TIP3    H268814   5.213   0.497   4.667  0.5717  0.4173  0.4425
15775TIP3   OH268815   0.503   1.114  13.225 -0.7242  0.3108  0.3163
15775TIP3    H168816   0.536   1.170  13.156  1.0815  0.8397  1.5487
15775TIP3    H268817   0.497   1.027  13.185  0.0850  0.6399 -0.5444
15776TIP3   OH268818   1.127   2.696  11.158  0.4223  0.5057  0.4162
15776TIP3    H168819   1.171   2.654  11.083 -1.7122  1.1591 -1.3123
15776TIP3    H268820   1.186   2.768  11.183  1.6918 -0.3919  0.0941
15777TIP3   OH268821   4.110   0.987  14.302 -0.5540  0.1736  0.1797
15777TIP3    H168822   4.102   0.903  14.346 -0.6218 -0.2256 -0.5687
15777TIP3    H268823   4.028   0.997  14.253 -0.9710  1.1423  1.0406
15778TIP3   OH268824   4.365   0.492  11.493  0.3806 -0.1227 -0.3478
15778TIP3    H168825   4.402   0.426  11.434 -0.1481 -0.5284 -0.2317
15778TIP3    H268826   4.333   0.561  11.435  1.7211  0.4583 -0.4300
15779TIP3   OH268827   1.967   3.054  16.008  0.4312  0.2435  0.1435
15779TIP3    H168828   1.987   3.044  15.915  0.7659 -0.5720  0.2987
15779TIP3    H268829   1.872   3.050  16.013  0.4475 -0.5036 -0.0767
15780TIP3   OH268830   2.702   3.579  16.282  0.1515  0.0654 -0.5837
15780TIP3    H168831   2.707   3.543  16.371 -2.1116  2.3264  0.5807
15780TIP3    H268832   2.728   3.671  16.292 -0.1826  0.3701 -2.2675
15781TIP3   OH268833   6.652   6.385  16.115  0.0707  0.4151  0.2424
15781TIP3    H168834   6.714   6.414  16.048 -1.1269  0.2570 -0.9801
15781TIP3    H268835   6.688   6.301  16.146  0.4877  0.3363 -0.4316
15782TIP3   OH268836   0.782   0.289  13.562  0.3095 -0.3768 -0.4490
15782TIP3    H168837   0.807   0.376  13.532 -0.5892 -0.8571 -2.9262
15782TIP3    H268838   0.812   0.284  13.652  0.6230  2.3800 -0.3184
15783TIP3   OH268839   2.530   2.838   4.077 -0.3843 -0.2889  0.0985
15783TIP3    H168840   2.578   2.756   4.090  1.6666  0.8426  0.1595
15783TIP3    H268841   2.440   2.811   4.058  0.1993 -2.5272  0.2439
15784TIP3   OH268842   3.110   1.661  13.872 -0.4700 -0.1035  0.5360
15784TIP3    H168843   3.094   1.744  13.827  1.0242  0.0694  0.2611
15784TIP3    H268844   3.027   1.641  13.916 -1.2589  0.8706 -0.4374
15785TIP3   OH268845   4.801   0.305  12.391  0.1305  0.1929  0.2960
15785TIP3    H168846   4.880   0.304  12.444 -0.1064 -0.3305  0.6480
15785TIP3    H268847   4.730   0.318  12.453  0.0509  2.5314 -0.2046
15786TIP3   OH268848   5.360   2.463   4.143  0.5134 -0.2568  0.3602
15786TIP3    H168849   5.327   2.529   4.082 -0.2945 -0.7913  0.1974
15786TIP3    H268850   5.291   2.453   4.208 -0.3832 -2.4750 -0.8125
15787TIP3   OH268851   6.085   2.452   6.174 -0.0851  0.9492  0.0836
15787TIP3    H168852   6.028   2.529   6.186 -0.0125  0.9671  0.3233
15787TIP3    H268853   6.132   2.469   6.093 -1.1958  0.4510 -0.6939
15788TIP3   OH268854   1.043   3.877   2.023 -0.3944  0.2345 -0.2179
15788TIP3    H168855   0.981   3.808   2.047 -0.1295  0.6844  1.9421
15788TIP3    H268856   0.996   3.958   2.040  0.0288  0.5819 -0.7058
15789TIP3   OH268857   2.621   1.429   2.401  0.2475  0.3671  0.0034
15789TIP3    H168858   2.686   1.481   2.448 -0.6749  0.3442  1.3516
15789TIP3    H268859   2.664   1.344   2.388  0.7005  0.5379  0.3528
15790TIP3   OH268860   5.993   2.778  14.651  0.5559 -0.1879  0.3650
15790TIP3    H168861   6.059   2.845  14.632  2.0500 -2.0903 -1.6572
15790TIP3    H268862   5.982   2.731  14.568 -0.2277 -2.6130  1.7534
15791TIP3   OH268863   1.745   5.276   1.732 -0.7473 -0.0178 -0.1317
15791TIP3    H168864   1.653   5.254   1.748 -1.0425  1.0388 -0.2543
15791TIP3    H268865   1.793   5.233   1.802 -1.1772 -1.6551 -0.7970
15792TIP3   OH268866   1.036   1.178  11.723 -0.9760 -0.7393 -0.4386
15792TIP3    H168867   1.066   1.209  11.637  1.8792 -0.0721  0.6937
15792TIP3    H268868   1.025   1.257  11.775  0.5305 -1.2321  0.7218
15793TIP3   OH268869   5.889   1.795  10.657 -0.3816 -0.0631 -0.0851
15793TIP3    H168870   5.854   1.879  10.629 -0.3648  0.0565  0.2512
15793TIP3    H268871   5.833   1.769  10.731  2.2520  1.7625  2.7952
15794TIP3   OH268872   6.666   3.700   0.599  0.5596 -0.3620  0.8349
15794TIP3    H168873   6.599   3.676   0.663  0.4027  0.3922  0.9541
15794TIP3    H268874   6.703   3.616   0.571 -1.8303 -0.9871 -0.7491
15795TIP3   OH268875   3.374   5.490  14.394  0.2010 -0.0280  0.3218
15795TIP3    H168876   3.371   5.551  14.467 -0.3037  0.7591 -0.3489
15795TIP3    H268877   3.424   5.536  14.327  0.5284 -0.6848  0.1062
15796TIP3   OH268878   2.710   3.646   3.625 -0.3486 -0.5920  0.4040
15796TIP3    H168879   2.630   3.602   3.596  0.5273 -1.8557 -0.1823
15796TIP3    H268880   2.778   3.614   3.566  0.3284  1.7031 -0.1661
15797TIP3   OH268881   5.386   1.076  15.249  0.1018  0.2463 -0.0284
15797TIP3    H168882   5.360   1.007  15.310 -1.6690 -0.1715 -1.1622
15797TIP3    H268883   5.474   1.051  15.220  0.3137 -0.3933  1.1383
15798TIP3   OH268884   4.702   6.743  16.286 -0.2390 -0.4853  0.0893
15798TIP3    H168885   4.689   6.831  16.250  0.2379  0.0429  1.1589
15798TIP3    H268886   4.615   6.716  16.316 -0.4652 -0.5634 -0.6068
15799TIP3   OH268887   3.858   0.814  12.661  0.4292  0.4368 -0.5027
15799TIP3    H168888   3.806   0.734  12.665 -1.0462  1.3770  2.3541
15799TIP3    H268889   3.945   0.788  12.690  0.2577 -0.3224 -0.6560
15800TIP3   OH268890   2.804   6.212   5.569 -0.8896 -0.1899  0.2395
15800TIP3    H168891   2.721   6.169   5.547 -0.4989 -0.7265 -0.2175
15800TIP3    H268892   2.780   6.279   5.633 -1.6781 -0.3299  0.1037
15801TIP3   OH268893   4.076   3.947  16.231  0.9132 -0.3720 -0.4561
15801TIP3    H168894   4.009   3.965  16.166 -0.5511  1.3639  1.3951
15801TIP3    H268895   4.085   4.029  16.280  1.6191 -1.6785  1.7779
15802TIP3   OH268896   5.695   0.078  13.226 -0.4655 -0.7084  0.2628
15802TIP3    H168897   5.750   0.066  13.148  0.2266 -2.6006  0.9723
15802TIP3    H268898   5.605   0.075  13.194 -0.1966  0.7156 -0.7072
15803TIP3   OH268899   2.327   1.623  13.611 -0.5885  0.0632 -0.5244
15803TIP3    H168900   2.406   1.677  13.605 -0.8210  0.3588 -1.0177
15803TIP3    H268901   2.348   1.556  13.675 -0.1568  0.5184 -0.1836
15804TIP3   OH268902   0.876   3.249   4.708 -0.2186  0.0174 -0.0044
15804TIP3    H168903   0.950   3.251   4.769  0.7813  0.1106 -1.2052
15804TIP3    H268904   0.828   3.169   4.731  1.0493 -0.7982 -0.1354
15805TIP3   OH268905   3.983   0.188  15.877  0.0795 -0.1003 -0.3240
15805TIP3    H168906   4.071   0.219  15.898 -0.8811  0.8191  3.0833
15805TIP3    H268907   3.926   0.263  15.894 -1.6945 -1.7796  1.7272
15806TIP3   OH268908   6.106   1.623  16.581  0.0104 -0.1544  0.0567
15806TIP3    H168909   6.037   1.567  16.545  0.7279 -2.5971  2.2245
15806TIP3    H268910   6.064   1.709  16.588 -1.6279 -0.6812 -1.9685
15807TIP3   OH268911   6.041   0.373   4.301  0.2961 -0.0608  0.7494
15807TIP3    H168912   6.115   0.388   4.242  0.3581  0.6395  0.9929
15807TIP3    H268913   5.965   0.364   4.243  0.5776 -0.9019  0.4933
15808TIP3   OH268914   3.874   4.245  11.996 -0.5333  0.2838 -0.0570
15808TIP3    H168915   3.961   4.209  12.012  0.3791  1.6050 -1.7480
15808TIP3    H268916   3.817   4.169  11.987  0.4312 -0.6033  1.0316
15809TIP3   OH268917   5.168   0.800  16.229  0.1823  0.0540 -0.1815
15809TIP3    H168918   5.164   0.843  16.144 -0.2022  1.0088  0.3012
15809TIP3    H268919   5.145   0.868  16.292 -1.9400 -1.1874  0.5082
15810TIP3   OH268920   4.638   5.342   1.641  0.3605 -0.4079 -0.3778
15810TIP3    H168921   4.589   5.361   1.561  0.3894  1.9093  0.0721
15810TIP3    H268922   4.729   5.336   1.612  0.1705 -1.7239 -0.7827
15811TIP3   OH268923   1.905   2.839   1.671 -0.0873 -0.6262 -0.0890
15811TIP3    H168924   1.975   2.780   1.699  0.6076  0.6629  1.0194
15811TIP3    H268925   1.834   2.823   1.733  0.3577  0.1478  0.6464
15812TIP3   OH268926   6.809   0.009   1.574  0.4754  0.2076  0.0150
15812TIP3    H168927   6.792  -0.082   1.549  2.0805  0.1064 -0.7981
15812TIP3    H268928   6.835   0.003   1.666  0.6732 -0.1811 -0.0610
15813TIP3   OH268929   0.146   1.023  11.846  0.2234  0.1056 -0.1432
15813TIP3    H168930   0.214   0.987  11.903  0.3833  0.9087  0.1954
15813TIP3    H268931   0.136   1.114  11.876 -1.2521 -0.1002  0.0557
15814TIP3   OH268932   1.016   0.960   1.253 -0.5337 -0.0228  0.0009
15814TIP3    H168933   0.930   0.970   1.294 -1.1012  0.3673 -1.2292
15814TIP3    H268934   1.008   0.882   1.198 -0.0842 -0.0206 -0.0738
15815TIP3   OH268935   0.258   5.731  12.577 -0.8957  0.4032 -0.5010
15815TIP3    H168936   0.308   5.664  12.623 -1.6000  0.5162  0.4525
15815TIP3    H268937   0.168   5.716  12.603 -1.0277  1.9464  0.0260
15816TIP3   OH268938   6.414   4.605  15.004 -0.2297 -0.5084  0.1709
15816TIP3    H168939   6.421   4.591  15.098 -0.0204 -2.2623 -0.0657
15816TIP3    H268940   6.352   4.538  14.974 -0.7865  0.4307 -0.8542
15817TIP3   OH268941   5.627   4.646   0.598  0.0525 -0.2090 -0.2606
15817TIP3    H168942   5.608   4.727   0.646 -1.2998 -0.7852  0.2020
15817TIP3    H268943   5.544   4.598   0.597  0.4660 -0.9535 -1.7716
15818TIP3   OH268944   2.661   5.374  10.896  0.0899 -0.3882  0.1473
15818TIP3    H168945   2.706   5.291  10.883 -0.2177 -0.4103 -0.8291
15818TIP3    H268946   2.732   5.437  10.910  0.4922 -0.3483 -1.8086
15819TIP3   OH268947   5.775   4.548   4.858 -0.4905 -0.4454  0.5106
15819TIP3    H168948   5.827   4.597   4.922  0.0455 -1.9726  1.2987
15819TIP3    H268949   5.708   4.609   4.830  1.5974  1.5738 -0.4319
15820TIP3   OH268950   6.191   0.535   4.499 -0.2754 -0.0886 -0.4023
15820TIP3    H168951   6.146   0.616   4.475  0.2259  0.2616 -0.1812
15820TIP3    H268952   6.139   0.466   4.458 -1.6744  0.2078  0.8147
15821TIP3   OH268953   3.147   3.462   4.410 -0.2936  0.3850  0.1919
15821TIP3    H168954   3.158   3.476   4.316  1.1622 -0.5003  0.2016
15821TIP3    H268955   3.066   3.412   4.418  0.7752 -1.6284 -0.8355
15822TIP3   OH268956   5.441   0.303   0.990 -0.4975 -0.2430  0.7848
15822TIP3    H168957   5.402   0.390   1.000  0.1850  0.0250  1.2284
15822TIP3    H268958   5.492   0.308   0.909 -0.0053 -0.0455  1.1019
15823TIP3   OH268959   1.259   5.281  16.240  0.1172 -0.1700 -0.2491
15823TIP3    H168960   1.324   5.284  16.170 -0.6735  1.3834 -0.9791
15823TIP3    H268961   1.298   5.335  16.310  0.1452 -0.2671 -0.1895
15824TIP3   OH268962   1.057   3.420   1.025  0.5335  0.2808 -0.0024
15824TIP3    H168963   1.067   3.411   0.930 -1.3495 -1.5165 -0.1058
15824TIP3    H268964   1.140   3.457   1.054  2.1750 -1.4598 -2.0739
15825TIP3   OH268965   0.176   3.984   5.231 -0.3449 -0.7433 -0.2597
15825TIP3    H168966   0.112   3.939   5.286 -1.3543 -1.8098 -2.2003
15825TIP3    H268967   0.165   4.076   5.250  0.2381 -1.1187  2.2186
15826TIP3   OH268968   2.026   2.367  12.115 -0.0352 -0.2619 -0.2364
15826TIP3    H168969   2.099   2.358  12.054 -0.4040 -1.1497 -0.5585
15826TIP3    H268970   2.067   2.379  12.200  0.4853 -0.4664 -0.4546
15827TIP3   OH268971   0.072   1.557  15.245  0.1261 -0.0120  0.1688
15827TIP3    H168972   0.058   1.592  15.332  2.8541 -1.0119  1.1198
15827TIP3    H268973   0.007   1.488  15.236 -1.4672  1.3770  0.5726
15828TIP3   OH268974   0.769   0.398  16.142 -0.5896  0.3088 -0.8922
15828TIP3    H168975   0.752   0.338  16.070 -2.2394 -0.4694  0.0831
15828TIP3    H268976   0.817   0.471  16.102  0.9168 -1.3245 -2.2234
15829TIP3   OH268977   1.379   2.162   3.323  0.7318  0.2702 -0.0873
15829TIP3    H168978   1.365   2.086   3.267 -1.8389  0.4268  0.1954
15829TIP3    H268979   1.456   2.141   3.375  0.8673 -1.5375 -0.9634
15830TIP3   OH268980   3.806   1.900   1.634 -0.2228 -0.1829  0.2521
15830TIP3    H168981   3.739   1.937   1.577  0.8244  1.5324  0.0630
15830TIP3    H268982   3.866   1.854   1.574 -0.5898 -0.7217  0.2927
15831TIP3   OH268983   0.495   1.033  15.435 -0.4049 -0.2653 -0.1436
15831TIP3    H168984   0.500   1.104  15.499  0.1391 -0.2707 -0.1771
15831TIP3    H268985   0.585   1.022  15.403 -0.5581 -0.6847 -0.4489
15832TIP3   OH268986   6.330   3.620  14.714 -0.1373 -0.4663 -0.5950
15832TIP3    H168987   6.329   3.655  14.625  1.0683 -1.2927 -0.9607
15832TIP3    H268988   6.259   3.666  14.759  0.2000  1.0728 -1.5562
15833TIP3   OH268989   4.684   5.340   5.119  0.1128  0.0031 -0.0004
15833TIP3    H168990   4.651   5.251   5.130  0.1056  0.1241  1.0572
15833TIP3    H268991   4.740   5.336   5.041  0.5861 -1.0657  0.3809
15834TIP3   OH268992   1.232   5.620  14.645 -0.3727  0.4708 -0.3290
15834TIP3    H168993   1.268   5.617  14.733 -0.7540  0.1928 -0.1792
15834TIP3    H268994   1.150   5.669  14.655 -1.0350 -0.6075 -0.2980
15835TIP3   OH268995   4.467   5.031  10.738 -0.3799 -0.4467 -0.5162
15835TIP3    H168996   4.425   4.950  10.708  1.0671 -0.7021 -1.9857
15835TIP3    H268997   4.400   5.098  10.725 -0.9193 -1.0865 -1.1974
15836TIP3   OH268998   4.416   6.433   5.176  0.2110 -0.1170 -0.0253
15836TIP3    H168999   4.361   6.403   5.248  0.2410 -1.0970 -0.4031
15836TIP3    H269000   4.357   6.436   5.101 -0.1026  1.9878  0.2383
15837TIP3   OH269001   0.705   2.249  14.044 -0.2877  0.5279 -0.0890
15837TIP3    H169002   0.777   2.268  13.984  0.2001  0.2509  0.3997
15837TIP3    H269003   0.728   2.164  14.082  0.5334  1.6446  2.0866
15838TIP3   OH269004   1.858   6.627   3.045  0.4194 -0.0762  0.0833
15838TIP3    H169005   1.895   6.714   3.026  1.4759 -1.0351 -2.8545
15838TIP3    H269006   1.933   6.576   3.075  0.2054 -0.4669 -0.0429
15839TIP3   OH269007   1.274   3.860   5.402 -0.3652 -0.2838 -0.0295
15839TIP3    H169008   1.190   3.901   5.381  0.1583  1.7042  1.4385
15839TIP3    H269009   1.339   3.911   5.353  0.0650 -1.5755 -0.8683
15840TIP3   OH269010   6.163   2.981  14.600  0.2609 -0.5458 -0.1702
15840TIP3    H169011   6.210   3.063  14.591 -0.2625 -0.3571 -1.3531
15840TIP3    H269012   6.145   2.973  14.694 -2.7132  2.4272 -0.3178
15841TIP3   OH269013   1.473   0.695   5.376 -0.1544 -0.0717  0.1517
15841TIP3    H169014   1.465   0.648   5.460  0.2523 -1.1051 -0.3692
15841TIP3    H269015   1.554   0.745   5.386 -0.7175  0.7461  0.8042
15842TIP3   OH269016   3.865   5.065  11.194 -0.1110 -0.0806  0.2604
15842TIP3    H169017   3.780   5.064  11.238 -0.2694 -1.6483 -0.0169
15842TIP3    H269018   3.844   5.049  11.101  0.4969 -0.9575  0.2589
15843TIP3   OH269019   6.578   5.778   1.959  0.5877  0.0133  0.0292
15843TIP3    H169020   6.666   5.793   1.925  0.2550 -0.2696 -0.9783
15843TIP3    H269021   6.526   5.851   1.924  0.5386  0.5401  1.1365
15844TIP3   OH269022   2.149   4.245   2.532 -0.3187 -0.8181 -0.3167
15844TIP3    H169023   2.082   4.181   2.509  0.2078 -1.0495 -1.2520
15844TIP3    H269024   2.230   4.208   2.497  0.8264 -1.8824  3.0670
15845TIP3   OH269025   3.343   1.275   3.279 -0.6432 -0.6456  0.0572
15845TIP3    H169026   3.379   1.237   3.199  1.0787  1.7988 -0.4346
15845TIP3    H269027   3.293   1.351   3.250 -1.2533 -0.5771  1.2114
15846TIP3   OH269028   6.776   3.277   4.563  0.0488 -0.2502  0.2015
15846TIP3    H169029   6.738   3.310   4.644  0.0894  0.2507  0.0225
15846TIP3    H269030   6.799   3.356   4.513 -1.1518 -0.5355 -0.8446
15847TIP3   OH269031   3.167   2.351  16.757 -0.9524  0.3401 -0.1771
15847TIP3    H169032   3.174   2.364  16.851  2.4026 -0.1360 -0.2445
15847TIP3    H269033   3.187   2.436  16.719 -2.1218  0.4894 -0.5040
15848TIP3   OH269034   0.488   4.129   3.837 -0.3388  0.0627 -0.0458
15848TIP3    H169035   0.523   4.215   3.861 -1.4603  0.2810  0.8302
15848TIP3    H269036   0.396   4.133   3.860 -1.0332 -0.4459 -2.4865
15849TIP3   OH269037   0.535   0.306  11.377  0.0476  0.2271  0.0967
15849TIP3    H169038   0.481   0.345  11.309 -2.2020  0.6860  2.0260
15849TIP3    H269039   0.478   0.240  11.418  2.1729 -1.8273 -0.0385
15850TIP3   OH269040   2.839   3.071   0.777 -0.0477 -0.3972  0.6081
15850TIP3    H169041   2.926   3.096   0.747  1.4836 -3.8585  1.6304
15850TIP3    H269042   2.809   3.006   0.713 -1.4300 -0.0293  0.8458
15851TIP3   OH269043   0.307   3.567  15.042 -0.0858 -0.4330 -0.2744
15851TIP3    H169044   0.299   3.556  14.947 -0.8248 -3.6170  0.0519
15851TIP3    H269045   0.344   3.484  15.073  0.8944  0.7982  2.1942
15852TIP3   OH269046   0.083   5.829  15.232  0.1107 -0.5806 -0.4442
15852TIP3    H169047   0.152   5.814  15.297 -0.4433  1.0725  0.5883
15852TIP3    H269048   0.105   5.913  15.193  0.1204 -1.2924 -2.0515
15853TIP3   OH269049   5.130   5.629  12.312  0.0126  0.2760  0.2501
15853TIP3    H169050   5.152   5.718  12.338 -0.4800  0.1628  1.1021
15853TIP3    H269051   5.178   5.615  12.230  2.5062  0.2877  1.6036
15854TIP3   OH269052   1.234   5.898  12.938 -0.0646 -0.0361  0.1044
15854TIP3    H169053   1.261   5.972  12.884  0.3254 -0.6193 -0.5156
15854TIP3    H269054   1.306   5.835  12.930 -1.1526 -1.2249 -0.8288
15855TIP3   OH269055   4.306   3.495  15.907  0.6177  0.5790 -0.5536
15855TIP3    H169056   4.298   3.526  15.997  0.2725  0.3776 -0.5156
15855TIP3    H269057   4.400   3.502  15.888  0.5806  1.4267 -0.4676
15856TIP3   OH269058   3.936   5.125  16.380  0.0630  0.0525  0.0864
15856TIP3    H169059   3.881   5.170  16.316  0.6266 -1.9512 -1.9718
15856TIP3    H269060   3.964   5.193  16.441 -3.2078  1.4424  0.1993
15857TIP3   OH269061   3.957   0.087  16.156  1.0320  0.9098  0.0280
15857TIP3    H169062   3.919   0.149  16.218 -0.7399  0.2519 -0.3286
15857TIP3    H269063   3.897   0.088  16.081  1.5750 -0.3865 -0.4540
15858TIP3   OH269064   4.333   4.622  16.587 -0.2496  0.0977 -0.4777
15858TIP3    H169065   4.380   4.654  16.510  0.0477 -0.6502 -0.6085
15858TIP3    H269066   4.377   4.665  16.661 -0.8453  1.1977 -0.7391
15859TIP3   OH269067   6.489   0.082   4.637  0.0678  0.5693  0.1504
15859TIP3    H169068   6.451  -0.005   4.624  1.4079 -0.0028 -0.0891
15859TIP3    H269069   6.528   0.079   4.724  0.5290  0.7629 -0.0455
15860TIP3   OH269070   1.085   1.193   1.806 -0.0849  0.5328 -0.1093
15860TIP3    H169071   1.052   1.257   1.870 -0.2596  0.0542  0.2906
15860TIP3    H269072   1.085   1.110   1.854 -1.2293 -0.0340 -1.0540
15861TIP3   OH269073   1.061   1.491  11.785  0.2659 -0.1830 -0.7036
15861TIP3    H169074   1.008   1.506  11.707  0.9816 -0.3511 -1.2362
15861TIP3    H269075   1.091   1.578  11.811  0.7609 -0.2118 -1.1550
15862TIP3   OH269076   4.765   6.154  12.054  0.4244 -0.4389  0.4985
15862TIP3    H169077   4.684   6.106  12.035  1.1980 -1.8100  0.5587
15862TIP3    H269078   4.818   6.145  11.976  1.1030 -0.8028  0.9897
15863TIP3   OH269079   4.241   6.713   2.076 -0.0491  0.2314 -0.0971
15863TIP3    H169080   4.156   6.704   2.120  0.5497  0.7508  1.1993
15863TIP3    H269081   4.258   6.626   2.040 -0.0886 -0.5138  1.6031
15864TIP3   OH269082   1.394   2.381   4.299  0.1976 -0.2209  0.1077
15864TIP3    H169083   1.315   2.358   4.250  0.4179 -0.9901  0.1134
15864TIP3    H269084   1.401   2.315   4.368  0.2579  0.4646  0.7822
15865TIP3   OH269085   2.256   6.755   0.146 -0.1433  0.7704 -0.3897
15865TIP3    H169086   2.320   6.824   0.164  0.3872  0.4088 -0.8574
15865TIP3    H269087   2.183   6.801   0.105 -0.4398  1.2741  0.6550
15866TIP3   OH269088   2.461   4.719   6.097 -0.0945 -1.1107 -0.1373
15866TIP3    H169089   2.386   4.694   6.151 -0.8725  2.1598  0.5589
15866TIP3    H269090   2.423   4.771   6.026  1.3834 -0.7613 -0.7049
15867TIP3   OH269091   6.035   4.501   2.287  0.2068  0.0231 -0.3750
15867TIP3    H169092   5.989   4.418   2.273  0.7668 -0.5331  0.8748
15867TIP3    H269093   5.991   4.540   2.363 -0.1005  0.9231 -1.0020
15868TIP3   OH269094   4.482   6.634  11.300  0.0560  0.2602 -0.0670
15868TIP3    H169095   4.525   6.549  11.307 -1.0106 -0.3451 -0.5161
15868TIP3    H269096   4.439   6.645  11.386  0.9390  0.7761  0.3146
15869TIP3   OH269097   3.410   5.182   3.442 -0.7846 -0.1632  0.2494
15869TIP3    H169098   3.418   5.162   3.536  0.7421 -0.1998  0.1404
15869TIP3    H269099   3.496   5.217   3.418 -1.4923  0.8435 -0.9180
15870TIP3   OH269100   4.499   0.573  12.570  0.0332 -0.5931  0.0903
15870TIP3    H169101   4.421   0.534  12.611  0.1107 -0.2390  0.5793
15870TIP3    H269102   4.470   0.598  12.482  0.3769 -3.1664 -0.8451
15871TIP3   OH269103   1.585   3.598  13.926  0.8062  0.2614  0.1618
15871TIP3    H169104   1.614   3.689  13.935 -1.2313  0.8646  1.1384
15871TIP3    H269105   1.634   3.565  13.850  2.4611  1.7808  0.5073
15872TIP3   OH269106   6.294   6.109  15.295 -0.1824 -0.6139 -0.8639
15872TIP3    H169107   6.284   6.199  15.327  4.0782 -0.5378  0.9244
15872TIP3    H269108   6.249   6.108  15.211 -1.9647  2.6003 -0.1239
15873TIP3   OH269109   1.879   0.455  16.144  0.0436 -0.2665 -0.4135
15873TIP3    H169110   1.874   0.422  16.234 -0.6210 -0.8917 -0.6738
15873TIP3    H269111   1.965   0.426  16.113  1.3557  2.0511  0.8057
15874TIP3   OH269112   1.381   1.127  15.166 -0.3570 -0.0053 -0.0607
15874TIP3    H169113   1.366   1.085  15.082  0.3665  0.6902 -0.5508
15874TIP3    H269114   1.297   1.167  15.189 -0.9334 -1.3176  0.2085
15875TIP3   OH269115   2.503   5.847   2.695  0.1942 -0.0415  0.1970
15875TIP3    H169116   2.530   5.778   2.633  1.6204  1.3533 -0.8126
15875TIP3    H269117   2.578   5.907   2.698 -1.5352  2.2422 -0.0650
15876TIP3   OH269118   0.315   3.107   0.378 -0.0074  0.9576  0.1304
15876TIP3    H169119   0.400   3.137   0.410  0.2757  1.3145 -0.9090
15876TIP3    H269120   0.288   3.040   0.440  0.7925  1.2114  0.7650
15877TIP3   OH269121   1.278   0.649  11.460 -0.0382  0.6368  0.1112
15877TIP3    H169122   1.241   0.563  11.439 -1.1197  1.3070 -0.8304
15877TIP3    H269123   1.350   0.659  11.398  0.9931 -0.1315  1.1198
15878TIP3   OH269124   4.561   3.084  15.245  0.0736 -0.2946  0.3981
15878TIP3    H169125   4.479   3.034  15.243  0.8886 -1.6972 -1.0983
15878TIP3    H269126   4.541   3.162  15.297 -2.2022 -0.5670  0.0313
15879TIP3   OH269127   0.046   1.864   1.522 -0.4468 -0.5943  0.2166
15879TIP3    H169128  -0.009   1.937   1.551 -0.0232 -1.1396  2.6107
15879TIP3    H269129   0.043   1.869   1.427 -0.2829  2.6555  0.2401
15880TIP3   OH269130   0.624   1.738   5.321 -0.0100  0.2130  0.5053
15880TIP3    H169131   0.585   1.738   5.234 -0.4760  0.9109  0.7025
15880TIP3    H269132   0.675   1.819   5.324  1.1083 -0.4658  0.4128
15881TIP3   OH269133   0.701   3.301  14.439  0.8595 -0.4415 -0.1022
15881TIP3    H169134   0.782   3.253  14.456  0.3254 -1.1190  0.6199
15881TIP3    H269135   0.631   3.238  14.458  0.0980  0.8620  1.6691
15882TIP3   OH269136   3.825   3.033   4.653 -0.4221  0.6413  0.3499
15882TIP3    H169137   3.754   3.094   4.635 -0.1908  1.7232  2.7505
15882TIP3    H269138   3.862   3.013   4.567 -2.5012  1.4003 -0.7852
15883TIP3   OH269139   2.771   0.048   3.937 -0.4425  0.1716 -0.7092
15883TIP3    H169140   2.679   0.073   3.950 -0.4261 -0.0656 -0.0628
15883TIP3    H269141   2.794   0.084   3.852 -0.5021  2.1748  0.0412
15884TIP3   OH269142   0.649   2.759  15.989  0.0458 -0.1811  0.5885
15884TIP3    H169143   0.660   2.672  16.027 -1.8104 -0.9971 -0.6396
15884TIP3    H269144   0.578   2.799  16.038 -0.5151 -0.1848 -0.1957
15885TIP3   OH269145   5.109   3.472  14.673 -0.4115  0.7932  0.0557
15885TIP3    H169146   5.062   3.498  14.593  0.2178  0.3301 -0.4726
15885TIP3    H269147   5.182   3.419  14.642  0.4069  1.4117  0.8794
15886TIP3   OH269148   0.393   6.797  13.006  0.1961  0.0535 -0.5646
15886TIP3    H169149   0.399   6.843  12.922 -0.3364 -1.2105 -1.3177
15886TIP3    H269150   0.315   6.742  12.997 -0.8862  1.1867  1.4187
15887TIP3   OH269151   1.959   0.078   2.998  0.0096  0.0670 -0.2283
15887TIP3    H169152   1.989   0.151   2.943 -1.0745 -0.1985 -1.2240
15887TIP3    H269153   1.942   0.118   3.083 -2.7213  1.5475 -1.3261
15888TIP3   OH269154   1.773   6.018  14.374 -0.2243  0.1587 -0.0782
15888TIP3    H169155   1.749   6.007  14.466  0.5379 -0.6907  0.0241
15888TIP3    H269156   1.739   5.940  14.331 -0.2743  0.3915 -0.4636
15889TIP3   OH269157   0.095   2.407  10.960  0.2192 -0.1160  0.1716
15889TIP3    H169158   0.149   2.476  10.923 -0.4212  0.5680  0.5079
15889TIP3    H269159   0.031   2.452  11.015 -0.2497 -0.9635  0.3458
15890TIP3   OH269160   0.475   6.616   6.832  0.3748 -0.3188 -0.2412
15890TIP3    H169161   0.477   6.689   6.895 -0.0862 -1.0335  0.6137
15890TIP3    H269162   0.552   6.563   6.854 -0.7796 -1.5658  0.9550
15891TIP3   OH269163   5.900   2.239  13.489 -0.2341  0.3149 -0.9146
15891TIP3    H169164   5.871   2.207  13.574  0.2574  1.9567 -0.0945
15891TIP3    H269165   5.819   2.258  13.442 -0.5012  0.8196 -0.2512
15892TIP3   OH269166   4.301   5.024   5.400  0.0974 -0.1580  0.5319
15892TIP3    H169167   4.356   5.000   5.475 -0.2192 -0.5183  0.6508
15892TIP3    H269168   4.213   5.028   5.436 -0.0085  0.0379  0.2548
15893TIP3   OH269169   0.614   4.983  13.635 -0.2915  0.0611 -0.4143
15893TIP3    H169170   0.681   4.918  13.614 -0.8335 -1.4220  2.0645
15893TIP3    H269171   0.568   4.998  13.552  2.6695  0.7006 -2.0568
15894TIP3   OH269172   0.299   3.828  14.412 -0.3571 -0.5623 -0.4942
15894TIP3    H169173   0.375   3.775  14.438  0.6827 -0.4810 -3.0688
15894TIP3    H269174   0.335   3.914  14.392 -1.5999  0.3196  0.8219
15895TIP3   OH269175   1.940   4.122   3.961 -0.3203  0.2964  0.5583
15895TIP3    H169176   2.006   4.136   3.893 -1.8683  0.9068 -0.8878
15895TIP3    H269177   1.981   4.061   4.023  0.1384 -2.7534 -2.4608
15896TIP3   OH269178   6.681   5.539   1.585  0.9595 -0.3461 -0.2639
15896TIP3    H169179   6.587   5.520   1.583  0.4902  1.2956  2.1049
15896TIP3    H269180   6.718   5.469   1.640  0.9551 -0.4310 -0.3696
15897TIP3   OH269181   5.893   0.999  11.174  0.0730  0.4202  0.1756
15897TIP3    H169182   5.988   0.994  11.187  0.3363  1.0743 -1.3765
15897TIP3    H269183   5.864   0.908  11.176  1.0543  0.0337 -1.4991
15898TIP3   OH269184   0.832   0.799  11.409 -0.0064  0.1221 -0.1358
15898TIP3    H169185   0.907   0.802  11.467  0.4943 -0.7348 -0.7081
15898TIP3    H269186   0.760   0.838  11.459  0.4460 -0.4692  0.9907
15899TIP3   OH269187   4.899   1.059  12.101 -0.5969 -0.3730 -0.2331
15899TIP3    H169188   4.918   1.115  12.026  1.3409 -0.9871 -0.2474
15899TIP3    H269189   4.899   1.117  12.177  2.0508 -0.3645 -0.1572
15900TIP3   OH269190   0.951   1.272   5.860 -0.4204 -0.8814 -0.2796
15900TIP3    H169191   0.964   1.359   5.897  3.5384 -1.4432 -0.0051
15900TIP3    H269192   0.896   1.287   5.782  0.3252  1.8938 -0.3746
15901TIP3   OH269193   3.966   4.555  13.166  0.1326 -0.6359  0.2990
15901TIP3    H169194   3.934   4.493  13.231 -0.9605  0.1007  0.4978
15901TIP3    H269195   3.938   4.640  13.199  3.3909  0.2657  1.1421
15902TIP3   OH269196   1.038   2.050   5.324 -0.2443 -0.2334  0.3722
15902TIP3    H169197   1.015   1.974   5.377  1.2328 -1.2333 -0.3255
15902TIP3    H269198   1.132   2.039   5.308  0.0235  1.7934  0.3076
15903TIP3   OH269199   2.617   2.265  13.767  0.2017 -0.3294  0.0852
15903TIP3    H169200   2.584   2.289  13.681  0.0496  1.2470  0.5476
15903TIP3    H269201   2.710   2.289  13.765  0.4862 -1.3564  0.0057
15904TIP3   OH269202   0.589   0.979   3.105 -0.2091 -0.1333  0.5763
15904TIP3    H169203   0.610   1.067   3.136  3.0330 -0.5304 -0.1470
15904TIP3    H269204   0.579   0.990   3.010 -0.9014 -0.3943  0.6148
15905TIP3   OH269205   4.818   3.149  15.795 -0.2248  0.7530  0.1239
15905TIP3    H169206   4.849   3.101  15.719 -1.5704 -0.3775  0.2451
15905TIP3    H269207   4.881   3.130  15.864  0.7134  1.3590 -0.5515
15906TIP3   OH269208   5.639   1.312  11.412  0.3243  0.1340  0.1204
15906TIP3    H169209   5.612   1.266  11.333  1.2321  0.0214 -0.1359
15906TIP3    H269210   5.583   1.389  11.415 -0.8797 -0.7122  0.2881
15907TIP3   OH269211   3.106   6.675  14.907  0.2616 -0.1883 -0.0280
15907TIP3    H169212   3.144   6.720  14.831 -1.1858  0.5629 -0.3513
15907TIP3    H269213   3.019   6.646  14.876  0.6960 -2.2529  0.5255
15908TIP3   OH269214   3.580   5.492  14.946  0.1091 -0.3508  0.7608
15908TIP3    H169215   3.534   5.409  14.930  0.3971 -0.4620  0.4980
15908TIP3    H269216   3.667   5.465  14.976  1.3956 -0.2126 -2.5079
15909TIP3   OH269217   3.970   0.328  12.138 -0.3737  0.8836 -0.0044
15909TIP3    H169218   3.962   0.364  12.226  1.0581  0.5266  0.3065
15909TIP3    H269219   4.042   0.378  12.099  0.9324 -0.8667  0.0596
15910TIP3   OH269220   5.499   1.253   0.775 -0.4808  0.0924 -0.0689
15910TIP3    H169221   5.575   1.305   0.799  1.8450 -3.2788  0.6444
15910TIP3    H269222   5.445   1.251   0.854 -1.1397  2.1203 -0.4268
15911TIP3   OH269223   1.658   2.340   1.086  0.3480 -0.2223 -0.1096
15911TIP3    H169224   1.568   2.331   1.053  0.9810 -3.2554 -1.3606
15911TIP3    H269225   1.651   2.320   1.179 -0.3801  0.5795  0.0248
15912TIP3   OH269226   3.408   2.293   2.928  0.7486  1.1494  0.1426
15912TIP3    H169227   3.391   2.203   2.956 -2.1964  1.5098 -0.2464
15912TIP3    H269228   3.401   2.290   2.832  2.4609  1.5026 -0.0268
15913TIP3   OH269229   4.168   5.689   4.210  0.2089  0.6527  0.4366
15913TIP3    H169230   4.104   5.729   4.152  0.0656 -1.5216 -1.0167
15913TIP3    H269231   4.248   5.739   4.195 -0.5419  1.9474  0.5681
15914TIP3   OH269232   4.853   4.606   4.583 -0.3313  0.2756 -0.3504
15914TIP3    H169233   4.799   4.663   4.638 -1.3435 -1.8295  0.9614
15914TIP3    H269234   4.800   4.527   4.572  1.3217 -0.7203 -1.4774
15915TIP3   OH269235   3.694   3.419  12.345  0.4722  0.1857  0.0433
15915TIP3    H169236   3.706   3.352  12.277 -0.8036 -0.3290  0.3053
15915TIP3    H269237   3.703   3.502  12.298  2.9436 -0.1078 -0.1392
15916TIP3   OH269238   2.461   6.792   2.962 -0.0283  0.7566  0.3688
15916TIP3    H169239   2.427   6.725   3.020  0.9460  0.8411  1.0549
15916TIP3    H269240   2.397   6.798   2.891 -0.8403  0.1259  1.0472
15917TIP3   OH269241   3.993   2.349   4.154 -0.6113 -0.9987 -0.4593
15917TIP3    H169242   3.996   2.351   4.250 -1.2500  0.3281 -0.4395
15917TIP3    H269243   3.973   2.440   4.129 -0.6290 -1.3618 -1.8419
15918TIP3   OH269244   1.108   5.313  11.497 -0.1890  0.1057 -0.3692
15918TIP3    H169245   1.042   5.381  11.486  1.6408  1.6227 -3.7303
15918TIP3    H269246   1.185   5.360  11.530 -0.0531 -1.1878  1.2877
15919TIP3   OH269247   4.155   0.812  11.651  0.0417  0.3394 -0.3149
15919TIP3    H169248   4.132   0.721  11.668  0.8431  0.2966  0.5992
15919TIP3    H269249   4.096   0.862  11.707  0.8614  0.3007  0.6009
15920TIP3   OH269250   3.360   0.697   2.603 -0.4963  0.4114  0.0414
15920TIP3    H169251   3.361   0.623   2.663 -1.0564  1.0940  0.9071
15920TIP3    H269252   3.450   0.700   2.568 -0.5149 -0.7722 -0.1500
15921TIP3   OH269253   4.485   5.459  13.945  0.4003 -0.3683  0.3208
15921TIP3    H169254   4.477   5.376  13.992 -1.1940 -0.0745  0.6249
15921TIP3    H269255   4.395   5.480  13.918  0.9386  0.6978 -0.7437
15922TIP3   OH269256   1.357   2.535  14.409 -0.1840 -0.0374 -0.5373
15922TIP3    H169257   1.390   2.482  14.482  0.3926  0.8588 -0.1325
15922TIP3    H269258   1.261   2.531  14.418 -0.1147  0.2386  0.3991
15923TIP3   OH269259   5.638   1.672   1.517  0.0012  0.6330 -0.1277
15923TIP3    H169260   5.696   1.748   1.512 -0.1978  0.8898  1.2834
15923TIP3    H269261   5.627   1.656   1.610 -3.1650  1.3252 -0.2979
15924TIP3   OH269262   2.362   1.685  17.047  0.0247 -0.1688  0.0721
15924TIP3    H169263   2.286   1.628  17.035 -0.7967  1.0131 -0.4942
15924TIP3    H269264   2.330   1.773  17.028  1.4200  0.4200  0.3063
15925TIP3   OH269265   0.346   0.895  13.132  0.0517 -0.3528 -0.0831
15925TIP3    H169266   0.311   0.983  13.143  2.0037  0.5907 -1.0196
15925TIP3    H269267   0.365   0.866  13.221 -0.9910 -0.0325  0.2645
15926TIP3   OH269268   1.711   2.802  11.880 -0.1032  0.1619 -0.4861
15926TIP3    H169269   1.710   2.714  11.918  0.2271 -0.3927 -1.7027
15926TIP3    H269270   1.780   2.848  11.928 -1.1770  0.2069  1.0727
15927TIP3   OH269271   2.333   6.259  12.979  0.5014  0.3351 -0.9959
15927TIP3    H169272   2.302   6.220  13.061 -0.9534  0.6811 -1.3431
15927TIP3    H269273   2.427   6.273  12.992  0.3715 -0.0220  0.4416
15928TIP3   OH269274   4.943   3.257   3.036 -0.0409 -0.0948 -0.1045
15928TIP3    H169275   5.017   3.225   2.983  0.7583  0.7648  0.4632
15928TIP3    H269276   4.918   3.340   2.994 -0.4164 -0.1757 -0.0416
15929TIP3   OH269277   2.509   6.652   1.377  0.0816 -0.1926 -0.1827
15929TIP3    H169278   2.569   6.705   1.324  0.6945 -0.1109  0.5701
15929TIP3    H269279   2.551   6.648   1.463  0.0162 -1.8649 -0.2012
15930TIP3   OH269280   1.251   1.589   1.684 -0.2429 -0.6309  0.2466
15930TIP3    H169281   1.286   1.593   1.773 -0.0479 -1.5977  0.2266
15930TIP3    H269282   1.304   1.521   1.641  1.3976  1.5498 -1.3974
15931TIP3   OH269283   6.190   2.424  14.876 -0.1790  0.3312  0.4207
15931TIP3    H169284   6.271   2.382  14.847 -0.2827  0.9703 -0.8880
15931TIP3    H269285   6.169   2.382  14.960  1.3235 -0.0662  0.6217
15932TIP3   OH269286   3.371   0.514   3.228 -0.1478  0.1031  0.6342
15932TIP3    H169287   3.460   0.546   3.243  0.4478 -0.9243 -0.5470
15932TIP3    H269288   3.369   0.490   3.136 -0.7354 -2.5399  1.2404
15933TIP3   OH269289   0.659   2.553  17.110 -0.1459  0.1785 -0.5545
15933TIP3    H169290   0.677   2.617  17.179  0.2335  0.2377 -0.7047
15933TIP3    H269291   0.740   2.503  17.102 -1.5431 -2.8679  2.1317
15934TIP3   OH269292   5.889   0.577  13.712  0.2520 -0.0543 -0.1307
15934TIP3    H169293   5.975   0.566  13.670  0.2231 -1.6608  0.1711
15934TIP3    H269294   5.826   0.563  13.642  0.2310  0.7395 -0.2716
15935TIP3   OH269295   1.927   3.262  13.916  0.0446  0.2995  0.3387
15935TIP3    H169296   1.911   3.319  13.991 -1.7660 -1.3473  1.3185
15935TIP3    H269297   1.949   3.322  13.844 -1.0115  2.1685  1.4789
15936TIP3   OH269298   1.829   2.124  14.324  0.2632  0.1332 -0.5277
15936TIP3    H169299   1.894   2.187  14.354 -1.2041  0.7910  1.5340
15936TIP3    H269300   1.795   2.085  14.405 -1.4518 -0.6455 -1.5629
15937TIP3   OH269301   5.220   0.056  13.965  0.0741 -0.4569 -0.6263
15937TIP3    H169302   5.223   0.020  13.877  2.0271  0.1404 -0.8446
15937TIP3    H269303   5.223  -0.020  14.023 -1.3875 -0.8613 -1.0306
15938TIP3   OH269304   0.556   2.441   0.388  0.6107  0.0926 -0.0613
15938TIP3    H169305   0.568   2.520   0.440  1.7973  0.5360 -0.9661
15938TIP3    H269306   0.627   2.443   0.324 -0.4650 -0.7192 -1.3487
15939TIP3   OH269307   6.585   5.542  16.171  0.1648  0.2220  0.3457
15939TIP3    H169308   6.585   5.601  16.247 -1.2396  2.8585 -1.5580
15939TIP3    H269309   6.664   5.566  16.123 -1.1852  1.7795 -1.2285
15940TIP3   OH269310   4.233   0.635  12.398 -0.1599 -0.1507 -0.0801
15940TIP3    H169311   4.314   0.670  12.361 -0.6492  0.0881 -0.9600
15940TIP3    H269312   4.163   0.684  12.355 -0.8417 -1.7327 -0.8781
15941TIP3   OH269313   1.034   2.979  14.172 -0.0631 -0.0334 -0.3188
15941TIP3    H169314   1.006   2.951  14.259  0.0354  0.9243  0.0348
15941TIP3    H269315   1.115   3.028  14.188 -1.4451  2.5334 -0.5763
15942TIP3   OH269316   1.225   6.292  16.035  0.2891 -0.6832 -0.1066
15942TIP3    H169317   1.219   6.300  16.130 -0.3382  0.0753 -0.1976
15942TIP3    H269318   1.134   6.288  16.006  0.3676  1.6008 -0.8471
15943TIP3   OH269319   1.902   0.224   1.920 -0.2891 -0.1042 -0.0347
15943TIP3    H169320   1.914   0.136   1.885  1.3432 -0.6199  1.6676
15943TIP3    H269321   1.988   0.265   1.912 -1.2742  1.7847 -1.8341
15944TIP3   OH269322   0.085   6.619   0.542  0.8844  0.1571  0.3127
15944TIP3    H169323   0.026   6.671   0.596  0.5400  1.6075 -1.3693
15944TIP3    H269324   0.163   6.673   0.534  0.9274 -0.0394 -0.6357
15945TIP3   OH269325   3.051   6.066  11.279  0.8670 -0.1454 -0.1785
15945TIP3    H169326   3.104   6.122  11.222  0.2620  0.3276 -0.2810
15945TIP3    H269327   3.085   5.978  11.263 -1.6121 -0.6462 -4.0960
15946TIP3   OH269328   3.722   2.671   0.335 -0.3537 -0.2787 -0.0918
15946TIP3    H169329   3.661   2.744   0.322 -2.8467 -1.9891  1.2572
15946TIP3    H269330   3.791   2.708   0.390 -0.6234  1.4944 -0.8588
15947TIP3   OH269331   0.034   6.528  14.937  0.6848 -0.2483 -0.1294
15947TIP3    H169332   0.118   6.554  14.900  0.6084  0.0054 -0.1282
15947TIP3    H269333   0.050   6.441  14.973  1.4740  0.5670  1.5868
15948TIP3   OH269334   6.088   6.283  11.906  0.0411 -0.3830  0.0616
15948TIP3    H169335   6.099   6.231  11.985  1.9850  1.4232  1.0592
15948TIP3    H269336   6.102   6.221  11.834 -0.9999 -1.8852  1.1123
15949TIP3   OH269337   2.328   6.036  13.927 -0.0141 -0.6970  0.2037
15949TIP3    H169338   2.307   6.104  13.991 -0.4728 -0.8558  0.2309
15949TIP3    H269339   2.246   5.987  13.917  0.4276 -1.5250  0.5271
15950TIP3   OH269340   4.309   2.829   3.536 -0.1930 -0.5528  0.7420
15950TIP3    H169341   4.340   2.773   3.465 -0.7394 -0.9520  0.8132
15950TIP3    H269342   4.389   2.859   3.580  0.0950 -2.2498  1.4546
15951TIP3   OH269343   1.623   1.571   1.448  0.3191  0.8942 -0.1751
15951TIP3    H169344   1.697   1.513   1.427  0.4880  0.3643  1.6866
15951TIP3    H269345   1.653   1.621   1.524 -1.0127  1.1336  0.2125
15952TIP3   OH269346   6.187   5.007  16.387 -0.7428 -0.3353  0.7029
15952TIP3    H169347   6.210   4.927  16.436 -0.1302 -0.6412 -0.0717
15952TIP3    H269348   6.232   4.998  16.303 -0.1447  1.1330  0.8371
15953TIP3   OH269349   2.892   0.607   3.553  0.2924 -0.4834 -0.6358
15953TIP3    H169350   2.809   0.648   3.577  0.8068  0.1583  0.0961
15953TIP3    H269351   2.947   0.680   3.523  1.0532 -0.6857  0.2056
15954TIP3   OH269352   6.740   2.010  11.158  0.3535  0.2475 -0.2420
15954TIP3    H169353   6.812   2.073  11.163  1.0900 -0.4800 -1.1945
15954TIP3    H269354   6.782   1.925  11.161 -0.4295 -0.1979 -1.1003
15955TIP3   OH269355   4.733   4.201  13.989 -0.2485 -0.0661  0.1433
15955TIP3    H169356   4.762   4.291  13.980 -3.1509  0.7716 -2.4367
15955TIP3    H269357   4.792   4.151  13.933 -0.5663  0.7540 -0.9428
15956TIP3   OH269358   2.899   6.145  14.463  0.0453 -0.3176  0.6930
15956TIP3    H169359   2.854   6.120  14.544 -0.3701 -1.4101  0.1350
15956TIP3    H269360   2.988   6.109  14.472  0.3460  0.4970  1.1158
15957TIP3   OH269361   4.335   4.650   1.132  0.0596 -0.2812  0.1724
15957TIP3    H169362   4.268   4.596   1.090  0.0760 -0.0124 -0.2071
15957TIP3    H269363   4.314   4.646   1.226  0.1014 -0.9878  0.1549
15958TIP3   OH269364   6.816   0.633   2.103 -0.0208 -0.0523  0.2244
15958TIP3    H169365   6.744   0.695   2.098 -0.8219 -0.9707  0.1372
15958TIP3    H269366   6.776   0.547   2.086  0.8551 -0.7291  1.3548
15959TIP3   OH269367   1.731   4.357   3.053  0.1153 -0.6053 -0.3817
15959TIP3    H169368   1.796   4.301   3.010  0.8136 -1.6466  1.8864
15959TIP3    H269369   1.649   4.308   3.046 -0.9895  1.3995 -4.6358
15960TIP3   OH269370   5.363   2.934  16.879 -0.0932 -0.5174 -0.2776
15960TIP3    H169371   5.458   2.935  16.881  0.0219 -1.4231 -2.3044
15960TIP3    H269372   5.339   2.858  16.932  0.5245 -2.1244 -2.1799
15961TIP3   OH269373   3.009   4.259  13.853 -0.1300  0.1588  0.4290
15961TIP3    H169374   2.935   4.315  13.831 -0.9987 -0.6953  1.0643
15961TIP3    H269375   3.004   4.250  13.949 -0.9374 -2.1824  0.2196
15962TIP3   OH269376   4.885   6.771   2.580  0.0681  0.3563  0.1084
15962TIP3    H169377   4.873   6.737   2.491  0.3561  0.1396  0.1529
15962TIP3    H269378   4.797   6.773   2.617  0.2528 -2.5274  0.9248
15963TIP3   OH269379   1.441   0.627   4.112  0.2904  0.0434  0.2606
15963TIP3    H169380   1.521   0.637   4.163  0.3382 -0.5367  0.3097
15963TIP3    H269381   1.453   0.543   4.066  0.4025  0.7065 -0.9692
15964TIP3   OH269382   2.995   0.269   3.805  0.2074  0.0033  0.5937
15964TIP3    H169383   2.935   0.216   3.752  0.1506 -0.7421  1.3776
15964TIP3    H269384   3.077   0.220   3.803  1.1671  1.5387 -1.3379
15965TIP3   OH269385   1.736   0.589  14.240  0.3822  0.2106  0.5888
15965TIP3    H169386   1.674   0.621  14.175  0.4561 -1.0100 -0.1022
15965TIP3    H269387   1.704   0.626  14.323 -0.0213  1.3297 -0.0450
15966TIP3   OH269388   0.537   6.225  13.961  0.3549  0.4030  0.1446
15966TIP3    H169389   0.451   6.188  13.942 -0.1105  0.2153  2.2966
15966TIP3    H269390   0.517   6.308  14.006  1.2054 -0.3511  2.0341
15967TIP3   OH269391   2.890   2.088   1.254 -0.3166 -0.1229  0.0152
15967TIP3    H169392   2.811   2.137   1.277 -0.0326  0.5832 -0.4875
15967TIP3    H269393   2.876   2.001   1.292 -0.3995  0.6318  1.7841
15968TIP3   OH269394   6.793   5.260  12.075  0.2352 -0.3621 -0.2286
15968TIP3    H169395   6.795   5.334  12.016 -0.0245  0.5888  0.9162
15968TIP3    H269396   6.851   5.195  12.035  0.2995  0.3691 -1.3474
15969TIP3   OH269397   0.044   5.030  16.972  0.4274 -0.3315  0.0098
15969TIP3    H169398  -0.051   5.028  16.962  0.3407  2.2481 -0.3888
15969TIP3    H269399   0.077   4.989  16.892 -0.3642  0.4598 -0.7499
15970TIP3   OH269400   0.845   0.850   2.986  0.0418 -0.9038 -0.3955
15970TIP3    H169401   0.785   0.919   2.958 -1.7430 -1.1957  2.3085
15970TIP3    H269402   0.932   0.885   2.967 -0.8031  1.8485  0.2267
15971TIP3   OH269403   6.199   0.343  15.451 -0.1868 -0.8409  0.2388
15971TIP3    H169404   6.116   0.326  15.495 -0.3236  0.0940  0.3503
15971TIP3    H269405   6.191   0.296  15.368 -1.4262  0.3790 -0.3826
15972TIP3   OH269406   0.528   1.099   1.473 -0.1372  0.3833 -0.3634
15972TIP3    H169407   0.475   1.115   1.552 -0.1089 -0.5976 -0.1430
15972TIP3    H269408   0.535   1.186   1.432 -0.4867  0.8344  0.4968
15973TIP3   OH269409   1.874   2.664  14.312 -0.1085 -0.1683 -0.4036
15973TIP3    H169410   1.781   2.662  14.335 -0.3133  1.6901 -0.9275
15973TIP3    H269411   1.875   2.665  14.217  0.4011  0.3969 -0.4000
15974TIP3   OH269412   2.959   5.692  15.248  0.7844  0.6298 -0.3701
15974TIP3    H169413   2.935   5.620  15.306  1.0172 -1.1333 -2.3419
15974TIP3    H269414   2.888   5.697  15.185  0.5281  2.5132  0.0264
15975TIP3   OH269415   3.714   2.694   1.211  0.1162 -0.2796  0.6823
15975TIP3    H169416   3.698   2.754   1.284 -0.1208  0.4781  0.0130
15975TIP3    H269417   3.699   2.746   1.133  1.5617 -0.7567  0.0652
15976TIP3   OH269418   2.692   3.101  11.472  0.3974 -0.2177  0.4286
15976TIP3    H169419   2.748   3.042  11.523  1.2976  1.1554  1.1086
15976TIP3    H269420   2.754   3.159  11.427 -0.4519  0.6403  0.3326
15977TIP3   OH269421   4.581   0.352   1.500  0.2199 -0.1286 -0.6262
15977TIP3    H169422   4.655   0.298   1.470  0.3637  0.2733 -1.0030
15977TIP3    H269423   4.622   0.425   1.546  0.0159 -0.4399  0.0565
15978TIP3   OH269424   1.483   1.618   0.711  0.2912  0.1531 -0.1622
15978TIP3    H169425   1.394   1.593   0.736  1.6318 -5.5412  0.2985
15978TIP3    H269426   1.518   1.662   0.788 -1.6511  1.4804  0.0546
15979TIP3   OH269427   5.647   4.859   2.184  0.1429 -0.3464 -0.0703
15979TIP3    H169428   5.731   4.817   2.201 -0.0394 -0.4512  0.6132
15979TIP3    H269429   5.641   4.928   2.250 -0.9502 -1.2859  0.8576
15980TIP3   OH269430   4.617   1.594   3.398  0.0684  0.1461 -0.8391
15980TIP3    H169431   4.581   1.669   3.349 -0.8425  0.4565  0.2534
15980TIP3    H269432   4.659   1.634   3.475  0.4018 -0.4104 -0.7287
15981TIP3   OH269433   4.735   4.972  10.699  0.3142  0.2520 -0.4431
15981TIP3    H169434   4.785   5.048  10.670 -0.5212  1.0864  0.2261
15981TIP3    H269435   4.644   5.002  10.699  0.0214 -0.5892  0.3222
15982TIP3   OH269436   2.033   5.800  12.930  0.5987  0.5518  0.7354
15982TIP3    H169437   1.994   5.861  12.992 -1.6738 -0.6031  0.5608
15982TIP3    H269438   2.020   5.841  12.845 -0.6941 -0.0174  0.6407
15983TIP3   OH269439   5.860   4.915  12.860 -0.1958  0.1276 -0.1897
15983TIP3    H169440   5.846   4.895  12.768 -1.7193  0.4611 -0.0480
15983TIP3    H269441   5.792   4.979  12.882  0.2571  0.1981  1.1154
15984TIP3   OH269442   2.615   1.873  14.528 -0.3779 -0.4040 -1.0016
15984TIP3    H169443   2.683   1.919  14.479 -1.4983  5.4830  2.0572
15984TIP3    H269444   2.533   1.905  14.492 -1.3370 -1.3328  0.2573
15985TIP3   OH269445   3.463   2.324  11.233  0.0724  0.5622  0.7905
15985TIP3    H169446   3.440   2.311  11.325 -0.0226  0.8584  0.8075
15985TIP3    H269447   3.558   2.321  11.231  0.0511 -1.2661  0.6343
15986TIP3   OH269448   2.418   4.805  13.012  0.2801 -0.9134  0.0683
15986TIP3    H169449   2.391   4.892  13.042  0.8928 -0.8400  0.4319
15986TIP3    H269450   2.512   4.814  12.993  0.2482 -1.3761 -0.3432
15987TIP3   OH269451   4.638   2.496  16.512 -0.2784  0.4032 -0.1465
15987TIP3    H169452   4.644   2.591  16.505  0.9696  0.3217 -0.4515
15987TIP3    H269453   4.595   2.468  16.431  1.2323  0.5614 -1.0203
15988TIP3   OH269454   6.234   1.923  12.873  0.2542  0.2839 -0.2907
15988TIP3    H169455   6.181   2.000  12.892 -0.0178  0.0456 -0.0610
15988TIP3    H269456   6.171   1.851  12.873 -0.1186  0.4584 -3.9249
15989TIP3   OH269457   6.113   5.280   0.358 -0.3373 -0.3724  0.3678
15989TIP3    H169458   6.087   5.274   0.449 -1.4351  3.1737  0.4533
15989TIP3    H269459   6.209   5.287   0.360 -0.3466 -0.5043  1.2438
15990TIP3   OH269460   4.371   5.323   3.046 -0.1059 -0.0573 -0.0013
15990TIP3    H169461   4.368   5.243   2.994  0.2379  0.1006 -0.2652
15990TIP3    H269462   4.464   5.345   3.052 -0.2578  0.8638 -0.7759
15991TIP3   OH269463   4.864   1.329   2.924  0.5079 -0.1552 -0.1898
15991TIP3    H169464   4.792   1.271   2.952  0.1515  0.3181 -0.1137
15991TIP3    H269465   4.927   1.324   2.996  0.0524  0.2715  0.2520
15992TIP3   OH269466   1.284   2.595   0.343  0.7036  0.3906 -0.1014
15992TIP3    H169467   1.239   2.678   0.356  1.4184  0.6462  0.8262
15992TIP3    H269468   1.315   2.598   0.252 -1.5648 -0.0229 -0.9607
15993TIP3   OH269469   0.001   6.522   4.838  0.1220  0.4058  0.1088
15993TIP3    H169470  -0.043   6.506   4.755  1.0289 -0.4420 -0.2270
15993TIP3    H269471   0.047   6.440   4.858  1.9732  1.3934  0.1590
15994TIP3   OH269472   1.179   2.488   4.559 -0.1248  0.0394  0.0591
15994TIP3    H169473   1.159   2.399   4.587 -0.2173  0.4294  1.3210
15994TIP3    H269474   1.249   2.479   4.495  1.0274 -0.8546  1.3813
15995TIP3   OH269475   2.773   2.045   1.823 -0.0470  0.0158  0.0803
15995TIP3    H169476   2.851   1.989   1.825  0.3269  0.4947 -0.4223
15995TIP3    H269477   2.729   2.021   1.741 -0.4591 -0.2936  0.3923
15996TIP3   OH269478   6.560   6.650   5.592  0.0034  0.1361 -0.4512
15996TIP3    H169479   6.587   6.559   5.594  0.2515  0.1548 -1.9486
15996TIP3    H269480   6.600   6.689   5.670 -0.1505 -1.0294  0.2226
15997TIP3   OH269481   0.278   2.714   4.752 -0.0613  0.0533  0.0697
15997TIP3    H169482   0.275   2.759   4.668  0.0393 -0.2703 -0.1130
15997TIP3    H269483   0.200   2.743   4.799 -1.9214 -2.2261 -1.4223
15998TIP3   OH269484   5.250   3.223  16.095  0.4015  0.5364  0.2695
15998TIP3    H169485   5.168   3.198  16.052  0.7737  0.2085 -0.2764
15998TIP3    H269486   5.248   3.178  16.179  0.3919 -0.1420 -0.0879
15999TIP3   OH269487   0.742   3.718   4.554 -0.1217  0.1721  0.0723
15999TIP3    H169488   0.741   3.623   4.560  0.0769  0.2117  0.8189
15999TIP3    H269489   0.746   3.736   4.460  1.4460 -0.5692 -0.0282
16000TIP3   OH269490   6.507   2.667   1.570 -0.5651 -0.0287  0.1831
16000TIP3    H169491   6.455   2.731   1.619  0.5185  2.3353 -1.5268
16000TIP3    H269492   6.598   2.689   1.589 -0.1251  0.3723 -2.0300
16001TIP3   OH269493   0.960   0.014   0.003  0.1655 -0.1567 -0.0260
16001TIP3    H169494   0.926   0.023  -0.086  0.0040 -0.8194 -0.0410
16001TIP3    H269495   0.952   0.102   0.041  0.5556  0.2082 -0.7679
16002TIP3   OH269496   4.190   5.017  10.491  0.5089  0.2529  0.4347
16002TIP3    H169497   4.214   5.109  10.500  1.8466 -0.1893  1.6932
16002TIP3    H269498   4.138   4.997  10.569  2.5837 -0.7253  1.6486
16003TIP3   OH269499   4.058   0.763  12.946 -0.6932  0.3587  0.6609
16003TIP3    H169500   4.147   0.775  12.912 -0.2804 -0.2449  1.5026
16003TIP3    H269501   4.039   0.670  12.931 -1.2378  0.5123  0.3646
16004TIP3   OH269502   3.459   0.247   5.239  0.5576 -0.6470  0.3591
16004TIP3    H169503   3.411   0.266   5.158 -1.2248 -0.8309  1.3265
16004TIP3    H269504   3.504   0.329   5.260 -0.3132 -0.0908  0.0714
16005TIP3   OH269505   0.788   5.534   0.756 -0.3371  0.1209  1.0849
16005TIP3    H169506   0.762   5.451   0.716 -0.3430  0.9590 -0.7739
16005TIP3    H269507   0.799   5.514   0.848  1.0228 -2.2743  0.4912
16006TIP3   OH269508   4.926   5.525  17.193 -0.2023 -0.1156 -0.3311
16006TIP3    H169509   4.896   5.560  17.276  0.5851  0.8330 -0.4258
16006TIP3    H269510   5.010   5.568  17.177  0.6255 -1.7601 -0.6623
16007TIP3   OH269511   5.673   6.248  15.731 -0.2581  0.1034  0.5419
16007TIP3    H169512   5.767   6.264  15.725 -0.2132 -0.4355 -0.4401
16007TIP3    H269513   5.666   6.153  15.741 -0.7168  0.0371 -0.3146
16008TIP3   OH269514   6.409   6.183  11.790 -0.3503  0.0488 -0.2403
16008TIP3    H169515   6.381   6.271  11.766  0.6883  0.5002  0.1079
16008TIP3    H269516   6.504   6.191  11.804 -0.6815 -0.2952  3.2169
16009TIP3   OH269517   2.522   6.327  11.917 -0.3803 -0.2589 -0.2880
16009TIP3    H169518   2.434   6.359  11.897 -0.7794 -0.0592  1.6747
16009TIP3    H269519   2.566   6.327  11.832 -1.1968  2.8395 -0.8391
16010TIP3   OH269520   2.527   1.151  15.327  0.3612 -0.5806  0.2177
16010TIP3    H169521   2.517   1.228  15.383  0.4284 -1.1512  1.0239
16010TIP3    H269522   2.615   1.118  15.348 -0.3976 -1.9921  1.3164
16011TIP3   OH269523   6.648   2.093   2.108 -0.1201 -0.0973 -0.3618
16011TIP3    H169524   6.588   2.080   2.181  0.1340 -1.4762 -0.3721
16011TIP3    H269525   6.697   2.012   2.103 -1.4293 -0.8300 -3.2540
16012TIP3   OH269526   5.297   4.011   4.558  0.5675 -0.0010 -0.0178
16012TIP3    H169527   5.241   4.071   4.608  0.8424 -0.6301  1.0770
16012TIP3    H269528   5.267   4.020   4.467 -2.0966 -1.1618  0.6572
16013TIP3   OH269529   1.147   4.048  13.517  0.0482 -0.1084  0.7106
16013TIP3    H169530   1.102   3.990  13.579 -2.6573  0.5099 -0.5365
16013TIP3    H269531   1.195   4.109  13.573  0.7697 -1.8052  2.0853
16014TIP3   OH269532   0.822   6.123  10.772 -0.7695  0.3251  0.3119
16014TIP3    H169533   0.875   6.189  10.816 -1.2639  0.7712  0.2502
16014TIP3    H269534   0.786   6.168  10.696  1.0973 -0.7657 -1.3326
16015TIP3   OH269535   3.433   6.154   2.412 -0.7528  0.3739  0.1600
16015TIP3    H169536   3.497   6.117   2.473  0.3550  0.7097 -0.7629
16015TIP3    H269537   3.348   6.142   2.456 -0.0267  0.3119  1.6097
16016TIP3   OH269538   3.998   4.732  11.312 -0.0016  0.1711 -0.2632
16016TIP3    H169539   3.983   4.653  11.363  0.7040  0.6846  0.7865
16016TIP3    H269540   3.910   4.764  11.291 -0.3306  0.2739  1.1735
16017TIP3   OH269541   6.148   4.809   3.464  0.1243  0.1123 -0.5780
16017TIP3    H169542   6.175   4.718   3.473 -1.1447 -0.4006 -1.7766
16017TIP3    H269543   6.194   4.854   3.535  1.8218 -1.2059 -0.7705
16018TIP3   OH269544   0.561   5.049  15.368  0.3891  0.1413  0.5166
16018TIP3    H169545   0.597   4.980  15.313 -0.0097  1.9272 -2.1425
16018TIP3    H269546   0.630   5.067  15.433  1.2056 -1.4754  0.1436
16019TIP3   OH269547   2.187   3.171  16.154  0.1979  0.0733  0.3936
16019TIP3    H169548   2.206   3.240  16.091  0.6352  0.5034  0.9931
16019TIP3    H269549   2.126   3.113  16.108  1.1009 -0.0409 -0.7015
16020TIP3   OH269550   0.882   0.162  15.653  0.2287  0.4747 -0.4691
16020TIP3    H169551   0.939   0.091  15.624  1.2001  0.3565  1.5898
16020TIP3    H269552   0.925   0.242  15.621 -0.3510  0.2415 -1.9343
16021TIP3   OH269553   6.175   6.219  12.178  0.2775  0.2381 -0.4832
16021TIP3    H169554   6.212   6.134  12.155  2.3978  1.1717 -0.8272
16021TIP3    H269555   6.128   6.204  12.260  1.1149 -1.1502 -0.2320
16022TIP3   OH269556   0.342   1.309   3.323  0.1441 -0.4960  0.4231
16022TIP3    H169557   0.369   1.230   3.278  0.1366 -1.0893  1.4230
16022TIP3    H269558   0.323   1.371   3.253  1.6613 -0.8532 -0.3572
16023TIP3   OH269559   5.237   3.665   4.396  0.3627  0.0611 -0.1404
16023TIP3    H169560   5.274   3.601   4.335 -0.6200 -1.0812  0.4039
16023TIP3    H269561   5.219   3.615   4.476 -1.8628  0.6124 -0.2142
16024TIP3   OH269562   4.877   6.335  13.974 -0.1070  0.3663 -0.1429
16024TIP3    H169563   4.805   6.366  14.027 -1.2970  1.8995 -2.4622
16024TIP3    H269564   4.925   6.414  13.949  2.9035 -0.6280  1.8606
16025TIP3   OH269565   6.629   5.248   3.759 -0.0315  0.3869 -0.3782
16025TIP3    H169566   6.621   5.315   3.691  1.4721  2.2480  1.1526
16025TIP3    H269567   6.587   5.288   3.836 -0.7033 -1.2031  0.1189
16026TIP3   OH269568   0.851   4.545   0.690 -0.1143  0.0032 -0.2765
16026TIP3    H169569   0.872   4.486   0.762  0.6139 -1.3482 -1.5315
16026TIP3    H269570   0.935   4.564   0.649 -0.6195 -0.2473 -1.4762
16027TIP3   OH269571   3.840   1.168  14.429 -0.0361  0.7278  0.0231
16027TIP3    H169572   3.838   1.164  14.524 -2.2538  1.1328  0.0478
16027TIP3    H269573   3.872   1.256  14.410  0.1804  0.7324  0.3968
16028TIP3   OH269574   3.937   0.391  13.393  0.3870 -0.2317  0.4150
16028TIP3    H169575   3.879   0.322  13.428  0.6023 -0.5056  0.2383
16028TIP3    H269576   3.913   0.397  13.301  0.5153 -0.2192  0.3827
16029TIP3   OH269577   4.158   1.739   0.814  0.3775 -0.0581  0.5089
16029TIP3    H169578   4.130   1.797   0.743  0.9276 -0.8052 -0.3465
16029TIP3    H269579   4.244   1.772   0.840  1.2344 -1.1426 -0.7900
16030TIP3   OH269580   3.020   3.845   3.850  0.1842  0.5887  0.4907
16030TIP3    H169581   2.977   3.765   3.881  0.1557  0.3527 -0.1515
16030TIP3    H269582   3.015   3.840   3.755 -0.3719  1.6507  0.4394
16031TIP3   OH269583   1.302   3.581   5.275  0.5649 -0.7405  0.2760
16031TIP3    H169584   1.364   3.544   5.338  0.8321  1.8112  1.6600
16031TIP3    H269585   1.302   3.675   5.295 -2.5625 -0.4381 -0.7457
16032TIP3   OH269586   6.290   0.039  14.049 -0.3823 -0.2836 -0.1546
16032TIP3    H169587   6.275   0.060  13.957  1.0661  0.5794 -0.2332
16032TIP3    H269588   6.278  -0.056  14.054 -1.4389 -0.2165 -1.0117
16033TIP3   OH269589   5.112   4.435   2.864  0.1174  0.1175 -0.5552
16033TIP3    H169590   5.161   4.365   2.907 -1.6524 -0.2084  1.0490
16033TIP3    H269591   5.111   4.410   2.772  2.7903  0.0932 -0.6722
16034TIP3   OH269592   4.131   1.140   1.006 -0.3507  0.4927 -0.3040
16034TIP3    H169593   4.127   1.047   1.027 -0.4698  0.4734 -0.4112
16034TIP3    H269594   4.043   1.173   1.026 -0.1377  0.7062  0.3193
16035TIP3   OH269595   6.194   6.121  12.498  0.4024  0.0122  0.9472
16035TIP3    H169596   6.245   6.045  12.468  2.5530  0.6375  2.7193
16035TIP3    H269597   6.252   6.195  12.484 -1.1085  1.1732  0.5979
16036TIP3   OH269598   6.755   0.540   6.272 -0.1822  0.5919  0.1997
16036TIP3    H169599   6.685   0.601   6.294  0.1627 -0.0112  3.6355
16036TIP3    H269600   6.832   0.575   6.316  0.1312 -1.9551  1.8820
16037TIP3   OH269601   1.541   1.931  14.861  0.4141 -0.5203  0.1537
16037TIP3    H169602   1.480   1.983  14.913 -1.3189 -0.8012 -1.4960
16037TIP3    H269603   1.601   1.995  14.822  0.4665 -0.1307  0.8644
16038TIP3   OH269604   3.234   5.640   0.061 -0.0279 -0.1056 -0.2916
16038TIP3    H169605   3.330   5.633   0.068 -0.2098 -1.9111  1.3789
16038TIP3    H269606   3.209   5.563   0.011 -0.6526  0.0965 -0.2908
16039TIP3   OH269607   1.644   3.694  12.931  0.2901  0.5172 -0.1371
16039TIP3    H169608   1.656   3.767  12.991  0.8310  0.0170  0.3695
16039TIP3    H269609   1.732   3.666  12.908  0.0872  0.2363 -0.5882
16040TIP3   OH269610   0.170   2.146   2.650 -0.2374 -0.1225  0.4749
16040TIP3    H169611   0.092   2.134   2.595  0.7222 -0.5108 -0.8691
16040TIP3    H269612   0.137   2.176   2.734 -1.7396  0.9167 -0.4588
16041TIP3   OH269613   6.187   4.582  15.708  0.3976 -0.0567 -0.3019
16041TIP3    H169614   6.115   4.525  15.737 -0.4844  1.1419 -0.0195
16041TIP3    H269615   6.232   4.607  15.788 -0.8304  1.6814 -0.0845
16042TIP3   OH269616   2.647   1.796  16.751 -0.2856  0.8007 -0.7750
16042TIP3    H169617   2.625   1.785  16.844 -0.7533 -0.5893 -1.0239
16042TIP3    H269618   2.682   1.711  16.725  0.5289  1.4006 -1.7077
16043TIP3   OH269619   1.530   1.774  15.703 -0.5128  0.9216  0.5889
16043TIP3    H169620   1.515   1.715  15.628 -0.6745  0.7288  0.7714
16043TIP3    H269621   1.608   1.824  15.679 -0.3359  0.5850  0.4596
16044TIP3   OH269622   2.342   5.911  13.487 -0.3058 -0.2138  0.0433
16044TIP3    H169623   2.435   5.925  13.501  0.0956 -0.2246 -2.1584
16044TIP3    H269624   2.299   5.980  13.538  0.8978 -0.0901  0.9318
16045TIP3   OH269625   3.291   4.631   2.483 -0.0773  0.4275 -0.0707
16045TIP3    H169626   3.280   4.537   2.501 -0.3719  0.2022 -1.3329
16045TIP3    H269627   3.383   4.648   2.501 -0.4144  0.3596  2.0715
16046TIP3   OH269628   0.767   1.785  11.968 -0.1761 -0.5959 -0.3917
16046TIP3    H169629   0.859   1.796  11.994 -0.3931 -1.3474  0.7857
16046TIP3    H269630   0.728   1.734  12.039 -2.4607  2.9166  1.1639
16047TIP3   OH269631   3.741   2.888  17.086 -0.3147  0.1234  0.3170
16047TIP3    H169632   3.666   2.889  17.145 -0.8674 -1.1313 -0.3184
16047TIP3    H269633   3.752   2.795  17.062  0.9274  0.3902 -0.2364
16048TIP3   OH269634   5.001   3.769   2.710 -0.6393 -0.1216  1.2971
16048TIP3    H169635   4.961   3.779   2.796 -0.1802 -0.5169  1.5646
16048TIP3    H269636   5.091   3.800   2.721 -0.9473  1.0924  0.6163
16049TIP3   OH269637   3.996   4.153   1.897 -0.2136 -0.0788 -0.1532
16049TIP3    H169638   3.980   4.079   1.837  0.3064  1.3970 -2.2299
16049TIP3    H269639   4.083   4.135   1.933 -1.2152 -1.8549  1.6169
16050TIP3   OH269640   6.686   3.610   4.873  0.6983 -0.3262  0.2767
16050TIP3    H169641   6.688   3.676   4.803  1.7898 -0.7829 -0.1581
16050TIP3    H269642   6.613   3.553   4.850 -1.1314  1.4668  1.3932
16051TIP3   OH269643   6.721   3.686   4.390 -0.1164 -0.2844 -0.0235
16051TIP3    H169644   6.766   3.602   4.391 -0.4101 -0.4414  0.1210
16051TIP3    H269645   6.673   3.687   4.308 -0.1913 -0.3002  0.0198
16052TIP3   OH269646   2.425   6.309   1.596 -0.4003 -0.1484  0.0553
16052TIP3    H169647   2.470   6.345   1.672  1.3430  0.2187 -1.1023
16052TIP3    H269648   2.343   6.358   1.592  0.5697  1.5930  0.2894
16053TIP3   OH269649   5.272   0.277   6.287 -0.2042 -0.5664  0.1232
16053TIP3    H169650   5.319   0.281   6.371  2.0247  1.0527 -1.1050
16053TIP3    H269651   5.316   0.207   6.239  0.2243  0.2014 -0.6215
16054TIP3   OH269652   4.296   5.231   0.775 -0.0961  0.5498 -0.1961
16054TIP3    H169653   4.235   5.201   0.842 -0.8094  1.8897 -0.2314
16054TIP3    H269654   4.290   5.326   0.776  0.1890  0.6229 -1.8795
16055TIP3   OH269655   3.152   5.520   0.329 -0.1171 -0.6245 -1.0151
16055TIP3    H169656   3.151   5.558   0.242 -1.6531  1.1523 -0.2857
16055TIP3    H269657   3.073   5.467   0.333 -0.9315  0.5992 -0.2111
16056TIP3   OH269658   6.263   1.280   3.919  0.6688  0.2918  0.4488
16056TIP3    H169659   6.287   1.261   3.829 -1.1140 -0.7140  0.1466
16056TIP3    H269660   6.277   1.374   3.929  0.3320  0.5108 -1.0508
16057TIP3   OH269661   3.303   0.612  14.747  0.0592  0.1843 -0.0410
16057TIP3    H169662   3.364   0.684  14.729  0.2179  0.2952  0.8719
16057TIP3    H269663   3.216   0.652  14.741  0.1209  0.2953 -0.2070
16058TIP3   OH269664   5.761   0.922  14.900 -0.0092 -0.2755  0.4332
16058TIP3    H169665   5.824   0.851  14.912 -0.2777 -0.6932 -0.5455
16058TIP3    H269666   5.797   0.973  14.826  0.0137  0.4220  0.9179
16059TIP3   OH269667   4.599   1.331   0.303  0.0193  0.5781  0.0088
16059TIP3    H169668   4.505   1.315   0.312  0.2580 -1.9221 -1.0465
16059TIP3    H269669   4.636   1.300   0.385  0.1165 -0.7675 -0.5234
16060TIP3   OH269670   0.892   0.211  15.069 -0.9823  0.3008  0.4961
16060TIP3    H169671   0.966   0.151  15.082 -1.8660 -0.7473  0.8302
16060TIP3    H269672   0.908   0.281  15.132  1.4374  1.8630 -1.6312
16061TIP3   OH269673   3.898   1.120  12.121 -0.2680 -0.0329  0.2320
16061TIP3    H169674   3.870   1.190  12.179  0.3026  0.2348  0.1944
16061TIP3    H269675   3.992   1.135  12.110 -0.6104  0.8650 -2.0176
16062TIP3   OH269676   4.907   2.096  17.107 -0.5603 -0.0071 -0.0111
16062TIP3    H169677   4.828   2.140  17.139 -0.8168 -0.1282 -0.4690
16062TIP3    H269678   4.945   2.158  17.045  0.4466  0.6268  1.2040
16063TIP3   OH269679   4.395   5.923   0.418 -0.1543 -0.1286  0.5564
16063TIP3    H169680   4.448   6.000   0.398  1.3854 -1.6075 -1.6760
16063TIP3    H269681   4.308   5.944   0.385 -0.0485  1.0567  1.0185
16064TIP3   OH269682   1.893   6.269  16.652  0.0267  0.0343 -0.4552
16064TIP3    H169683   1.826   6.245  16.588  1.0454  0.5415 -1.7513
16064TIP3    H269684   1.868   6.222  16.731 -2.2112  0.7137 -0.6944
16065TIP3   OH269685   2.886   4.433  11.788  0.2183 -0.3828  0.1268
16065TIP3    H169686   2.920   4.471  11.870  0.7493 -1.4515  0.4300
16065TIP3    H269687   2.814   4.376  11.816  1.1247 -1.6342  0.0081
16066TIP3   OH269688   6.422   3.209   4.981  0.0904 -0.5691 -0.1062
16066TIP3    H169689   6.345   3.174   5.026 -0.0114 -0.9030 -0.5349
16066TIP3    H269690   6.449   3.283   5.035  0.3277 -1.3193  0.8266
16067TIP3   OH269691   5.261   4.249   2.385  0.0843 -0.0281 -0.3636
16067TIP3    H169692   5.231   4.300   2.310 -2.8360 -0.9065  0.0851
16067TIP3    H269693   5.197   4.177   2.392  1.0696 -0.7587  2.1165
16068TIP3   OH269694   4.146   6.579  13.150 -0.6115 -0.7782 -0.2653
16068TIP3    H169695   4.230   6.535  13.163 -0.4343  0.2025  2.7247
16068TIP3    H269696   4.095   6.518  13.097  0.7988 -3.0503  0.8159
16069TIP3   OH269697   4.257   2.330  11.797 -0.1090  0.5163  0.7461
16069TIP3    H169698   4.182   2.301  11.745 -1.0705  0.8334  1.9242
16069TIP3    H269699   4.299   2.250  11.826  0.6099  0.3244 -0.7065
16070TIP3   OH269700   0.236   6.079  15.485  0.3293 -0.0399  0.1033
16070TIP3    H169701   0.287   6.156  15.511  3.4373 -2.0946  0.7572
16070TIP3    H269702   0.241   6.021  15.561 -2.3640 -0.7669 -0.1662
16071TIP3   OH269703   0.130   0.187  10.296 -0.0428 -0.3809  0.3304
16071TIP3    H169704   0.143   0.277  10.266  0.9566 -0.4576  0.5171
16071TIP3    H269705   0.067   0.194  10.368 -0.4406  0.0913 -0.0560
16072TIP3   OH269706   1.976   4.678  15.938  0.0373 -0.1853  0.0642
16072TIP3    H169707   2.027   4.759  15.943  0.1755 -0.1207 -1.6701
16072TIP3    H269708   2.010   4.623  16.008  2.5678 -0.1694 -1.0521
16073TIP3   OH269709   2.950   6.758  10.905 -0.0848 -0.8810 -0.0076
16073TIP3    H169710   3.031   6.745  10.954  0.5674 -2.4750 -1.4061
16073TIP3    H269711   2.969   6.833  10.847 -0.3905  0.1240  1.1541
16074TIP3   OH269712   0.775   2.541   1.850  0.4897 -0.0788 -0.7048
16074TIP3    H169713   0.705   2.555   1.913  1.2628 -2.6277  0.8445
16074TIP3    H269714   0.835   2.615   1.864 -0.6616  0.8142 -0.3542
16075TIP3   OH269715   2.566   5.926   5.514 -0.3764 -0.2366 -0.3292
16075TIP3    H169716   2.507   5.851   5.517 -1.8201  0.8905  0.3376
16075TIP3    H269717   2.641   5.900   5.568 -0.7511 -1.2737 -0.2934
16076TIP3   OH269718   5.071   0.074  14.709 -0.2342  0.3898  0.6548
16076TIP3    H169719   5.118   0.157  14.699 -1.3267  0.8452 -1.3252
16076TIP3    H269720   5.140   0.008  14.710  0.6032  1.2344  1.0258
16077TIP3   OH269721   3.606   5.055  11.275 -0.7619  0.5882 -0.4712
16077TIP3    H169722   3.524   5.014  11.246 -1.2191  1.6040 -0.6594
16077TIP3    H269723   3.605   5.047  11.370 -0.9845  0.4305 -0.4860
16078TIP3   OH269724   2.644   3.236  16.965  0.4326  0.3469 -0.1465
16078TIP3    H169725   2.671   3.149  16.996 -1.2370 -0.1641 -0.0354
16078TIP3    H269726   2.567   3.219  16.911  0.7419  1.6729 -1.0586
16079TIP3   OH269727   1.104   3.694  12.645  0.2063 -0.0864 -0.7537
16079TIP3    H169728   1.095   3.652  12.560 -1.3192 -0.0197 -0.6557
16079TIP3    H269729   1.133   3.783  12.626  2.9989 -0.9512 -0.9919
16080TIP3   OH269730   4.394   3.289  12.018  0.2591 -0.0628  0.0243
16080TIP3    H169731   4.465   3.277  12.082  0.4323 -0.8605 -0.3073
16080TIP3    H269732   4.437   3.279  11.933 -0.6702 -3.5098 -0.1912
16081TIP3   OH269733   5.446   4.005  12.649 -0.7154  0.0929 -0.5658
16081TIP3    H169734   5.443   4.096  12.622 -1.0871  0.1249 -0.4278
16081TIP3    H269735   5.410   3.957  12.575 -0.7289  0.0778 -0.5496
16082TIP3   OH269736   0.399   6.240  16.891  0.0002 -0.5167 -0.3322
16082TIP3    H169737   0.476   6.298  16.885 -1.0698  0.9384 -0.4680
16082TIP3    H269738   0.401   6.191  16.809  0.0661  0.4710 -0.9491
16083TIP3   OH269739   4.755   0.400  12.129 -0.5905  0.0374  0.0653
16083TIP3    H169740   4.791   0.369  12.212 -0.8127 -0.8994 -0.1781
16083TIP3    H269741   4.827   0.388  12.067 -0.0077  1.8372  0.3131
16084TIP3   OH269742   5.949   2.057  15.326 -0.2905  1.0014 -0.7450
16084TIP3    H169743   6.010   2.044  15.254  0.6360  1.4110 -0.0619
16084TIP3    H269744   5.953   1.976  15.376  0.4165  1.3733 -0.1834
16085TIP3   OH269745   2.973   6.538   0.037 -0.2477  0.1333 -0.4606
16085TIP3    H169746   3.034   6.558   0.108 -0.8150  0.6937 -0.1237
16085TIP3    H269747   2.890   6.575   0.066 -1.0782 -1.6910 -0.3367
16086TIP3   OH269748   2.551   0.030   5.232  0.0633 -0.6135  0.6769
16086TIP3    H169749   2.578   0.115   5.196 -0.2820 -0.9660 -0.4489
16086TIP3    H269750   2.467   0.047   5.273 -0.9550 -0.7872 -1.2558
16087TIP3   OH269751   0.471   3.533   3.110 -0.0791  0.2763 -0.6111
16087TIP3    H169752   0.566   3.534   3.096 -0.2478  1.8195 -1.9165
16087TIP3    H269753   0.460   3.497   3.198  1.7615  0.6165 -0.2012
16088TIP3   OH269754   4.767   6.089  13.944 -0.2426 -0.0508 -0.2158
16088TIP3    H169755   4.835   6.156  13.948 -0.7422  0.5114 -1.0619
16088TIP3    H269756   4.776   6.042  14.028  0.9949  0.1830 -0.1921
16089TIP3   OH269757   1.038   1.573   3.881  0.0934 -0.3818  0.9785
16089TIP3    H169758   1.089   1.492   3.876  1.2979  0.2662  2.0127
16089TIP3    H269759   1.010   1.577   3.972 -1.1699 -0.3269  0.5981
16090TIP3   OH269760   4.998   0.213   1.206 -0.1455 -0.5253  0.2130
16090TIP3    H169761   5.031   0.299   1.178 -0.3125  0.0614  1.6969
16090TIP3    H269762   5.075   0.166   1.237 -0.3435 -0.0354  1.5056
16091TIP3   OH269763   0.757   0.474  10.380 -0.1272  0.2723  0.2598
16091TIP3    H169764   0.807   0.549  10.411  0.3046  0.2403 -0.3658
16091TIP3    H269765   0.740   0.423  10.460  0.6966  0.3601  0.5017
16092TIP3   OH269766   2.619   6.394   5.993 -0.1158  0.4925  0.0992
16092TIP3    H169767   2.667   6.395   6.076  0.3695  0.0673 -0.1655
16092TIP3    H269768   2.535   6.435   6.013 -0.1182  0.1407  0.8689
16093TIP3   OH269769   2.600   2.243   3.567 -0.0688  0.1752 -0.3297
16093TIP3    H169770   2.570   2.331   3.543 -1.6050 -0.3774 -0.5251
16093TIP3    H269771   2.662   2.219   3.498 -0.8477  0.4853 -1.1596
16094TIP3   OH269772   6.747   4.217  14.539 -0.3874  0.6609 -0.3558
16094TIP3    H169773   6.763   4.156  14.467 -2.7223  1.3867 -1.5754
16094TIP3    H269774   6.699   4.165  14.604  2.6816 -0.3213  1.3673
16095TIP3   OH269775   5.555   1.522  12.406  0.7212  0.1911 -0.0539
16095TIP3    H169776   5.563   1.429  12.426 -0.4755  0.1609  0.3610
16095TIP3    H269777   5.467   1.532  12.370  1.2009  1.0071 -1.0475
16096TIP3   OH269778   4.047   3.311  14.067  0.5840  0.3681 -0.3937
16096TIP3    H169779   4.127   3.260  14.063 -0.0365 -0.6029 -0.6876
16096TIP3    H269780   4.077   3.400  14.085  1.7708  0.1707 -1.2636
16097TIP3   OH269781   1.945   1.762  14.242  0.4380 -0.1246 -0.1301
16097TIP3    H169782   1.924   1.670  14.228  0.2191 -0.2278  0.7815
16097TIP3    H269783   1.901   1.784  14.324  0.3073  0.8535 -0.4492
16098TIP3   OH269784   1.859   1.008   5.257  0.0709  0.1615  0.1112
16098TIP3    H169785   1.907   0.943   5.308  0.5333  0.9655  0.7208
16098TIP3    H269786   1.801   0.956   5.201  2.1685 -0.8607 -1.2009
16099TIP3   OH269787   1.032   2.904   3.629 -0.2182 -0.0049 -0.0268
16099TIP3    H169788   1.091   2.931   3.559  0.1498  1.6336  0.8603
16099TIP3    H269789   0.981   2.831   3.592  0.2566  0.5381 -1.8215
16100TIP3   OH269790   6.729   1.267  14.251 -0.8660  0.8871  0.1039
16100TIP3    H169791   6.691   1.355  14.248 -2.9219  0.0928  0.9823
16100TIP3    H269792   6.694   1.224  14.173 -1.7392  0.1830  0.8582
16101TIP3   OH269793   4.544   1.470   2.957 -0.2323 -0.4702 -0.5678
16101TIP3    H169794   4.520   1.528   2.884  0.0993  1.7762  0.9957
16101TIP3    H269795   4.636   1.449   2.941 -0.2845 -0.3686 -1.0281
16102TIP3   OH269796   3.213   4.064   5.108 -0.0581 -0.0597  0.0576
16102TIP3    H169797   3.276   4.135   5.101  1.4891 -1.2238  1.2289
16102TIP3    H269798   3.198   4.036   5.018 -1.0739  2.0142 -0.4553
16103TIP3   OH269799   4.874   5.144  16.459  0.2070 -0.0852 -0.3425
16103TIP3    H169800   4.959   5.108  16.484 -0.2460 -0.8586  0.1010
16103TIP3    H269801   4.812   5.108  16.523 -0.3193  1.2101 -0.0809
16104TIP3   OH269802   1.240   1.284   3.320  0.2067  0.2872  0.2910
16104TIP3    H169803   1.316   1.308   3.267  0.0983 -0.5382 -0.2623
16104TIP3    H269804   1.165   1.305   3.265  0.0623  0.2615  0.4776
16105TIP3   OH269805   0.650   1.617  11.347  0.6565  0.0983 -0.4193
16105TIP3    H169806   0.598   1.595  11.424 -0.8876 -1.9337 -1.9105
16105TIP3    H269807   0.679   1.707  11.362 -2.3665  0.9562  1.0565
16106TIP3   OH269808   5.156   2.601  10.953 -0.1247  0.6594 -0.6283
16106TIP3    H169809   5.233   2.582  10.900 -0.8333 -1.0361 -1.1279
16106TIP3    H269810   5.082   2.590  10.893 -0.8107  1.2722  0.0816
16107TIP3   OH269811   0.628   0.196  12.267  0.5147 -0.4632  0.3967
16107TIP3    H169812   0.625   0.147  12.184  1.9588 -0.7790  0.5127
16107TIP3    H269813   0.542   0.238  12.272  0.7487  0.4654 -1.8025
16108TIP3   OH269814   0.267   6.799  15.911 -0.0925 -0.5945 -0.1568
16108TIP3    H169815   0.242   6.796  15.818 -0.8499  0.4670 -0.0136
16108TIP3    H269816   0.184   6.808  15.958  0.4067  1.4816  0.4395
16109TIP3   OH269817   0.479   5.039   1.763 -0.9153 -0.2781  0.1063
16109TIP3    H169818   0.425   5.072   1.836 -0.0656 -1.1687  1.1682
16109TIP3    H269819   0.423   4.976   1.719 -0.9539 -0.8000  0.8773
16110TIP3   OH269820   5.660   0.380   3.707  0.0312 -0.3550 -0.2768
16110TIP3    H169821   5.605   0.450   3.672  0.5131  0.1349 -0.0686
16110TIP3    H269822   5.684   0.328   3.631  0.0136 -0.0455 -0.4968
16111TIP3   OH269823   1.911   1.663  13.826  0.3127  0.1401 -0.0878
16111TIP3    H169824   1.844   1.730  13.814 -0.6775 -1.0515 -1.6519
16111TIP3    H269825   1.987   1.695  13.777  0.5414  1.0093  0.8150
16112TIP3   OH269826   3.100   4.036  11.779 -0.1687  0.8303  0.0372
16112TIP3    H169827   3.112   4.130  11.778  1.4326  0.6470 -0.0980
16112TIP3    H269828   3.037   4.019  11.708 -0.0606  1.7359 -0.2827
16113TIP3   OH269829   5.992   5.369  14.836  0.3760 -0.1988  0.7316
16113TIP3    H169830   6.010   5.277  14.816 -0.7116 -0.3475  0.3642
16113TIP3    H269831   6.044   5.418  14.772 -1.4296 -0.6333 -1.1806
16114TIP3   OH269832   5.646   2.203   1.006 -0.3564 -0.0409  0.2634
16114TIP3    H169833   5.688   2.216   1.091  1.1204 -0.0480 -0.4327
16114TIP3    H269834   5.563   2.160   1.027  0.1348 -0.3707  1.6655
16115TIP3   OH269835   3.452   1.158   4.227 -0.0877  0.2304 -0.4739
16115TIP3    H169836   3.531   1.205   4.252  1.4755 -1.9034 -1.1120
16115TIP3    H269837   3.429   1.193   4.141 -0.0737  1.1337 -0.1140
16116TIP3   OH269838   3.567   0.867   5.537  0.0518  0.0451 -0.0719
16116TIP3    H169839   3.478   0.901   5.530  0.7183  2.2652  1.2369
16116TIP3    H269840   3.565   0.812   5.616 -0.0600  0.5248  0.2678
16117TIP3   OH269841   0.236   1.148  13.085  0.2390  0.1496  0.2206
16117TIP3    H169842   0.304   1.201  13.042  0.1922  0.3597  0.4074
16117TIP3    H269843   0.229   1.184  13.173 -0.2467  0.2498  0.1454
16118TIP3   OH269844   1.768   4.969  12.383  0.1896 -0.3062 -0.3939
16118TIP3    H169845   1.849   5.014  12.406  1.1438 -3.0722  2.1643
16118TIP3    H269846   1.715   4.973  12.463 -2.0042  0.8379 -1.8033
16119TIP3   OH269847   1.510   3.167   2.480 -0.5426  0.1991  0.1017
16119TIP3    H169848   1.490   3.203   2.393 -2.6261 -1.0909 -0.0287
16119TIP3    H269849   1.426   3.135   2.512  0.7255 -2.2010  1.2739
16120TIP3   OH269850   5.343   3.115   0.386  0.6831  0.2997 -0.3869
16120TIP3    H169851   5.350   3.021   0.371  2.5961  0.3860 -0.1910
16120TIP3    H269852   5.252   3.136   0.364  0.1512 -1.6237 -0.1868
16121TIP3   OH269853   2.398   1.846  16.599  0.4738 -0.5581  0.8556
16121TIP3    H169854   2.476   1.816  16.646 -0.0453 -1.0695  1.4053
16121TIP3    H269855   2.329   1.786  16.626 -0.5505  0.9525  1.7907
16122TIP3   OH269856   4.212   3.730  13.176 -0.6343  0.4020  0.1522
16122TIP3    H169857   4.132   3.780  13.161 -0.4001  0.7194 -0.0335
16122TIP3    H269858   4.267   3.748  13.100  0.8599  2.6164  1.6381
16123TIP3   OH269859   6.527   2.386   4.883  0.4204 -0.0326  0.1956
16123TIP3    H169860   6.468   2.416   4.952 -0.3825 -0.3734 -0.3300
16123TIP3    H269861   6.480   2.314   4.841  0.2308  1.1002 -1.6737
16124TIP3   OH269862   0.363   2.813   4.092 -0.1241 -0.3188 -0.0673
16124TIP3    H169863   0.406   2.801   4.177  1.9488  1.4563 -0.7559
16124TIP3    H269864   0.379   2.730   4.046  0.6662 -0.5032  0.5115
16125TIP3   OH269865   3.691   5.061   0.222 -0.1574  0.2003 -0.1883
16125TIP3    H169866   3.598   5.081   0.232 -0.4400 -0.4969 -1.2059
16125TIP3    H269867   3.736   5.140   0.250 -0.9872  0.0134  1.8457
16126TIP3   OH269868   4.775   3.818   4.133 -0.2016 -0.3544  0.8534
16126TIP3    H169869   4.809   3.730   4.117  1.8694  0.1752  1.9875
16126TIP3    H269870   4.734   3.843   4.051 -0.5002 -2.2232  0.3822
16127TIP3   OH269871   3.346   4.128   6.056  0.2133  0.3708  0.2508
16127TIP3    H169872   3.381   4.106   5.970  2.1350 -0.7071  1.2429
16127TIP3    H269873   3.409   4.091   6.118 -1.5098  0.4416  2.1489
16128TIP3   OH269874   3.516   5.440  10.574 -0.2708  0.1600 -0.0328
16128TIP3    H169875   3.522   5.375  10.504  1.2444  1.7208 -1.4557
16128TIP3    H269876   3.423   5.448  10.593 -0.5325 -2.1110 -0.0456
16129TIP3   OH269877   4.293   4.575  13.292 -0.1039  0.4103  1.1230
16129TIP3    H169878   4.340   4.526  13.359 -0.2370  0.7911  1.5033
16129TIP3    H269879   4.246   4.643  13.341 -1.1120 -0.0113  0.7695
16130TIP3   OH269880   3.206   2.118   0.346 -0.0066 -0.1881 -0.8067
16130TIP3    H169881   3.133   2.056   0.351  0.2071 -0.3652  0.4175
16130TIP3    H269882   3.165   2.204   0.343 -0.2806 -0.3250 -1.0135
16131TIP3   OH269883   2.596   1.679  13.587 -0.2235 -0.0838  0.1939
16131TIP3    H169884   2.679   1.688  13.633  0.3543 -2.9114 -0.0901
16131TIP3    H269885   2.618   1.689  13.495 -0.1733 -0.8118  0.1203
16132TIP3   OH269886   2.462   6.687  11.874 -0.5425  0.6975 -0.5056
16132TIP3    H169887   2.528   6.711  11.808 -1.1487  1.3119 -0.9061
16132TIP3    H269888   2.406   6.764  11.880 -2.1662 -0.3461 -1.3340
16133TIP3   OH269889   3.600   3.077   2.066 -0.1600  0.5668  0.1714
16133TIP3    H169890   3.555   3.111   1.989  0.4791 -1.3610 -1.1121
16133TIP3    H269891   3.690   3.108   2.057  0.4716 -1.4513 -1.1001
16134TIP3   OH269892   5.051   2.163   0.213  0.6169  0.1638 -0.1996
16134TIP3    H169893   5.091   2.139   0.297  0.5148 -0.6919 -0.3828
16134TIP3    H269894   5.024   2.079   0.174  0.3440  0.5760 -0.9287
16135TIP3   OH269895   3.396   0.361   4.278 -0.1506 -0.2451  0.0977
16135TIP3    H169896   3.346   0.283   4.255  1.0628 -0.7028 -1.1423
16135TIP3    H269897   3.342   0.434   4.248 -0.3669 -0.7045 -0.6519
16136TIP3   OH269898   1.883   6.704   4.712  0.9266  0.2140 -0.5953
16136TIP3    H169899   1.805   6.651   4.730  1.1512 -0.9671 -2.8293
16136TIP3    H269900   1.930   6.707   4.795  1.0537 -3.3849 -0.4018
16137TIP3   OH269901   0.099   0.850  11.630 -0.4528  0.3269 -0.3400
16137TIP3    H169902   0.005   0.866  11.624 -1.0908 -2.2929  1.3223
16137TIP3    H269903   0.128   0.907  11.701 -0.7309  1.1519 -0.8619
16138TIP3   OH269904   0.521   3.820  10.773  0.2623  0.5166 -0.2355
16138TIP3    H169905   0.450   3.755  10.764 -0.1503  1.0006 -0.5211
16138TIP3    H269906   0.587   3.776  10.827  0.7411 -0.7612 -1.7950
16139TIP3   OH269907   0.113   3.057  12.675 -0.2991  0.3298 -0.0443
16139TIP3    H169908   0.114   3.070  12.580  1.5240  0.1816 -0.0810
16139TIP3    H269909   0.025   3.024  12.694 -0.1791 -1.2716 -1.9162
16140TIP3   OH269910   6.653   1.130   2.141  0.1674 -0.1576 -0.1304
16140TIP3    H169911   6.561   1.157   2.142  0.4715  1.0586  2.1521
16140TIP3    H269912   6.691   1.179   2.068 -0.3497  1.9504  0.9162
16141TIP3   OH269913   5.397   6.035  13.106  0.7466 -0.5549  0.4839
16141TIP3    H169914   5.435   5.967  13.162 -1.0955 -0.4831  1.9039
16141TIP3    H269915   5.344   6.088  13.165  0.5531  0.9316 -0.9553
16142TIP3   OH269916   3.993   4.476   4.493  0.3039 -0.2139  0.2179
16142TIP3    H169917   4.030   4.436   4.414  0.1060  0.5941 -0.2884
16142TIP3    H269918   4.066   4.476   4.556  0.1750 -1.8384  0.4270
16143TIP3   OH269919   5.099   2.988  16.970 -0.4156  0.3784  0.9291
16143TIP3    H169920   5.189   2.970  16.941 -0.4715  0.2996  0.8035
16143TIP3    H269921   5.044   2.942  16.907 -0.5208 -2.0900  2.6711
16144TIP3   OH269922   1.627   1.387   2.604 -0.0808  0.1019  1.0396
16144TIP3    H169923   1.681   1.353   2.675 -0.0637 -0.6982  0.6558
16144TIP3    H269924   1.690   1.408   2.534 -0.3194 -1.8583  0.1799
16145TIP3   OH269925   2.932   3.770   3.136  0.4928 -0.0062  0.2612
16145TIP3    H169926   2.952   3.689   3.182 -1.0225  0.3658  1.6878
16145TIP3    H269927   2.958   3.754   3.046 -2.8307 -3.3910 -0.3423
16146TIP3   OH269928   4.620   4.694   5.124  0.1896 -0.5191  0.0481
16146TIP3    H169929   4.549   4.640   5.088 -0.4988  0.2804  0.1844
16146TIP3    H269930   4.577   4.776   5.150  0.9760 -0.4436  1.1541
16147TIP3   OH269931   3.216   4.966   3.911  0.1235 -0.0298 -0.0613
16147TIP3    H169932   3.152   5.035   3.929 -1.8858 -1.5768 -0.8183
16147TIP3    H269933   3.265   4.998   3.836 -1.8218  0.0048 -1.3958
16148TIP3   OH269934   3.825   6.680   4.214 -0.0970 -0.0857  0.2899
16148TIP3    H169935   3.796   6.626   4.141  1.3348 -1.5031  0.7007
16148TIP3    H269936   3.823   6.770   4.180 -0.3180 -0.6232 -1.1926
16149TIP3   OH269937   1.925   1.275   3.056 -0.2921  0.2050 -0.2281
16149TIP3    H169938   1.910   1.348   3.116  0.3097  0.4362 -0.3460
16149TIP3    H269939   2.020   1.271   3.048 -0.1755 -2.0548  1.5411
16150TIP3   OH269940   4.846   3.482  11.419 -0.1627  0.4660 -0.2079
16150TIP3    H169941   4.857   3.497  11.325  0.0849  2.3867  0.0853
16150TIP3    H269942   4.835   3.570  11.456 -1.2046 -0.3155  1.4505
16151TIP3   OH269943   6.668   0.204  15.282 -0.5520 -0.3727 -0.4154
16151TIP3    H169944   6.613   0.205  15.360 -0.3162  0.3390 -0.2563
16151TIP3    H269945   6.615   0.248  15.215 -0.2453  0.1670 -0.3058
16152TIP3   OH269946   1.141   2.082  11.849  0.0409 -0.2983  0.0352
16152TIP3    H169947   1.207   2.071  11.918 -0.7635 -1.6244  0.6205
16152TIP3    H269948   1.191   2.081  11.768  0.8961  0.3073  0.5350
16153TIP3   OH269949   1.493   2.475  12.294 -0.0227  0.5343  0.3146
16153TIP3    H169950   1.428   2.545  12.282  1.1709  1.4290 -1.2404
16153TIP3    H269951   1.457   2.401  12.246 -0.5498  0.5538  0.6610
16154TIP3   OH269952   1.866   5.601  10.552  0.3962 -0.1950  0.9017
16154TIP3    H169953   1.774   5.600  10.527  0.3993 -0.4886  0.8987
16154TIP3    H269954   1.893   5.692  10.542  0.0692 -0.0827  1.0363
16155TIP3   OH269955   1.287   4.363   4.354  0.2716  0.2574 -0.1125
16155TIP3    H169956   1.196   4.370   4.382 -0.6665 -1.8106 -2.3109
16155TIP3    H269957   1.334   4.341   4.434 -1.2988  0.4891  0.9224
16156TIP3   OH269958   0.495   4.827  13.861 -0.3660  0.7627 -0.1881
16156TIP3    H169959   0.527   4.892  13.799 -0.2202  1.4830  0.6203
16156TIP3    H269960   0.468   4.753  13.807 -1.0517  1.7014 -1.1859
16157TIP3   OH269961   1.545   4.724   1.324  0.0364  0.2130  0.4720
16157TIP3    H169962   1.483   4.797   1.315 -2.5673 -1.8685  0.3804
16157TIP3    H269963   1.611   4.740   1.256 -1.1763  1.7924 -0.4129
16158TIP3   OH269964   3.541   4.867   1.272 -0.0346 -0.2863  0.3627
16158TIP3    H169965   3.559   4.958   1.250  1.1050 -0.1702  1.6630
16158TIP3    H269966   3.447   4.857   1.257  0.0508  0.7307 -1.0209
16159TIP3   OH269967   0.795   3.030  14.510 -0.1362  0.4300 -0.2152
16159TIP3    H169968   0.787   2.971  14.584 -0.6669  0.9537  0.1504
16159TIP3    H269969   0.823   2.974  14.437  0.7259 -0.0310  0.4518
16160TIP3   OH269970   2.831   4.593  14.957  0.1763 -0.0050  0.2528
16160TIP3    H169971   2.742   4.592  14.990 -0.3994  0.0963 -1.1974
16160TIP3    H269972   2.852   4.501  14.940  1.3144 -0.3196  2.9077
16161TIP3   OH269973   4.579   2.025  11.217  0.3894  0.4600 -0.0154
16161TIP3    H169974   4.591   1.946  11.270 -1.5888  0.5877  0.7349
16161TIP3    H269975   4.639   2.089  11.256 -0.6629  0.4012  1.8595
16162TIP3   OH269976   0.110   2.208  13.177 -0.0649 -0.0228  0.1523
16162TIP3    H169977   0.076   2.262  13.248  1.1757 -0.2353  0.9527
16162TIP3    H269978   0.077   2.120  13.196 -0.4033  0.0705  0.0012
16163TIP3   OH269979   1.612   3.936  14.364  0.3821  0.2215 -0.2957
16163TIP3    H169980   1.527   3.895  14.349  0.1282 -1.0015  3.4981
16163TIP3    H269981   1.590   4.022  14.401  0.7266 -0.0698  0.6242
16164TIP3   OH269982   6.026   6.821  12.125  0.1585  0.8543  0.1391
16164TIP3    H169983   5.987   6.897  12.168 -0.6662  0.0730  0.8096
16164TIP3    H269984   5.994   6.746  12.175  1.2659  0.0769 -0.2650
16165TIP3   OH269985   0.069   5.334  13.174  0.4832  0.1823 -0.0226
16165TIP3    H169986   0.003   5.269  13.150  0.5886 -0.1597  0.5949
16165TIP3    H269987   0.136   5.328  13.106 -0.9220  1.7410 -1.6466
16166TIP3   OH269988   3.341   2.795  12.505  0.4215  0.3332  0.3150
16166TIP3    H169989   3.379   2.710  12.485  0.2499 -0.0775  1.6223
16166TIP3    H269990   3.367   2.851  12.431  1.3796 -0.5827 -0.0753
16167TIP3   OH269991   2.557   1.803   1.140  0.0279 -0.0709 -0.5176
16167TIP3    H169992   2.653   1.806   1.139  0.1944 -2.4765  0.4022
16167TIP3    H269993   2.532   1.824   1.050  1.3339  1.5673 -0.5484
16168TIP3   OH269994   5.647   2.749  13.278 -0.3142 -0.3559  0.1745
16168TIP3    H169995   5.693   2.793  13.206 -2.0852  0.0461 -0.7676
16168TIP3    H269996   5.712   2.689  13.315  0.8095 -0.1840 -1.4182
16169TIP3   OH269997   0.831   6.395  13.760  0.4627  0.2096  0.2522
16169TIP3    H169998   0.877   6.311  13.756 -1.6722 -1.1064  1.3341
16169TIP3    H269999   0.751   6.382  13.709  0.5536  1.9372 -0.4062
16170TIP3   OH270000   4.164   4.098  14.881  0.1810  0.1921 -0.3924
16170TIP3    H170001   4.181   4.116  14.974  1.8713  2.2822 -1.0203
16170TIP3    H270002   4.085   4.149  14.861  0.2914  0.4084 -0.2810
16171TIP3   OH270003   0.982   1.968   1.126 -0.3691  0.1656  0.6721
16171TIP3    H170004   0.904   1.928   1.164  0.0957 -0.9011  0.5498
16171TIP3    H270005   1.045   1.971   1.197 -0.1684  0.0187  0.5038
16172TIP3   OH270006   2.033   0.040  12.044  0.1954  0.1709 -0.4350
16172TIP3    H170007   2.046   0.003  12.131  0.7847  0.5131 -0.3683
16172TIP3    H270008   2.080  -0.020  11.986 -1.5531 -0.9630 -0.7338
16173TIP3   OH270009   0.466   1.854   2.783  0.0062  0.3075 -0.0326
16173TIP3    H170010   0.382   1.860   2.737  0.7576  1.5107 -1.3403
16173TIP3    H270011   0.514   1.932   2.755  1.0225  0.4000  1.8277
16174TIP3   OH270012   4.166   0.775  11.367  0.4068 -0.3525  0.6357
16174TIP3    H170013   4.250   0.821  11.374 -1.3643  3.5701 -0.6429
16174TIP3    H270014   4.128   0.782  11.454  0.0448  1.0497  0.3971
16175TIP3   OH270015   5.243   0.196  12.452 -0.4163 -0.4312 -0.5528
16175TIP3    H170016   5.305   0.199  12.524 -2.1298  0.6128  0.9774
16175TIP3    H270017   5.206   0.108  12.455 -0.9767 -0.1785  0.3321
16176TIP3   OH270018   4.972   1.407   5.571  1.1273  0.9995  0.2885
16176TIP3    H170019   4.904   1.470   5.592  0.4264  0.6808 -0.9087
16176TIP3    H270020   5.019   1.393   5.654 -1.8840 -0.7451  1.8446
16177TIP3   OH270021   3.641   0.291   2.943 -0.3854 -0.0780  0.3114
16177TIP3    H170022   3.549   0.281   2.964 -0.5865  0.3255 -0.3728
16177TIP3    H270023   3.668   0.205   2.912 -0.0716 -0.7072  2.1874
16178TIP3   OH270024   1.085   5.640   1.691 -0.1050 -0.7144 -0.0111
16178TIP3    H170025   1.071   5.631   1.597 -1.0497 -0.7410  0.1289
16178TIP3    H270026   1.101   5.733   1.705 -0.0355 -0.7003 -0.1809
16179TIP3   OH270027   6.673   3.905  15.166 -0.3838  0.0138 -0.6906
16179TIP3    H170028   6.697   3.842  15.098 -2.8447 -2.0859  0.2134
16179TIP3    H270029   6.707   3.868  15.247 -0.3986  0.7510 -0.3384
16180TIP3   OH270030   4.828   3.734  12.505  0.3437 -0.2784  0.9547
16180TIP3    H170031   4.901   3.675  12.527  0.8169 -0.0746  0.0239
16180TIP3    H270032   4.757   3.675  12.478  1.8948 -0.5713 -3.3765
16181TIP3   OH270033   2.655   5.822  11.836  0.3363 -0.4526  0.3294
16181TIP3    H170034   2.711   5.898  11.821  0.6404 -0.4550  1.3802
16181TIP3    H270035   2.682   5.758  11.770 -0.0356  0.3931 -0.6751
16182TIP3   OH270036   6.117   2.641   4.277 -0.1486 -0.1256 -0.0243
16182TIP3    H170037   6.147   2.730   4.262  1.7891 -0.6250  0.6768
16182TIP3    H270038   6.168   2.610   4.351 -0.3381 -2.0222 -0.6318
16183TIP3   OH270039   1.359   1.872  12.282 -0.1035  0.0630 -0.0964
16183TIP3    H170040   1.301   1.924  12.338  1.4458  1.1901  0.5350
16183TIP3    H270041   1.371   1.926  12.203  1.5207  0.7670  0.5674
16184TIP3   OH270042   5.881   6.364  14.849  0.0510 -0.4718  0.1800
16184TIP3    H170043   5.803   6.379  14.796  0.1359  0.3283  0.2655
16184TIP3    H270044   5.936   6.307  14.796 -0.3407 -0.5677 -0.1247
16185TIP3   OH270045   0.985   1.028  11.958  0.2706  0.1585  0.6616
16185TIP3    H170046   0.943   0.945  11.934 -2.2694  1.3492  0.7107
16185TIP3    H270047   1.007   1.068  11.874 -0.6057  0.4297  0.5510
16186TIP3   OH270048   5.423   5.214   2.352  0.6933 -0.0337 -0.3380
16186TIP3    H170049   5.330   5.204   2.332  1.4225 -0.8374 -3.8789
16186TIP3    H270050   5.446   5.134   2.399 -0.2354 -0.1585 -0.0679
16187TIP3   OH270051   3.077   5.062   3.062 -0.8139 -0.0492  0.4210
16187TIP3    H170052   3.011   5.050   3.131 -3.1488  1.6691 -1.3365
16187TIP3    H270053   3.063   5.152   3.031  0.1130 -0.7326 -2.2706
16188TIP3   OH270054   5.731   4.127   6.414  0.1542  0.1194 -0.2364
16188TIP3    H170055   5.711   4.056   6.474 -1.8917  1.3824  0.6810
16188TIP3    H270056   5.777   4.085   6.341  0.8138 -1.7750  1.2014
16189TIP3   OH270057   5.232   0.268   5.594 -0.3227  0.0273 -0.8736
16189TIP3    H170058   5.220   0.361   5.608 -0.5768  0.5328 -3.7844
16189TIP3    H270059   5.321   0.250   5.626 -1.3547  0.4343  2.7011
16190TIP3   OH270060   3.390   6.676  13.742  0.3374 -0.3522 -0.2069
16190TIP3    H170061   3.334   6.753  13.745 -0.7538 -1.1124 -0.6544
16190TIP3    H270062   3.348   6.617  13.679  0.8002 -1.5776  0.5823
16191TIP3   OH270063   0.912   1.038  13.807 -0.3646 -0.0221  0.1636
16191TIP3    H170064   0.855   0.975  13.851 -0.6973  0.2282  0.0952
16191TIP3    H270065   0.986   1.050  13.867 -0.3987 -0.3214  0.2663
16192TIP3   OH270066   3.611   3.196  11.088 -0.2210 -0.1418  0.6295
16192TIP3    H170067   3.537   3.212  11.147  1.0696  0.0155  2.2704
16192TIP3    H270068   3.630   3.282  11.050 -0.3819 -0.0139  0.8322
16193TIP3   OH270069   4.877   0.366  14.938  0.4822 -0.3501 -0.1224
16193TIP3    H170070   4.857   0.459  14.925 -1.6385 -0.6550  0.6071
16193TIP3    H270071   4.972   0.364  14.948  0.5434  1.8197  0.3390
16194TIP3   OH270072   0.088   3.742  16.216  0.1172  0.5837  0.5314
16194TIP3    H170073   0.090   3.761  16.310 -0.7224  0.0895  0.6593
16194TIP3    H270074   0.084   3.647  16.211 -0.3142  0.6237  0.0051
16195TIP3   OH270075   1.166   0.399  14.062 -0.2255 -0.1367  0.0251
16195TIP3    H170076   1.125   0.469  14.112  1.9225  1.3770 -0.2200
16195TIP3    H270077   1.127   0.319  14.098 -0.2659  0.9793  2.7304
16196TIP3   OH270078   3.752   3.397   0.114 -0.2606 -0.0641  0.2657
16196TIP3    H170079   3.776   3.386   0.206  1.9186 -0.3394 -0.2763
16196TIP3    H270080   3.657   3.391   0.113 -0.2301 -1.9787  2.2472
16197TIP3   OH270081   3.048   4.866  10.936 -0.9694  0.9093 -0.3878
16197TIP3    H170082   3.044   4.896  10.845 -0.8030  0.1725 -0.6465
16197TIP3    H270083   3.122   4.805  10.938 -2.2968 -0.7909 -0.3039
16198TIP3   OH270084   1.792   3.744   1.565  0.0408 -0.2984 -0.5922
16198TIP3    H170085   1.848   3.814   1.531 -0.3890  0.1469 -0.4056
16198TIP3    H270086   1.804   3.747   1.659  0.0810 -0.5259 -0.5909
16199TIP3   OH270087   4.437   1.522  15.223  0.0823 -0.2739  0.0927
16199TIP3    H170088   4.504   1.510  15.156  0.3612  1.9007 -0.0762
16199TIP3    H270089   4.375   1.584  15.185  0.2809  1.0606  1.8231
16200TIP3   OH270090   5.066   6.472   2.976  0.4886  0.2620 -0.4605
16200TIP3    H170091   5.006   6.398   2.985  3.6759 -2.9716 -2.8779
16200TIP3    H270092   5.102   6.485   3.063  0.4073 -1.6333 -0.0981
16201TIP3   OH270093   1.287   2.805  16.248 -0.1696 -0.0444  0.1580
16201TIP3    H170094   1.235   2.840  16.320  0.1209  2.3289 -0.6869
16201TIP3    H270095   1.377   2.809  16.278 -0.2129 -1.4128  0.5405
16202TIP3   OH270096   2.366   5.537  16.623  0.1688 -0.5622  0.3052
16202TIP3    H170097   2.367   5.442  16.609 -1.2984 -0.8139  1.6514
16202TIP3    H270098   2.278   5.556  16.655 -0.4979  1.6641 -2.4162
16203TIP3   OH270099   1.581   3.619  16.331  0.1028  0.0217  0.2535
16203TIP3    H170100   1.494   3.658  16.338  0.6127  1.2668 -0.1611
16203TIP3    H270101   1.639   3.692  16.312  1.1084 -0.9208 -0.4452
16204TIP3   OH270102   0.989   4.246  13.253  0.4771 -0.2053  0.7752
16204TIP3    H170103   0.982   4.156  13.283  2.1699  0.3936  3.3563
16204TIP3    H270104   1.049   4.243  13.179  1.1553 -1.1285  1.3486
16205TIP3   OH270105   0.519   1.414   5.547  0.0873  0.3315  0.5012
16205TIP3    H170106   0.442   1.361   5.569  0.4280  0.0734  1.1149
16205TIP3    H270107   0.486   1.504   5.541 -0.6349 -0.0191 -1.3025
16206TIP3   OH270108   1.953   6.782  11.329 -0.4364 -0.3673  0.4349
16206TIP3    H170109   2.013   6.812  11.261 -1.0465 -1.6628 -0.7391
16206TIP3    H270110   1.871   6.830  11.312 -0.9453 -1.5050 -0.5119
16207TIP3   OH270111   2.202   6.254  11.576  0.0487 -0.2593 -1.0388
16207TIP3    H170112   2.160   6.270  11.661 -0.9537 -3.9476 -0.6447
16207TIP3    H270113   2.133   6.212  11.523  1.5708 -1.0694 -2.4720
16208TIP3   OH270114   5.671   5.595  16.393  0.2737  0.1720 -0.1073
16208TIP3    H170115   5.723   5.542  16.332 -1.3551  0.8376 -2.2377
16208TIP3    H270116   5.646   5.672  16.341 -0.2559  1.3595  1.8177
16209TIP3   OH270117   0.230   2.061   1.590 -0.3294  0.0329 -0.0748
16209TIP3    H170118   0.294   2.060   1.661  0.5083 -1.7137 -0.8010
16209TIP3    H270119   0.213   1.969   1.571 -4.1305  0.3250  0.9822
16210TIP3   OH270120   3.961   6.313  16.544 -0.4965 -0.8371 -0.0697
16210TIP3    H170121   3.870   6.329  16.566 -0.2287 -0.5115  0.8353
16210TIP3    H270122   3.961   6.299  16.449 -1.1872  1.4489 -0.4698
16211TIP3   OH270123   3.524   3.523  11.231 -0.3388  0.3895 -0.6714
16211TIP3    H170124   3.565   3.521  11.144  0.7992  0.2728 -0.1581
16211TIP3    H270125   3.474   3.441  11.235  0.0986  0.0968 -0.9955
16212TIP3   OH270126   0.283   0.261   2.121 -0.0814  0.0311  0.2361
16212TIP3    H170127   0.230   0.239   2.044 -0.4920  0.2230  0.4653
16212TIP3    H270128   0.303   0.176   2.161 -1.8711  0.0452  1.2559
16213TIP3   OH270129   1.329   3.686   5.633 -0.6719 -0.1624 -0.4957
16213TIP3    H170130   1.266   3.715   5.567  0.7176  1.3903 -1.1875
16213TIP3    H270131   1.415   3.701   5.594  0.1768 -0.7833  1.0200
16214TIP3   OH270132   1.633   5.715   5.994  0.1149  0.6410 -0.0957
16214TIP3    H170133   1.554   5.661   6.003  0.0049  0.3761 -2.2689
16214TIP3    H270134   1.606   5.802   6.023 -0.6244  0.2692  0.3654
16215TIP3   OH270135   6.766   0.864   4.173 -0.2144  0.4632 -0.3229
16215TIP3    H170136   6.855   0.867   4.140 -0.0812  0.1034 -0.0033
16215TIP3    H270137   6.739   0.773   4.163  0.0153  0.2186  1.0157
16216TIP3   OH270138   5.356   6.618  13.974 -0.4150  0.4273  0.1749
16216TIP3    H170139   5.375   6.647  13.884 -1.5820  0.3910 -0.0993
16216TIP3    H270140   5.438   6.581  14.005  0.3857  1.6628 -0.3991
16217TIP3   OH270141   1.120   2.926   4.452 -0.1387 -0.0390 -0.5962
16217TIP3    H170142   1.214   2.909   4.464 -0.2224  0.7106  1.5267
16217TIP3    H270143   1.083   2.840   4.431  0.6008 -1.0141  1.8155
16218TIP3   OH270144   6.272   5.606   2.146  0.0580  0.8332 -0.1700
16218TIP3    H170145   6.356   5.567   2.123 -0.8326 -0.9028 -0.6435
16218TIP3    H270146   6.255   5.574   2.235  0.2776  1.9157  0.2862
16219TIP3   OH270147   6.622   3.486  16.241  0.3783 -0.2914  1.2127
16219TIP3    H170148   6.599   3.555  16.304  0.9181  0.7292  0.3170
16219TIP3    H270149   6.718   3.489  16.236  0.3163  0.0091 -0.0470
16220TIP3   OH270150   1.265   5.716   5.809  0.3182 -0.0439 -0.3860
16220TIP3    H170151   1.265   5.788   5.746 -1.8359 -0.6127 -1.1305
16220TIP3    H270152   1.258   5.759   5.894 -2.5847  0.7091 -0.8908
16221TIP3   OH270153   3.756   3.615  13.847  0.1010 -0.7120  0.3258
16221TIP3    H170154   3.815   3.620  13.772 -1.3282  1.0782 -0.7632
16221TIP3    H270155   3.669   3.614  13.809 -0.6882  0.6455  1.9650
16222TIP3   OH270156   0.564   4.540  17.004  0.0976  0.4753  0.8853
16222TIP3    H170157   0.496   4.474  17.010 -0.7560  0.8906 -2.3571
16222TIP3    H270158   0.543   4.603  17.073 -0.6312 -1.2419  2.2812
16223TIP3   OH270159   4.350   2.622  11.668  0.3193 -0.1616  0.4001
16223TIP3    H170160   4.277   2.678  11.643 -0.4715 -0.5468  1.7076
16223TIP3    H270161   4.322   2.583  11.751  1.9416 -0.4547  0.8464
16224TIP3   OH270162   6.064   1.688   0.646  0.3550  0.4264 -0.1105
16224TIP3    H170163   6.018   1.650   0.571  0.7564  0.4203 -0.3528
16224TIP3    H270164   6.050   1.624   0.717 -0.8972  0.9191  0.1237
16225TIP3   OH270165   4.295   0.614   5.004  0.2423 -0.2666 -0.1576
16225TIP3    H170166   4.205   0.603   4.973 -0.2196 -0.8085  1.2741
16225TIP3    H270167   4.318   0.529   5.042  1.6832 -0.4056 -1.2406
16226TIP3   OH270168   1.179   0.075  12.354  0.2827  0.0007 -0.1735
16226TIP3    H170169   1.264   0.049  12.390  0.8888 -0.5364 -1.8806
16226TIP3    H270170   1.118   0.009  12.386  0.5278  0.2750  0.9012
16227TIP3   OH270171   1.368   5.580   5.156 -0.5445  0.1397  0.5803
16227TIP3    H170172   1.439   5.643   5.163 -0.3529  0.1091 -0.7670
16227TIP3    H270173   1.290   5.633   5.144 -0.2394  0.1822 -1.7522
16228TIP3   OH270174   2.096   4.542   4.638 -0.0915 -0.3399  1.2224
16228TIP3    H170175   2.071   4.477   4.704 -0.2270 -0.4234  1.0889
16228TIP3    H270176   2.044   4.520   4.561  0.2287 -0.3789  1.0133
16229TIP3   OH270177   1.283   3.327   6.229 -0.1069 -0.4170  0.4633
16229TIP3    H170178   1.349   3.292   6.170 -1.4109 -0.8147 -0.8198
16229TIP3    H270179   1.304   3.420   6.237 -1.4232  0.2859 -2.8529
16230TIP3   OH270180   2.833   1.825  17.025  0.7868 -0.2641  0.2673
16230TIP3    H170181   2.780   1.749  17.050  0.4415 -0.2308 -0.3417
16230TIP3    H270182   2.777   1.900  17.042  1.1789 -0.1312  0.9993
16231TIP3   OH270183   6.747   0.050  16.907 -0.0299 -0.1002  0.1297
16231TIP3    H170184   6.728   0.082  16.996  0.8414  0.7787  0.0094
16231TIP3    H270185   6.838   0.074  16.892 -0.0666 -0.5743 -0.8702
16232TIP3   OH270186   3.932   0.959   5.457  0.2214  0.2585  0.0364
16232TIP3    H170187   4.016   0.914   5.464  0.3204  0.6694  2.1161
16232TIP3    H270188   3.871   0.892   5.428  0.6426 -0.9029  1.7093
16233TIP3   OH270189   4.465   0.736  12.328 -0.8239  0.4596  0.0987
16233TIP3    H170190   4.521   0.789  12.386 -0.5955  0.2233  0.0959
16233TIP3    H270191   4.441   0.795  12.257 -1.7982  1.0066  0.8638
16234TIP3   OH270192   0.546   2.585   1.589 -0.0591 -0.4041  0.0615
16234TIP3    H170193   0.501   2.525   1.647 -0.7374 -1.0007 -1.0508
16234TIP3    H270194   0.557   2.665   1.640 -0.2715 -1.0481  1.1309
16235TIP3   OH270195   0.031   2.383  12.976  0.1962  0.6635 -0.8164
16235TIP3    H170196  -0.031   2.323  12.933  0.2520  0.2004 -0.2530
16235TIP3    H270197   0.062   2.335  13.052  0.3942  1.3362 -0.4674
16236TIP3   OH270198   4.432   1.518  11.527 -0.1576  0.2215 -0.5187
16236TIP3    H170199   4.353   1.493  11.574 -0.8253  0.9217 -1.2323
16236TIP3    H270200   4.401   1.548  11.442  0.7524  1.8150 -0.3258
16237TIP3   OH270201   3.143   0.911  13.217 -0.6361  0.3711  0.2122
16237TIP3    H170202   3.190   0.832  13.191  0.0290  0.4252  1.1836
16237TIP3    H270203   3.053   0.897  13.188 -0.2251 -0.1124 -0.9104
16238TIP3   OH270204   1.408   1.189   1.959  0.9212 -0.3009  0.0834
16238TIP3    H170205   1.472   1.202   2.029  0.6461  0.0364  0.2746
16238TIP3    H270206   1.389   1.095   1.960  1.3335 -0.3839  0.0937
16239TIP3   OH270207   0.996   0.541   6.827  0.0496  0.1117 -0.2583
16239TIP3    H170208   0.993   0.634   6.845 -0.0903 -0.2337  1.6652
16239TIP3    H270209   1.046   0.534   6.745  1.2096  1.7678  0.2556
16240TIP3   OH270210   2.876   4.801   1.763  0.1062 -0.0129  0.7123
16240TIP3    H170211   2.961   4.758   1.771  1.0045  1.3367 -0.6949
16240TIP3    H270212   2.818   4.752   1.820  2.1038 -0.2600  2.6876
16241TIP3   OH270213   1.351   0.398  14.469 -0.0492 -0.9629  0.2898
16241TIP3    H170214   1.257   0.403  14.454 -0.2063 -2.5231  0.6078
16241TIP3    H270215   1.365   0.311  14.505  1.5122 -0.7231  0.3287
16242TIP3   OH270216   4.484   5.697  12.022  0.1624 -0.7641  0.2770
16242TIP3    H170217   4.503   5.643  11.945 -0.5639 -1.2185  0.4026
16242TIP3    H270218   4.508   5.642  12.097 -0.5990 -0.9444  0.4054
16243TIP3   OH270219   4.244   6.035   0.050  0.2851  0.5686  0.0161
16243TIP3    H170220   4.211   5.974  -0.016 -0.8698 -0.4347  1.4542
16243TIP3    H270221   4.329   5.999   0.076  0.2893  0.4153 -0.2120
16244TIP3   OH270222   2.608   0.912   5.627  0.1477 -0.0034  0.2767
16244TIP3    H170223   2.527   0.954   5.656 -0.6397  0.3042 -2.1270
16244TIP3    H270224   2.657   0.982   5.586 -0.0982 -0.8773 -1.6287
16245TIP3   OH270225   3.564   6.728   1.283 -0.0009 -0.1829 -0.3498
16245TIP3    H170226   3.598   6.741   1.194 -3.1288  0.9857 -1.5126
16245TIP3    H270227   3.520   6.810   1.304 -1.4408 -1.2952  1.2466
16246TIP3   OH270228   1.084   4.750  15.416 -0.3625  0.6314 -0.2107
16246TIP3    H170229   1.132   4.712  15.342  1.6640  2.2339  0.1869
16246TIP3    H270230   1.085   4.683  15.483  1.7620  0.7612 -0.0724
16247TIP3   OH270231   1.905   3.411   2.291 -0.1561  0.1901  0.1198
16247TIP3    H170232   1.906   3.316   2.285  0.1375  0.2299 -0.5596
16247TIP3    H270233   1.911   3.430   2.385 -2.2704 -0.4729  0.4396
16248TIP3   OH270234   2.721   1.367  17.050  0.1652 -0.2225  0.4225
16248TIP3    H170235   2.707   1.326  17.136 -0.1022  1.5263  1.2561
16248TIP3    H270236   2.816   1.373  17.043  0.1922  1.7128  1.6944
16249TIP3   OH270237   0.665   0.683   3.878  0.1290 -0.6912  0.3971
16249TIP3    H170238   0.601   0.736   3.831 -1.8653 -0.0818  3.4834
16249TIP3    H270239   0.627   0.596   3.880  0.3099 -0.7653  0.6453
16250TIP3   OH270240   4.482   5.689  16.028 -0.2962 -0.1314  0.2418
16250TIP3    H170241   4.422   5.627  16.071  0.8735 -0.6918  1.1348
16250TIP3    H270242   4.490   5.761  16.090  0.2740 -0.2579  0.3185
16251TIP3   OH270243   4.762   0.345   3.894  0.8929  0.3332 -0.4288
16251TIP3    H170244   4.668   0.329   3.886  0.9627  0.5059 -1.8849
16251TIP3    H270245   4.779   0.339   3.988 -0.3195 -1.1051 -0.2505
16252TIP3   OH270246   2.238   2.058  10.804 -0.1122 -0.5717 -0.1428
16252TIP3    H170247   2.331   2.041  10.786 -0.1383 -0.2929 -0.5485
16252TIP3    H270248   2.204   1.973  10.832 -0.2579 -1.2538 -2.2094
16253TIP3   OH270249   5.271   2.106   3.068  0.2082  0.1640 -0.1212
16253TIP3    H170250   5.316   2.162   3.004  0.7812 -0.3142 -0.1423
16253TIP3    H270251   5.184   2.092   3.030 -0.0545  1.2764  0.0255
16254TIP3   OH270252   6.739   2.606   3.303 -0.0901 -0.4526  0.0717
16254TIP3    H170253   6.658   2.647   3.273  0.1899 -0.1738 -0.3115
16254TIP3    H270254   6.775   2.564   3.225  1.1751  1.1625 -0.2803
16255TIP3   OH270255   6.572   6.757  11.165 -0.6422 -0.5715  0.4141
16255TIP3    H170256   6.516   6.692  11.123 -0.6541  0.5576 -1.4499
16255TIP3    H270257   6.522   6.838  11.161  1.5316  0.8011 -2.5920
16256TIP3   OH270258   6.775   5.009   4.462  0.1112  0.1202  0.6543
16256TIP3    H170259   6.823   4.930   4.440 -0.5495 -0.3850  1.0051
16256TIP3    H270260   6.772   5.059   4.381  1.2665  0.1882  0.6424
16257TIP3   OH270261   1.967   2.261   6.272  0.7353  0.2396  0.2930
16257TIP3    H170262   1.883   2.278   6.229  1.7326  2.8501 -0.8072
16257TIP3    H270263   1.949   2.187   6.330 -2.5127  1.1571  0.6597
16258TIP3   OH270264   3.990   1.855   5.758 -0.5502 -0.0236  0.2481
16258TIP3    H170265   4.084   1.856   5.775 -0.4405 -0.6336 -0.2886
16258TIP3    H270266   3.980   1.795   5.684 -1.3132  0.3921  0.0134
16259TIP3   OH270267   5.520   5.614   1.183  0.4434 -0.8728  0.4640
16259TIP3    H170268   5.569   5.532   1.183  0.9537 -0.5901 -0.7664
16259TIP3    H270269   5.501   5.631   1.091 -1.1522 -0.4757  0.8389
16260TIP3   OH270270   0.545   1.820   2.494 -0.1545  0.4066 -0.1533
16260TIP3    H170271   0.493   1.778   2.426  0.6080 -1.0175  0.1050
16260TIP3    H270272   0.503   1.905   2.508 -0.7588  0.4238 -1.8726
16261TIP3   OH270273   1.211   2.523  17.124 -0.0872 -0.3406 -0.1558
16261TIP3    H170274   1.147   2.482  17.066 -0.1989 -0.4389  0.0353
16261TIP3    H270275   1.225   2.610  17.086 -0.3054 -0.3337 -0.2218
16262TIP3   OH270276   2.319   5.243  11.785 -0.4736  0.0911 -0.2044
16262TIP3    H170277   2.342   5.161  11.829 -1.3296  0.2906  0.6485
16262TIP3    H270278   2.307   5.306  11.856 -1.8171  0.4454 -0.7080
16263TIP3   OH270279   2.663   2.574   4.685  0.7875  0.3876 -0.2055
16263TIP3    H170280   2.667   2.500   4.746  2.5894  0.0340 -0.7044
16263TIP3    H270281   2.725   2.552   4.616 -0.3563  1.3217 -1.5920
16264TIP3   OH270282   4.031   4.097  13.405  0.1390 -0.0838 -0.2479
16264TIP3    H170283   4.102   4.057  13.355 -0.7173 -1.0458 -0.7185
16264TIP3    H270284   4.056   4.081  13.497  0.9352  0.3215 -0.3834
16265TIP3   OH270285   2.691   4.520  15.743 -0.1637  0.0290  0.2061
16265TIP3    H170286   2.729   4.436  15.771 -0.0553 -0.5641 -1.6087
16265TIP3    H270287   2.611   4.528  15.795 -0.7190 -1.7266 -0.2994
16266TIP3   OH270288   6.216   2.431  10.502 -0.2988  0.2839 -0.2858
16266TIP3    H170289   6.156   2.388  10.563 -0.2321  1.5843  0.7531
16266TIP3    H270290   6.206   2.383  10.420 -0.3169 -1.5917  0.7566
16267TIP3   OH270291   6.521   3.313  14.386 -0.0835  0.2397  0.4476
16267TIP3    H170292   6.606   3.326  14.345 -0.2239 -1.5116 -0.5093
16267TIP3    H270293   6.528   3.356  14.471  1.6483  0.3891  0.2541
16268TIP3   OH270294   1.336   5.310  12.982  0.3641 -0.0670 -0.3972
16268TIP3    H170295   1.307   5.280  13.068  0.7027  1.5757  0.3475
16268TIP3    H270296   1.426   5.339  12.997  0.3277  0.4956 -1.2304
16269TIP3   OH270297   3.765   4.265  12.812  0.3527  0.2369  0.5019
16269TIP3    H170298   3.809   4.350  12.812 -0.9158  0.9070 -0.3128
16269TIP3    H270299   3.728   4.257  12.900 -0.7325  1.1849  0.1483
16270TIP3   OH270300   4.699   4.157   5.096  0.2716  0.0813 -0.6262
16270TIP3    H170301   4.610   4.188   5.111  0.2236  0.6142 -1.9223
16270TIP3    H270302   4.718   4.100   5.171 -0.8409  0.6337  0.0876
16271TIP3   OH270303   4.975   4.496  15.619 -0.4238 -0.1964 -0.0546
16271TIP3    H170304   5.049   4.523  15.564 -1.4845 -0.8817 -1.9293
16271TIP3    H270305   4.916   4.572  15.619 -0.1009  0.0614  0.7630
16272TIP3   OH270306   2.969   4.288  12.184 -0.1279  0.0972  0.1410
16272TIP3    H170307   3.057   4.255  12.201 -0.3267 -1.0210 -0.8374
16272TIP3    H270308   2.917   4.210  12.164 -1.2691  0.7649  0.3879
16273TIP3   OH270309   5.924   0.743  12.381  0.5078  0.0540  0.2474
16273TIP3    H170310   5.850   0.686  12.402  0.8206 -0.3459  0.2877
16273TIP3    H270311   5.948   0.719  12.291 -2.4253  3.4870 -1.7133
16274TIP3   OH270312   4.562   3.857  15.404  0.0017  0.0917  0.0313
16274TIP3    H170313   4.513   3.937  15.389 -0.6903 -0.2459  0.4332
16274TIP3    H270314   4.557   3.810  15.321 -1.4367 -0.5051  0.4241
16275TIP3   OH270315   1.323   5.572   3.435 -0.0220 -0.6363  0.6857
16275TIP3    H170316   1.378   5.514   3.486  1.6955 -0.3090 -0.6997
16275TIP3    H270317   1.333   5.541   3.345 -0.1752  0.9195  0.0978
16276TIP3   OH270318   1.411   6.640   5.539  0.0175 -0.0670 -0.0174
16276TIP3    H170319   1.494   6.606   5.507  0.5357  0.4787  0.7217
16276TIP3    H270320   1.364   6.563   5.571 -0.2902 -0.5524 -1.5308
16277TIP3   OH270321   3.230   6.825   6.126 -0.4430  0.2337 -0.3657
16277TIP3    H170322   3.283   6.874   6.190 -0.0055 -1.4568  0.6433
16277TIP3    H270323   3.207   6.744   6.172 -1.8415 -0.1463 -1.6781
16278TIP3   OH270324   0.256   4.323   0.921 -0.0018 -0.1538  0.1198
16278TIP3    H170325   0.303   4.372   0.854 -0.8893 -0.0865 -0.4668
16278TIP3    H270326   0.175   4.296   0.879 -0.1613 -0.9093  0.8824
16279TIP3   OH270327   6.177   5.375  11.941  0.4702  0.4328  0.8780
16279TIP3    H170328   6.137   5.295  11.907  0.2241  1.4123 -1.3233
16279TIP3    H270329   6.269   5.353  11.953  0.4036 -0.1787  0.3019
16280TIP3   OH270330   6.104   1.192   1.612 -0.8231  0.2041  0.1825
16280TIP3    H170331   6.124   1.216   1.702 -1.1593  1.4008 -0.0423
16280TIP3    H270332   6.032   1.129   1.620  0.3541 -1.1111  0.8072
16281TIP3   OH270333   1.143   0.736   0.118 -0.2615 -0.1439  0.0785
16281TIP3    H170334   1.055   0.700   0.118 -0.1104 -0.5282 -0.4317
16281TIP3    H270335   1.168   0.740   0.211  0.7288 -3.9092  0.1478
16282TIP3   OH270336   1.187   0.350  14.895 -0.2517  0.3045  0.4098
16282TIP3    H170337   1.218   0.417  14.957 -2.6750  0.0307  2.0719
16282TIP3    H270338   1.144   0.400  14.825 -3.1808  0.6485  2.2708
16283TIP3   OH270339   4.812   0.182   1.434  0.3142 -0.1254  0.2629
16283TIP3    H170340   4.831   0.203   1.342 -1.7467 -1.8535 -0.6558
16283TIP3    H270341   4.890   0.136   1.464 -0.0155 -2.0615 -1.5722
16284TIP3   OH270342   3.644   1.147   6.478 -0.3043 -0.2146  0.1351
16284TIP3    H170343   3.676   1.236   6.461 -2.9657  0.7368 -0.2853
16284TIP3    H270344   3.585   1.128   6.406 -2.3398 -0.9852  1.9056
16285TIP3   OH270345   4.421   4.167   3.057 -0.7100 -0.3658  0.2818
16285TIP3    H170346   4.382   4.236   3.003  0.9024  0.4281  0.0672
16285TIP3    H270347   4.367   4.165   3.136 -1.2018  0.6799 -0.0103
16286TIP3   OH270348   0.567   2.519   5.855  0.3161 -0.5284  0.0559
16286TIP3    H170349   0.630   2.520   5.928  0.4635 -0.4834 -0.0722
16286TIP3    H270350   0.598   2.449   5.798  0.5969 -0.1045 -0.3132
16287TIP3   OH270351   5.075   0.018   2.197  0.2735  0.0663 -0.0921
16287TIP3    H170352   5.100   0.068   2.275  1.1728 -0.4552 -0.0332
16287TIP3    H270353   5.157   0.005   2.150 -0.2102  0.0772 -0.9611
16288TIP3   OH270354   0.264   3.818   4.184  0.3789  0.0399  0.4080
16288TIP3    H170355   0.268   3.765   4.264 -0.2784  0.4256  0.7123
16288TIP3    H270356   0.201   3.888   4.205 -1.3753 -0.9779 -1.0869
16289TIP3   OH270357   3.011   1.847   5.359  0.1161 -0.0944  0.9371
16289TIP3    H170358   3.017   1.768   5.307 -2.8872  0.2065 -0.0874
16289TIP3    H270359   3.097   1.856   5.401  1.6847 -1.9485 -1.6212
16290TIP3   OH270360   3.633   6.488   3.334  0.3322  0.2657  0.0370
16290TIP3    H170361   3.568   6.419   3.319 -0.2042  0.8852 -0.5969
16290TIP3    H270362   3.686   6.457   3.407 -1.4423  0.2742  1.3914
16291TIP3   OH270363   3.623   4.933   3.968  1.1624 -0.5991 -0.5582
16291TIP3    H170364   3.651   4.952   3.879  0.5398  0.1623 -0.6037
16291TIP3    H270365   3.663   5.002   4.021 -1.4964  1.2696 -0.7895
16292TIP3   OH270366   2.847   6.418  10.911  0.1149 -0.1763 -0.1583
16292TIP3    H170367   2.909   6.481  10.874  1.4967 -1.7919 -0.7550
16292TIP3    H270368   2.822   6.363  10.836  0.5144 -1.5560  0.6859
16293TIP3   OH270369   0.323   0.263  15.752 -0.2856  0.3111  0.6065
16293TIP3    H170370   0.386   0.202  15.791  0.8825  1.0746 -0.0170
16293TIP3    H270371   0.251   0.208  15.721  0.5238 -0.6924  0.4695
16294TIP3   OH270372   0.335   4.321  11.091 -0.2742 -0.2725  0.3393
16294TIP3    H170373   0.393   4.248  11.071  0.2459  0.5528 -1.3234
16294TIP3    H270374   0.391   4.399  11.087 -1.0944  0.3572  0.7119
16295TIP3   OH270375   2.095   4.931  15.975 -0.1712 -0.6113  0.1710
16295TIP3    H170376   2.185   4.925  16.008 -0.4684  0.2423  1.2232
16295TIP3    H270377   2.050   4.985  16.040 -0.9583  0.6353 -1.3402
16296TIP3   OH270378   6.726   6.407  15.718 -0.2103 -0.6433  0.6783
16296TIP3    H170379   6.818   6.391  15.694 -0.4160  0.1153 -0.7420
16296TIP3    H270380   6.730   6.475  15.785  0.2438  0.3637 -0.3252
16297TIP3   OH270381   1.335   3.405  16.583  0.2121  0.3967 -0.1158
16297TIP3    H170382   1.240   3.416  16.582  0.2725  0.9282 -0.7466
16297TIP3    H270383   1.350   3.329  16.640 -0.6385 -0.1990 -0.6704
16298TIP3   OH270384   2.767   5.129  15.504 -0.3939  0.4640 -0.1129
16298TIP3    H170385   2.751   5.060  15.439  2.1666 -1.8209  1.4679
16298TIP3    H270386   2.856   5.159  15.486  1.1742 -1.5689  3.2415
16299TIP3   OH270387   0.341   2.466  15.027 -0.0171  0.1913 -0.3257
16299TIP3    H170388   0.343   2.557  15.058 -1.4187 -0.0591  0.5807
16299TIP3    H270389   0.271   2.425  15.078  0.3033 -1.2900 -1.0379
16300TIP3   OH270390   4.669   0.312  13.678  0.2909  0.2832  0.3235
16300TIP3    H170391   4.748   0.341  13.633  0.1265  0.9218  0.4352
16300TIP3    H270392   4.701   0.259  13.751  0.5234 -2.1624 -1.4550
16301TIP3   OH270393   0.334   5.756  11.226 -0.1934  0.2344  0.5961
16301TIP3    H170394   0.387   5.825  11.266  3.5951 -2.5004  0.9177
16301TIP3    H270395   0.351   5.763  11.132  0.3768 -0.3157  0.6493
16302TIP3   OH270396   0.506   5.482  11.355  0.4283 -0.0517  0.0917
16302TIP3    H170397   0.528   5.444  11.440  0.3529  0.4565  0.3422
16302TIP3    H270398   0.580   5.538  11.334  0.0272  0.5664  0.2770
16303TIP3   OH270399   3.183   5.155  14.360  0.0009 -0.1235 -0.2084
16303TIP3    H170400   3.266   5.111  14.378  0.0894  0.0210 -0.2713
16303TIP3    H270401   3.126   5.129  14.433  0.4524  0.6973  0.4472
16304TIP3   OH270402   0.971   2.718  16.806 -0.0195  0.1274 -0.1604
16304TIP3    H170403   0.913   2.764  16.744 -0.8131 -1.5066 -0.6887
16304TIP3    H270404   1.024   2.661  16.750  0.7013  0.1438  0.5073
16305TIP3   OH270405   0.511   2.968  14.880 -0.2319 -0.4056 -0.0065
16305TIP3    H170406   0.572   2.941  14.812  0.2159  0.3606  0.0790
16305TIP3    H270407   0.425   2.964  14.839 -0.1685 -1.7398 -0.0530
16306TIP3   OH270408   6.485   4.932  12.505 -0.1060 -0.1200  0.3917
16306TIP3    H170409   6.428   4.879  12.449 -1.6120  1.6246  0.1686
16306TIP3    H270410   6.433   4.949  12.584  0.6937  0.2521  0.8530
16307TIP3   OH270411   0.195   1.460  13.291 -0.3012 -0.3293 -0.6985
16307TIP3    H170412   0.260   1.520  13.328 -0.7353  0.1189 -0.6533
16307TIP3    H270413   0.223   1.373  13.321  0.6191 -0.2163 -1.1821
16308TIP3   OH270414   0.951   2.017  11.153 -0.0356  0.8397 -0.0946
16308TIP3    H170415   0.930   1.923  11.153 -1.2136  1.0952  0.0849
16308TIP3    H270416   0.890   2.055  11.090 -0.1524  1.6195  0.4847
16309TIP3   OH270417   2.057   0.084  15.690 -0.0839 -0.3478  0.2593
16309TIP3    H170418   2.081  -0.008  15.682 -0.5811 -0.4652  0.0507
16309TIP3    H270419   2.001   0.101  15.614 -1.7198 -0.4428  1.3790
16310TIP3   OH270420   5.582   6.654  11.298 -0.2763  0.2058 -0.6884
16310TIP3    H170421   5.529   6.619  11.370  1.2995  0.4270  0.6360
16310TIP3    H270422   5.614   6.576  11.252  1.3489 -0.1072  0.8661
16311TIP3   OH270423   4.765   6.649   0.101  0.4832  0.3022  0.0865
16311TIP3    H170424   4.742   6.560   0.128 -0.3907  0.2565 -0.7758
16311TIP3    H270425   4.821   6.638   0.025  0.2428  0.4838 -0.1207
16312TIP3   OH270426   6.125   1.749  15.246 -0.5291 -0.0895 -0.2890
16312TIP3    H170427   6.105   1.750  15.339  0.3309  0.2460 -0.1007
16312TIP3    H270428   6.063   1.686  15.209  0.0245 -1.2708  0.7186
16313TIP3   OH270429   1.561   1.407   1.114  0.0477 -0.2491 -0.5136
16313TIP3    H170430   1.579   1.315   1.133  0.2100  0.0950  1.1601
16313TIP3    H270431   1.647   1.449   1.121 -0.1549  0.1526 -0.4617
16314TIP3   OH270432   1.058   2.312   2.687  0.5383 -0.5576 -0.0735
16314TIP3    H170433   1.030   2.403   2.697  0.2467 -0.7175  0.6015
16314TIP3    H270434   1.153   2.316   2.689  0.5436 -0.4913  2.2811
16315TIP3   OH270435   5.027   4.546   5.387  0.6445 -0.2954  0.1145
16315TIP3    H170436   5.067   4.603   5.452  0.1616  0.2227 -0.0319
16315TIP3    H270437   4.936   4.575   5.383  0.3286 -1.2344  0.2045
16316TIP3   OH270438   2.741   2.942  16.747 -0.6315  0.0856 -0.3191
16316TIP3    H170439   2.767   2.982  16.830  0.0106 -1.4403  0.2436
16316TIP3    H270440   2.801   2.980  16.683  0.3510 -0.3817  0.3029
16317TIP3   OH270441   4.092   1.124   2.077  0.1795  0.4882 -0.2396
16317TIP3    H170442   4.172   1.169   2.050  0.7305 -0.1004  0.3734
16317TIP3    H270443   4.102   1.113   2.171 -1.2458  1.5927  0.0614
16318TIP3   OH270444   4.062   5.018   3.437  0.0709  0.5549  0.2058
16318TIP3    H170445   4.039   5.107   3.464  2.9808  1.1582  0.9954
16318TIP3    H270446   4.109   5.030   3.355  1.0858 -0.1852  0.6723
16319TIP3   OH270447   1.131   6.801  13.305 -0.2512 -0.3092 -0.0199
16319TIP3    H170448   1.216   6.811  13.348  0.0281  1.5816 -0.9213
16319TIP3    H270449   1.092   6.888  13.309 -1.0852 -0.5646 -1.7976
16320TIP3   OH270450   6.453   2.608   1.236  0.0425 -0.2834  0.2298
16320TIP3    H170451   6.539   2.629   1.273  0.8013 -0.1647 -1.5273
16320TIP3    H270452   6.448   2.512   1.239  0.0496 -0.2716  0.7143
16321TIP3   OH270453   3.004   5.452   4.120 -0.0321 -0.6421 -0.3967
16321TIP3    H170454   3.090   5.455   4.076  0.8165  0.6150  1.2525
16321TIP3    H270455   2.941   5.443   4.048  1.4397 -1.1062 -1.6894
16322TIP3   OH270456   2.792   5.771  12.075 -0.2729 -0.3613 -0.3313
16322TIP3    H170457   2.803   5.677  12.093 -0.8008 -0.5890 -1.1316
16322TIP3    H270458   2.736   5.774  11.997 -0.8354  0.6356  0.0885
16323TIP3   OH270459   1.818   2.720  15.376  0.4171 -0.0033  0.0734
16323TIP3    H170460   1.808   2.783  15.306  1.3941 -0.4281 -0.4587
16323TIP3    H270461   1.808   2.634  15.334  3.5225 -0.3953 -0.0886
16324TIP3   OH270462   1.775   3.187  13.416 -0.6676 -0.0810  0.6069
16324TIP3    H170463   1.854   3.172  13.467 -0.4095  0.7319  0.4542
16324TIP3    H270464   1.765   3.282  13.413 -0.4846 -0.0821 -1.1351
16325TIP3   OH270465   1.895   3.772  13.028  0.0349 -0.1188  0.2866
16325TIP3    H170466   1.834   3.769  13.101 -1.4795  0.1985 -0.9329
16325TIP3    H270467   1.909   3.865  13.012  1.7906 -0.1568  1.2674
16326TIP3   OH270468   4.214   2.127  12.828 -0.2683  0.1222  0.3554
16326TIP3    H170469   4.157   2.190  12.873  0.9769  2.5522 -1.2627
16326TIP3    H270470   4.236   2.169  12.745  1.2319 -2.1788 -0.5162
16327TIP3   OH270471   4.212   4.556   3.099  0.3038 -0.1593  0.1471
16327TIP3    H170472   4.262   4.589   3.173 -0.3674  0.0723  0.5066
16327TIP3    H270473   4.135   4.613   3.095  0.0509 -0.5289 -0.3722
16328TIP3   OH270474   4.747   2.237   5.162 -0.4983  0.3101 -0.1643
16328TIP3    H170475   4.768   2.187   5.083  0.1010  1.2873 -0.6458
16328TIP3    H270476   4.832   2.260   5.199 -0.7743  0.4446  0.3961
16329TIP3   OH270477   1.933   0.532  12.188  0.4332  0.3762 -0.3546
16329TIP3    H170478   2.004   0.582  12.228  0.0096  1.7741 -1.2673
16329TIP3    H270479   1.883   0.597  12.140 -0.7073 -0.8036 -0.8103
16330TIP3   OH270480   0.869   6.442   1.683  0.5182 -0.2806  0.2783
16330TIP3    H170481   0.802   6.375   1.670  0.9301 -0.6916  0.2425
16330TIP3    H270482   0.820   6.523   1.696  0.0254 -0.4710 -0.3405
16331TIP3   OH270483   5.251   6.023   5.492 -0.4558 -0.5688 -0.4449
16331TIP3    H170484   5.201   5.949   5.457 -0.5688 -0.9746  0.5208
16331TIP3    H270485   5.295   6.061   5.416 -3.1790  0.5716 -1.5927
16332TIP3   OH270486   2.807   2.516  15.563  0.1262 -0.1944  0.1442
16332TIP3    H170487   2.714   2.525  15.542 -0.4499 -0.1335  2.4400
16332TIP3    H270488   2.840   2.606  15.564  0.0965 -0.1792 -0.2181
16333TIP3   OH270489   4.809   6.015  15.539  0.0535  0.0182  0.0916
16333TIP3    H170490   4.876   5.997  15.605 -0.5680 -2.4373  0.1763
16333TIP3    H270491   4.728   5.981  15.578 -0.4074 -1.1187 -1.7410
16334TIP3   OH270492   4.440   6.719  15.794 -0.4839 -0.2393  0.0333
16334TIP3    H170493   4.463   6.712  15.702 -1.4527  1.6496 -0.4161
16334TIP3    H270494   4.521   6.699  15.841 -0.3216 -2.6058 -1.1363
16335TIP3   OH270495   5.733   2.212   0.591 -0.4205 -0.2180  0.1268
16335TIP3    H170496   5.664   2.251   0.644  0.6618 -0.6358  1.9489
16335TIP3    H270497   5.787   2.286   0.565 -0.1752 -0.1269  0.8502
16336TIP3   OH270498   6.784   3.268  13.786 -0.2105 -0.0438 -0.0650
16336TIP3    H170499   6.766   3.215  13.863 -1.2551  0.7646  0.2848
16336TIP3    H270500   6.750   3.217  13.713  0.5218 -0.6867  0.0316
16337TIP3   OH270501   2.535   4.458  13.917  0.1001 -0.5036 -0.1607
16337TIP3    H170502   2.459   4.473  13.860  0.7522 -0.9044 -1.1509
16337TIP3    H270503   2.496   4.435  14.001 -0.9387  2.7105  0.3990
16338TIP3   OH270504   6.682   4.934  13.158  0.2681  0.2446 -0.0682
16338TIP3    H170505   6.597   4.915  13.118  0.2733  0.2926 -0.1032
16338TIP3    H270506   6.703   5.022  13.127 -0.0918  0.6000  0.6634
16339TIP3   OH270507   3.803   5.551  16.169  0.2058  0.4877 -0.1958
16339TIP3    H170508   3.875   5.489  16.158 -1.2817 -1.0621 -2.0228
16339TIP3    H270509   3.824   5.624  16.111  0.3410  0.0689 -0.6769
16340TIP3   OH270510   2.985   1.776   2.154 -0.0988  0.1459  0.1416
16340TIP3    H170511   3.022   1.739   2.074  0.4923 -0.2655  0.5955
16340TIP3    H270512   3.058   1.820   2.197 -0.1596 -0.5406  0.9753
16341TIP3   OH270513   3.521   5.120  13.028  0.2209  0.7367  0.1876
16341TIP3    H170514   3.605   5.130  12.983  1.0018  0.7443  1.6209
16341TIP3    H270515   3.540   5.063  13.103 -1.1493  0.3753  0.2898
16342TIP3   OH270516   3.331   2.648   3.640 -0.7548  0.0273  0.5539
16342TIP3    H170517   3.258   2.587   3.632 -0.3646 -0.3092 -0.7901
16342TIP3    H270518   3.336   2.668   3.733 -0.7596 -2.1775  1.1034
16343TIP3   OH270519   5.507   5.597  14.919 -0.0764  0.4388 -0.5496
16343TIP3    H170520   5.559   5.528  14.880 -0.3705  0.0871 -0.3293
16343TIP3    H270521   5.544   5.678  14.884  0.5719  0.1935 -0.4426
16344TIP3   OH270522   6.495   4.162   6.502  0.1827  0.0594 -0.3686
16344TIP3    H170523   6.471   4.109   6.578 -1.5372  1.3160  0.0251
16344TIP3    H270524   6.450   4.120   6.428 -1.4927  1.1148  0.0031
16345TIP3   OH270525   3.263   3.311  13.186  0.5216  0.1613 -0.1392
16345TIP3    H170526   3.198   3.247  13.215 -0.7878  1.5902  0.2040
16345TIP3    H270527   3.242   3.327  13.094  0.9262  0.0191 -0.2596
16346TIP3   OH270528   2.941   1.818   1.838 -0.3151  0.0576 -0.2083
16346TIP3    H170529   2.962   1.730   1.871  2.0243  0.2459 -0.9942
16346TIP3    H270530   3.022   1.868   1.850 -1.7676  2.3356  0.8035
16347TIP3   OH270531   3.612   5.506   0.706  0.1795  0.8135  0.2096
16347TIP3    H170532   3.613   5.414   0.732 -0.4851  0.3689 -1.2518
16347TIP3    H270533   3.532   5.516   0.654  0.4318  2.1220  0.0287
16348TIP3   OH270534   6.531   6.468   5.926  0.1525 -0.0846 -0.4957
16348TIP3    H170535   6.509   6.519   6.004  0.4404 -0.3199 -0.2606
16348TIP3    H270536   6.447   6.439   5.892  0.0811 -0.8419  0.3098
16349TIP3   OH270537   3.080   0.615  15.588 -0.1221  0.3770 -0.4758
16349TIP3    H170538   2.992   0.608  15.625  1.0654 -1.1052  2.4055
16349TIP3    H270539   3.098   0.709  15.588 -0.6145  0.5579  1.9600
16350TIP3   OH270540   1.753   2.440  13.173 -0.2061  0.2957 -0.3163
16350TIP3    H170541   1.703   2.441  13.255  1.7250 -0.9782  0.9559
16350TIP3    H270542   1.797   2.525  13.170  0.7254 -0.1270  0.6753
16351TIP3   OH270543   0.373   0.096  11.471 -0.4014  0.0944 -0.0305
16351TIP3    H170544   0.315   0.066  11.540 -0.2233  0.5643  0.3310
16351TIP3    H270545   0.315   0.128  11.402 -0.6215 -1.9280 -0.8435
16352TIP3   OH270546   4.935   6.621  14.195 -0.1077 -0.3771 -0.5575
16352TIP3    H170547   5.011   6.610  14.138 -0.7273 -1.2914 -1.2539
16352TIP3    H270548   4.936   6.545  14.252  0.6356  0.6541  0.8431
16353TIP3   OH270549   1.076   6.005   3.181 -0.3099  0.2378  0.7888
16353TIP3    H170550   1.123   5.973   3.259 -0.7953 -0.4263  0.8208
16353TIP3    H270551   1.004   6.057   3.217 -0.2465  0.3330  0.7756
16354TIP3   OH270552   1.811   1.961  16.896 -0.3183  0.4193 -1.1386
16354TIP3    H170553   1.766   1.896  16.842 -0.2942 -0.5979  0.0224
16354TIP3    H270554   1.904   1.945  16.881 -0.3132  0.2361 -0.9150
16355TIP3   OH270555   2.256   2.689   3.815  0.0020  0.5129  0.5400
16355TIP3    H170556   2.271   2.670   3.907 -2.5281 -0.2371  0.8997
16355TIP3    H270557   2.175   2.740   3.814 -1.0965 -1.0852 -1.3040
16356TIP3   OH270558   2.119   2.443   5.879  0.2751 -0.5092 -0.0426
16356TIP3    H170559   2.103   2.349   5.866 -1.2202 -0.1536 -1.1283
16356TIP3    H270560   2.054   2.485   5.823  2.9620  1.1997 -2.1026
16357TIP3   OH270561   2.559   5.242  13.352 -0.1498 -0.6374  0.0761
16357TIP3    H170562   2.587   5.299  13.280 -0.4748 -0.3013  0.2115
16357TIP3    H270563   2.478   5.201  13.320  0.4579 -1.5701 -0.2966
16358TIP3   OH270564   4.071   6.266  17.091  0.2820 -0.4648  0.2912
16358TIP3    H170565   4.098   6.189  17.041 -0.0506 -1.7642  2.0147
16358TIP3    H270566   4.000   6.234  17.147  0.8928  0.7993  1.8553
16359TIP3   OH270567   1.767   0.074  12.978  0.0128 -0.1678  0.2183
16359TIP3    H170568   1.839   0.069  13.041 -1.3479 -1.4289  1.7634
16359TIP3    H270569   1.753  -0.017  12.951  0.7784  0.3680 -2.2500
16360TIP3   OH270570   1.208   0.332  13.388 -0.2759 -0.3318  0.6947
16360TIP3    H170571   1.156   0.367  13.460 -1.3463  3.0778 -1.5014
16360TIP3    H270572   1.145   0.295  13.327  0.2285  0.1978 -0.1717
16361TIP3   OH270573   0.798   1.750  12.392  0.0569 -0.0841  0.2049
16361TIP3    H170574   0.796   1.842  12.417 -1.4780 -0.4345  1.5798
16361TIP3    H270575   0.738   1.744  12.318 -0.2547 -0.0669  0.4560
16362TIP3   OH270576   6.037   5.763  12.165 -0.4003 -0.0240 -0.6694
16362TIP3    H170577   5.989   5.815  12.230  0.8354 -0.3180  0.5169
16362TIP3    H270578   6.047   5.677  12.206 -1.2498 -0.8137 -2.0577
16363TIP3   OH270579   2.704   2.016  12.352 -0.0042  0.7608  0.4389
16363TIP3    H170580   2.630   2.002  12.294 -0.1712 -1.1821  1.0462
16363TIP3    H270581   2.665   2.036  12.437  0.2346  2.5838  0.1683
16364TIP3   OH270582   1.863   4.301  13.288  0.9837 -0.1423 -0.0228
16364TIP3    H170583   1.851   4.394  13.267  0.1834  0.3074  2.1260
16364TIP3    H270584   1.929   4.302  13.358 -1.2290 -0.8457  2.2053
16365TIP3   OH270585   6.371   0.039  16.389  0.1676  0.8734 -0.7240
16365TIP3    H170586   6.451   0.079  16.423 -0.4131  1.4575 -0.0302
16365TIP3    H270587   6.386  -0.055  16.399 -0.8791  0.9668  3.4517
16366TIP3   OH270588   4.811   0.571   0.493 -0.4784 -0.1620  0.3746
16366TIP3    H170589   4.796   0.610   0.407 -1.9895 -0.4478  0.4848
16366TIP3    H270590   4.889   0.517   0.482  1.0446  1.9638 -0.0759
16367TIP3   OH270591   1.233   5.341  14.295  0.2055 -0.3099  0.2770
16367TIP3    H170592   1.208   5.319  14.205 -1.4350  0.4457  0.5118
16367TIP3    H270593   1.323   5.309  14.303  0.5637  0.0195 -1.7790
16368TIP3   OH270594   0.097   1.722   5.612  0.0551 -0.7837 -0.2867
16368TIP3    H170595   0.148   1.758   5.685  0.8309  2.3027 -2.1506
16368TIP3    H270596   0.009   1.757   5.625 -0.3064 -1.8493  0.1831
16369TIP3   OH270597   5.121   3.573   5.231 -0.3279  0.1191  0.1023
16369TIP3    H170598   5.057   3.522   5.182 -0.5497  0.2411  0.2664
16369TIP3    H270599   5.077   3.596   5.313 -1.0379  2.3820 -0.8196
16370TIP3   OH270600   2.403   1.509  14.684  0.2990 -0.0294 -0.4108
16370TIP3    H170601   2.373   1.439  14.742 -0.2179  0.0728 -0.5493
16370TIP3    H270602   2.406   1.587  14.741  0.8493 -0.1511 -0.2632
16371TIP3   OH270603   4.835   4.479   0.414  0.5239  0.0765  0.4041
16371TIP3    H170604   4.766   4.519   0.466  2.0942  0.9908  1.8899
16371TIP3    H270605   4.813   4.386   0.411 -0.8894  0.3852  0.5886
16372TIP3   OH270606   4.650   5.201   1.868  0.2695  0.2339 -0.0568
16372TIP3    H170607   4.736   5.220   1.907  0.4414 -0.0498 -0.2913
16372TIP3    H270608   4.657   5.232   1.778  1.8973 -4.1332 -1.7329
16373TIP3   OH270609   4.647   1.891   2.607  0.0917 -0.0743  0.0286
16373TIP3    H170610   4.712   1.905   2.539  1.6393  0.5709  1.5671
16373TIP3    H270611   4.603   1.976   2.615 -0.5192 -0.3243 -0.5565
16374TIP3   OH270612   3.406   1.440   0.366  0.2414 -0.2902  0.1769
16374TIP3    H170613   3.399   1.527   0.328  0.1828  0.2135  1.3219
16374TIP3    H270614   3.364   1.383   0.302 -0.8746  0.6925 -0.0051
16375TIP3   OH270615   6.467   5.293   2.584 -0.1602 -0.5774  0.4691
16375TIP3    H170616   6.411   5.307   2.507  3.4724  4.2173 -1.8532
16375TIP3    H270617   6.418   5.331   2.657 -1.7695 -0.8661 -0.4131
16376TIP3   OH270618   3.735   4.039   1.263 -0.6725 -0.4021 -0.1851
16376TIP3    H170619   3.780   4.038   1.348 -0.7595  1.8824 -0.0493
16376TIP3    H270620   3.796   4.083   1.204 -1.4663 -0.0795 -0.7790
16377TIP3   OH270621   0.128   5.707   6.093  0.5012  0.0179 -0.6478
16377TIP3    H170622   0.202   5.650   6.072  1.3284  0.8028  0.0145
16377TIP3    H270623   0.092   5.670   6.174  0.6830  0.1005 -0.5276
16378TIP3   OH270624   0.596   6.296   2.186  0.1690  0.1749  0.1928
16378TIP3    H170625   0.542   6.327   2.114  1.1581 -0.5555 -0.9022
16378TIP3    H270626   0.538   6.237   2.236 -0.7474  1.2772  0.4616
16379TIP3   OH270627   5.320   5.070   0.258  0.1435  0.0064 -0.3608
16379TIP3    H170628   5.271   5.095   0.180  0.6482  1.3353 -0.2754
16379TIP3    H270629   5.399   5.125   0.255  1.1546 -1.3627  0.0225
16380TIP3   OH270630   1.767   0.936   5.873 -0.1590 -0.1746  0.0043
16380TIP3    H170631   1.787   0.853   5.829  0.5937 -0.5665  1.0391
16380TIP3    H270632   1.735   0.910   5.960 -0.9190  0.6001 -0.0287
16381TIP3   OH270633   3.460   1.091  16.789  0.0197  0.2941  0.0362
16381TIP3    H170634   3.531   1.152  16.812  0.1689  0.1579 -0.0559
16381TIP3    H270635   3.500   1.033  16.724 -0.1650  0.1866  0.0215
16382TIP3   OH270636   3.042   6.016   3.060 -0.3053 -0.4783  0.5767
16382TIP3    H170637   3.065   5.959   3.133  0.6539  0.5426  1.0907
16382TIP3    H270638   3.096   5.985   2.987  0.0314 -0.3735  0.7841
16383TIP3   OH270639   2.814   6.456   3.034 -0.7290  0.1898  0.2276
16383TIP3    H170640   2.812   6.543   2.994  0.4573 -0.2105 -0.7786
16383TIP3    H270641   2.722   6.431   3.044 -1.1727 -0.1624 -3.4097
16384TIP3   OH270642   2.495   2.269  14.618 -0.2532 -0.3714  0.4674
16384TIP3    H170643   2.556   2.254  14.545 -1.8132 -3.8541 -0.3104
16384TIP3    H270644   2.548   2.310  14.686  2.1570 -0.4353 -1.2553
16385TIP3   OH270645   2.007   5.332   4.954 -0.5952  0.1262 -0.2339
16385TIP3    H170646   1.964   5.256   4.915  0.5805  0.0689 -1.4658
16385TIP3    H270647   2.093   5.301   4.980 -0.9087  0.4859  1.3520
16386TIP3   OH270648   0.108   3.691  16.728 -0.4472 -0.1777 -0.3757
16386TIP3    H170649   0.094   3.603  16.691 -0.7373 -0.3243  0.0797
16386TIP3    H270650   0.148   3.675  16.813  0.3120  0.1653 -0.6530
16387TIP3   OH270651   0.326   1.510   4.860 -0.4778 -0.2957  0.5755
16387TIP3    H170652   0.339   1.430   4.911  2.0157 -0.8313 -0.7194
16387TIP3    H270653   0.409   1.558   4.870 -1.0980  1.0443 -0.4491
16388TIP3   OH270654   6.296   4.725   4.156  0.0232 -0.7026 -0.1913
16388TIP3    H170655   6.348   4.724   4.236  1.2244 -1.9100 -0.9303
16388TIP3    H270656   6.205   4.721   4.185  0.4596 -1.6736  1.1129
16389TIP3   OH270657   6.023   2.315   5.649  0.3600  0.2410  0.2332
16389TIP3    H170658   6.015   2.252   5.577  1.1228  1.0667 -0.6039
16389TIP3    H270659   6.013   2.263   5.728  2.2735 -1.1669 -0.3931
16390TIP3   OH270660   5.547   3.705  11.923 -0.5673  0.1791 -0.3457
16390TIP3    H170661   5.527   3.709  11.829 -0.3755  0.3318 -0.3783
16390TIP3    H270662   5.519   3.790  11.957  0.3205  0.5230 -0.4481
16391TIP3   OH270663   5.362   6.256  10.766  0.0943 -0.0406  0.4411
16391TIP3    H170664   5.350   6.348  10.790  1.7097  0.5538 -0.8348
16391TIP3    H270665   5.452   6.236  10.791 -0.0986 -1.1662  0.3068
16392TIP3   OH270666   5.093   3.453  16.059  0.2319 -0.3894  0.7686
16392TIP3    H170667   5.043   3.410  15.990  2.0256 -1.5231  0.0878
16392TIP3    H270668   5.152   3.385  16.092  1.9388  1.0462  0.8831
16393TIP3   OH270669   4.332   3.890  14.866  0.1051 -0.5172 -0.0556
16393TIP3    H170670   4.265   3.951  14.896  0.2303 -0.4150  0.0161
16393TIP3    H270671   4.346   3.915  14.774 -0.2606 -0.8149 -0.1974
16394TIP3   OH270672   0.569   3.069  14.195  0.0183  0.0517 -0.2637
16394TIP3    H170673   0.640   3.133  14.194 -1.4156  1.6923 -0.6786
16394TIP3    H270674   0.520   3.085  14.115 -0.4903 -1.4644 -0.2873
16395TIP3   OH270675   2.637   1.181  12.441 -0.1521  0.5501 -0.1734
16395TIP3    H170676   2.628   1.229  12.524 -0.9846  0.0352  0.0405
16395TIP3    H270677   2.684   1.101  12.465  1.5025  1.3474 -0.5805
16396TIP3   OH270678   3.886   4.473  16.093  0.4493 -0.4521 -0.3038
16396TIP3    H170679   3.959   4.536  16.093  0.6472 -0.6779  0.5951
16396TIP3    H270680   3.852   4.478  16.003  0.9086  0.4186 -0.4492
16397TIP3   OH270681   0.103   5.959  14.066 -0.8928 -0.3839  0.0420
16397TIP3    H170682   0.055   5.971  13.984  1.5458  1.3739 -1.2641
16397TIP3    H270683   0.194   5.979  14.043  0.4852 -3.2181  2.4247
16398TIP3   OH270684   0.547   4.873  12.333 -0.0517  0.0995  0.2445
16398TIP3    H170685   0.637   4.895  12.358  0.0302 -1.4209  1.4658
16398TIP3    H270686   0.495   4.892  12.411 -0.6122 -0.0775 -0.0775
16399TIP3   OH270687   5.986   2.354   1.056 -0.7971  0.7745 -0.5756
16399TIP3    H170688   5.997   2.440   1.096 -2.0121  1.2945 -1.2946
16399TIP3    H270689   6.045   2.296   1.105  0.8096  2.2074 -0.7311
16400TIP3   OH270690   3.454   5.478  12.381  0.3294  0.7920  0.3260
16400TIP3    H170691   3.438   5.541  12.310  1.0782 -0.9213 -1.4398
16400TIP3    H270692   3.440   5.529  12.461  3.2163  3.9371 -0.8861
16401TIP3   OH270693   6.722   1.739   6.369  0.5032  0.1221  0.1426
16401TIP3    H170694   6.750   1.830   6.373  1.5562 -0.1612 -0.5514
16401TIP3    H270695   6.654   1.732   6.436 -0.8029  1.8193 -0.9357
16402TIP3   OH270696   4.084   6.078  16.876  0.3784  0.1198 -0.1294
16402TIP3    H170697   4.077   5.992  16.919 -1.5636 -0.0952 -0.7771
16402TIP3    H270698   4.075   6.059  16.783 -0.1388  1.0272 -0.2772
16403TIP3   OH270699   2.269   0.799   0.651  0.1921  0.2781  0.1466
16403TIP3    H170700   2.178   0.793   0.678  0.8840 -2.1842  2.2975
16403TIP3    H270701   2.278   0.735   0.581  0.5553 -0.5180  0.9103
16404TIP3   OH270702   2.097   4.056   2.191 -0.0031 -0.4723 -0.3258
16404TIP3    H170703   2.172   4.103   2.227 -0.6421  0.8336 -0.6224
16404TIP3    H270704   2.052   4.020   2.267 -0.0723  0.2984  0.0071
16405TIP3   OH270705   5.104   6.387  14.983  0.2500 -0.6245 -0.7739
16405TIP3    H170706   5.096   6.477  14.952  1.6515 -0.5135 -0.8652
16405TIP3    H270707   5.078   6.334  14.909 -1.0709 -0.3040 -0.5610
16406TIP3   OH270708   5.737   3.413  10.871  0.6166  0.0801  0.0987
16406TIP3    H170709   5.672   3.475  10.838  0.2502  0.8012  2.0026
16406TIP3    H270710   5.820   3.461  10.868  0.9991 -0.6155 -1.7223
16407TIP3   OH270711   4.886   2.885  11.882  0.1681  0.6094 -0.0309
16407TIP3    H170712   4.844   2.947  11.823 -1.5517 -1.7985 -1.5503
16407TIP3    H270713   4.979   2.892  11.861 -0.2732  0.7462 -2.2065
16408TIP3   OH270714   5.433   1.357  12.999  0.6088 -0.2028  1.3893
16408TIP3    H170715   5.466   1.446  13.008  0.3057  0.2125 -0.8518
16408TIP3    H270716   5.492   1.304  13.053  4.0812  0.7385 -1.0441
16409TIP3   OH270717   3.693   3.182   5.359 -0.6118  0.1237 -0.2230
16409TIP3    H170718   3.775   3.214   5.323  0.4444  0.5406  2.3228
16409TIP3    H270719   3.698   3.087   5.350  0.0705  0.1579 -0.2584
16410TIP3   OH270720   4.312   3.569   4.563  0.5068 -0.0489  0.6485
16410TIP3    H170721   4.348   3.482   4.548  1.2747  0.4093 -0.2303
16410TIP3    H270722   4.356   3.599   4.643 -0.0015 -0.5715  1.1431
16411TIP3   OH270723   3.183   5.095  14.899  0.0483  0.5522  0.1049
16411TIP3    H170724   3.134   5.147  14.835  0.2408  1.3461  0.5830
16411TIP3    H270725   3.225   5.161  14.955  1.9617 -0.0648 -0.5005
16412TIP3   OH270726   0.366   6.599  16.079  0.4788 -0.0857 -0.2112
16412TIP3    H170727   0.336   6.653  16.005 -1.1162 -0.0649  0.4212
16412TIP3    H270728   0.369   6.660  16.153  0.3033 -0.4960  0.1372
16413TIP3   OH270729   1.538   3.476   5.444  0.0896  0.2882  0.3611
16413TIP3    H170730   1.541   3.562   5.486 -0.3254  0.4572  0.0417
16413TIP3    H270731   1.620   3.471   5.395  1.5487 -0.7019  2.7233
16414TIP3   OH270732   2.289   5.163   4.123  0.5305  0.5395  0.1318
16414TIP3    H170733   2.298   5.081   4.074 -0.2212 -0.6989  1.9652
16414TIP3    H270734   2.371   5.210   4.106 -0.7902  1.7091 -4.7652
16415TIP3   OH270735   6.310   3.861   6.738  0.4737 -0.0776 -0.0055
16415TIP3    H170736   6.271   3.933   6.788 -0.3561  1.5843 -2.8193
16415TIP3    H270737   6.395   3.893   6.711  1.1150 -1.1444  0.6604
16416TIP3   OH270738   4.285   4.937  13.917  0.3097  0.5362 -0.2350
16416TIP3    H170739   4.297   5.013  13.859 -0.9823  1.6911  0.9182
16416TIP3    H270740   4.237   4.972  13.992  0.2124 -1.3254  0.6282
16417TIP3   OH270741   0.600   1.356   6.398  0.1517 -0.4198  0.5357
16417TIP3    H170742   0.573   1.426   6.458 -0.5940 -0.1436 -0.1108
16417TIP3    H270743   0.691   1.378   6.375 -0.0345  0.2706  0.4426
16418TIP3   OH270744   5.361   6.066  13.753  0.4911 -0.1253 -0.1705
16418TIP3    H170745   5.402   6.065  13.839 -1.2621  2.0309  0.7901
16418TIP3    H270746   5.269   6.048  13.770 -0.1945  1.9020 -1.3345
16419TIP3   OH270747   4.861   3.578   5.365  0.0114  0.5222  0.0600
16419TIP3    H170748   4.866   3.558   5.458 -0.1735  0.7849  0.1274
16419TIP3    H270749   4.783   3.531   5.334 -0.0877  0.6591  0.0979
16420TIP3   OH270750   3.439   1.862   3.126  0.6616 -0.4219  0.1057
16420TIP3    H170751   3.492   1.916   3.184  0.5344 -1.5718  1.3509
16420TIP3    H270752   3.370   1.921   3.095  1.8515  0.7269 -0.4632
16421TIP3   OH270753   4.141   6.304  15.766  0.6446 -0.2994  0.2862
16421TIP3    H170754   4.141   6.349  15.851  1.5861  0.4444 -0.0899
16421TIP3    H270755   4.116   6.371  15.703  0.8955 -0.6033 -0.1439
16422TIP3   OH270756   4.295   6.736   0.431  0.1314  0.1061  0.2323
16422TIP3    H170757   4.371   6.724   0.375 -0.0022 -0.1061  0.0959
16422TIP3    H270758   4.327   6.791   0.503  0.2617  0.5070 -0.1292
16423TIP3   OH270759   1.173   2.115  12.894  0.3342  0.2316 -0.5195
16423TIP3    H170760   1.149   2.056  12.822 -1.3145 -0.0125  0.1866
16423TIP3    H270761   1.211   2.057  12.960 -2.2746 -0.3106  0.6278
16424TIP3   OH270762   6.562   3.726   3.441  0.0924  0.0150 -0.0766
16424TIP3    H170763   6.575   3.660   3.510 -0.0802  0.2851  0.2167
16424TIP3    H270764   6.504   3.683   3.378  0.4688 -0.3320 -0.1916
16425TIP3   OH270765   1.369   6.778  12.524  0.1719 -0.2792  0.3650
16425TIP3    H170766   1.464   6.795  12.526  0.4640 -1.7718  0.8520
16425TIP3    H270767   1.343   6.778  12.616 -0.5189  1.0522  0.1980
16426TIP3   OH270768   2.209   3.952  11.568  0.2704 -0.0400  0.5536
16426TIP3    H170769   2.285   3.985  11.520 -0.7527  0.9556 -0.4151
16426TIP3    H270770   2.215   3.994  11.654 -0.1743  1.5278 -0.1456
16427TIP3   OH270771   4.270   5.165  13.748  0.3310 -0.3049 -0.0709
16427TIP3    H170772   4.252   5.143  13.657 -0.6355 -1.5456  0.3767
16427TIP3    H270773   4.242   5.256  13.757  3.8693  1.1615 -1.8581
16428TIP3   OH270774   3.981   4.733  12.470 -0.3515 -0.1906  0.5349
16428TIP3    H170775   4.045   4.797  12.502  0.4615 -1.2940  1.2183
16428TIP3    H270776   4.010   4.712  12.381 -1.1777  1.0647 -0.0540
16429TIP3   OH270777   2.091   6.333  16.156  0.1214 -0.0969  0.1990
16429TIP3    H170778   2.074   6.252  16.205 -1.2320  0.3200  0.4602
16429TIP3    H270779   2.079   6.308  16.065  1.7702 -0.6608  0.0919
16430TIP3   OH270780   1.217   0.834  13.727 -0.1765 -0.2957  0.0166
16430TIP3    H170781   1.193   0.761  13.784 -1.4307 -0.6042 -0.8496
16430TIP3    H270782   1.286   0.799  13.671  0.1889 -0.3772  0.5141
16431TIP3   OH270783   4.265   0.694  15.998  0.2019 -0.2127 -0.0445
16431TIP3    H170784   4.304   0.659  16.078 -0.5820  1.0486  0.9341
16431TIP3    H270785   4.201   0.759  16.029 -0.7421 -0.3071 -1.6660
16432TIP3   OH270786   1.869   0.236  13.948 -0.2542  0.2311 -0.2096
16432TIP3    H170787   1.783   0.245  13.990  0.0890 -1.5866  0.9539
16432TIP3    H270788   1.849   0.230  13.854 -1.3011  0.8986 -0.0446
16433TIP3   OH270789   4.676   4.796  11.584  0.4849 -0.0760  0.0116
16433TIP3    H170790   4.769   4.777  11.572  0.4500 -0.7257  0.6931
16433TIP3    H270791   4.633   4.712  11.571  0.1209 -0.0565  1.0411
16434TIP3   OH270792   2.518   3.441   0.159  0.1065 -0.8889 -0.2371
16434TIP3    H170793   2.575   3.428   0.235 -0.8976 -3.4876  0.1633
16434TIP3    H270794   2.574   3.485   0.094  1.1282  0.9379  1.7600
16435TIP3   OH270795   0.674   0.412   4.029 -0.4676 -0.0096 -0.1455
16435TIP3    H170796   0.698   0.340   4.088  1.0314  0.2321 -0.4246
16435TIP3    H270797   0.757   0.455   4.009 -1.1119  0.6681 -1.4667
16436TIP3   OH270798   1.878   4.620  15.687  0.1618  0.1190 -0.5006
16436TIP3    H170799   1.926   4.634  15.769  0.2908 -0.7349 -0.4233
16436TIP3    H270800   1.945   4.629  15.618  0.1274  0.4586 -0.4905
16437TIP3   OH270801   6.023   0.696  12.925 -0.3974  0.7582 -0.0469
16437TIP3    H170802   5.996   0.762  12.862 -1.2121  0.6259  0.1481
16437TIP3    H270803   6.117   0.688  12.913 -0.1985  2.3303  0.2930
16438TIP3   OH270804   1.717   4.290   2.645  0.2284  0.2216 -0.1753
16438TIP3    H170805   1.689   4.324   2.560  1.4600 -0.7193 -0.9777
16438TIP3    H270806   1.801   4.248   2.628  0.2751 -0.3944  1.4231
16439TIP3   OH270807   0.457   0.453  16.084  0.4757  0.7986  0.8573
16439TIP3    H170808   0.458   0.541  16.122  1.0535  1.2981 -0.2658
16439TIP3    H270809   0.387   0.456  16.018  0.1281  0.2361  1.1852
16440TIP3   OH270810   6.599   4.025  12.656  0.1856  0.2582  0.6577
16440TIP3    H170811   6.688   4.037  12.624 -0.2310 -0.4530 -0.9135
16440TIP3    H270812   6.551   3.992  12.580 -0.7073 -2.4176  2.2512
16441TIP3   OH270813   2.048   2.439  16.383  0.1648 -1.0788 -0.7971
16441TIP3    H170814   2.009   2.501  16.321  0.0155 -0.6676 -0.2945
16441TIP3    H270815   2.002   2.357  16.366  0.4156 -1.0763 -1.5143
16442TIP3   OH270816   2.004   1.405  12.758 -0.4278 -0.1148  0.0236
16442TIP3    H170817   2.032   1.495  12.774 -0.6369 -0.2019  0.9569
16442TIP3    H270818   2.011   1.362  12.844  0.8479 -1.3154 -0.6392
16443TIP3   OH270819   6.157   5.857   4.577 -0.0515 -0.0046 -0.2998
16443TIP3    H170820   6.197   5.939   4.549 -2.4064  1.5467  0.5460
16443TIP3    H270821   6.222   5.816   4.633  0.7516  1.8677  0.2033
16444TIP3   OH270822   3.186   1.121  15.449 -0.6842 -0.2278 -0.1998
16444TIP3    H170823   3.253   1.157  15.506 -0.4232 -3.2005  1.6371
16444TIP3    H270824   3.234   1.084  15.375 -0.4584 -0.6681  0.1581
16445TIP3   OH270825   2.851   4.315   1.668 -0.1606 -0.2858  0.3188
16445TIP3    H170826   2.946   4.319   1.659 -0.3859  0.1801 -3.0283
16445TIP3    H270827   2.827   4.234   1.623 -1.3158 -1.0560  2.2152
16446TIP3   OH270828   1.996   3.524   6.066  0.0828  0.7584 -0.1259
16446TIP3    H170829   2.054   3.448   6.067 -0.8173  0.0202  2.1959
16446TIP3    H270830   1.951   3.519   5.982 -0.9090 -2.0803  0.4551
16447TIP3   OH270831   5.351   2.933  11.618  0.0830  0.2464 -0.0542
16447TIP3    H170832   5.408   3.004  11.589  1.6621 -0.3852  1.2988
16447TIP3    H270833   5.334   2.882  11.539  2.7626 -0.4290 -0.3079
16448TIP3   OH270834   5.849   6.809   5.124  0.3626 -0.2379  0.0014
16448TIP3    H170835   5.793   6.834   5.050  0.4233 -0.0554  0.0159
16448TIP3    H270836   5.938   6.828   5.095  0.5739 -2.0145 -0.6270
16449TIP3   OH270837   4.777   0.606   5.891  0.0786 -0.7722  0.0627
16449TIP3    H170838   4.805   0.607   5.800  2.7258 -0.1699  0.8004
16449TIP3    H270839   4.713   0.678   5.897  2.1987  1.3230 -0.7397
16450TIP3   OH270840   6.136   2.866  16.254 -0.5193  0.5280  0.1015
16450TIP3    H170841   6.227   2.848  16.280 -0.0197  0.0189 -1.8704
16450TIP3    H270842   6.086   2.854  16.335  1.1407  0.6855  1.2033
16451TIP3   OH270843   4.590   6.729  15.348 -0.6265 -0.0205  0.0254
16451TIP3    H170844   4.684   6.718  15.337 -0.4298 -0.0233  1.4293
16451TIP3    H270845   4.559   6.642  15.373 -0.9817  0.0118 -0.3019
16452TIP3   OH270846   3.677   5.076   2.635 -0.3575  0.0654  0.0175
16452TIP3    H170847   3.610   5.137   2.605  0.4561  1.3589  0.7317
16452TIP3    H270848   3.743   5.131   2.676  0.8217 -1.2312 -0.0495
16453TIP3   OH270849   2.097   5.724  14.712  0.3126 -0.0438 -0.4516
16453TIP3    H170850   2.133   5.801  14.668  0.1669 -0.0176 -0.5283
16453TIP3    H270851   2.120   5.650  14.655 -1.5118  0.1952 -1.5976
16454TIP3   OH270852   1.057   0.671  12.326 -0.2684  0.0248 -0.0660
16454TIP3    H170853   1.058   0.707  12.415 -1.2898  1.3248 -0.5319
16454TIP3    H270854   1.055   0.577  12.338 -3.3642  0.1567  1.4397
16455TIP3   OH270855   0.579   2.083   0.380  0.5184  0.2754  0.0963
16455TIP3    H170856   0.488   2.055   0.386  0.4315  0.7372  1.3857
16455TIP3    H270857   0.584   2.134   0.300 -0.5625  0.9115  0.4120
16456TIP3   OH270858   2.808   4.310  14.279  0.2731 -0.2460 -0.3673
16456TIP3    H170859   2.763   4.229  14.301 -0.6205  0.0431 -1.1028
16456TIP3    H270860   2.880   4.283  14.222  1.3732 -0.7653  1.2065
16457TIP3   OH270861   6.812   6.803   0.744  0.0982  0.4790  0.5185
16457TIP3    H170862   6.890   6.846   0.709 -0.6551  1.0781 -0.4942
16457TIP3    H270863   6.741   6.864   0.724 -1.0219 -1.2473 -1.0185
16458TIP3   OH270864   4.907   6.039  16.602 -0.0363  0.0548  0.8612
16458TIP3    H170865   4.822   6.008  16.572  0.5768 -1.0682  0.2514
16458TIP3    H270866   4.887   6.087  16.683 -1.3354  0.5165  0.3021
16459TIP3   OH270867   4.610   2.201  16.472 -0.1258  0.2766  0.0444
16459TIP3    H170868   4.583   2.153  16.551 -0.0676  1.9243  1.1245
16459TIP3    H270869   4.628   2.290  16.503  0.2168  0.8967 -1.7935
16460TIP3   OH270870   5.366   3.949   1.476  0.0955  0.3316  0.4059
16460TIP3    H170871   5.314   3.873   1.500 -0.9413  1.2686  1.2362
16460TIP3    H270872   5.442   3.913   1.430  1.0979 -1.4285  3.2065
16461TIP3   OH270873   6.626   3.606   6.411 -0.5808  0.9120 -0.0415
16461TIP3    H170874   6.566   3.680   6.421  0.3775  1.6807  0.1861
16461TIP3    H270875   6.662   3.616   6.323  0.0456  1.1008  0.2333
16462TIP3   OH270876   3.752   1.470  14.643  0.3454 -0.0331  0.6801
16462TIP3    H170877   3.801   1.392  14.670  2.4429  0.7832 -0.4713
16462TIP3    H270878   3.806   1.509  14.574 -0.1413  2.9464  1.8234
16463TIP3   OH270879   5.324   1.769   4.654  0.1243 -0.0392 -0.0266
16463TIP3    H170880   5.271   1.741   4.728  0.7405 -0.3886  0.2851
16463TIP3    H270881   5.340   1.862   4.669  0.3954 -0.1504  0.3669
16464TIP3   OH270882   6.687   2.701   4.176 -0.3999 -0.7553 -0.0215
16464TIP3    H170883   6.724   2.630   4.227  2.1482  0.7487  0.4248
16464TIP3    H270884   6.752   2.771   4.182 -1.6603  0.7652 -2.3984
16465TIP3   OH270885   5.338   4.859  16.558  0.1188 -0.0006  0.2804
16465TIP3    H170886   5.290   4.783  16.525 -0.3564  0.5078 -0.2197
16465TIP3    H270887   5.426   4.850  16.522  0.5875 -1.2365  1.6551
16466TIP3   OH270888   0.174   0.281   1.588 -0.3104  0.1156 -0.3645
16466TIP3    H170889   0.218   0.362   1.561  1.7597 -0.6143  0.6551
16466TIP3    H270890   0.133   0.249   1.507  3.8748 -0.8827 -2.3222
16467TIP3   OH270891   2.318   1.461  12.812  0.0084  0.0809 -0.3535
16467TIP3    H170892   2.322   1.374  12.852 -0.6298 -0.2795 -1.0255
16467TIP3    H270893   2.275   1.516  12.877 -0.5382 -0.3655 -0.3266
16468TIP3   OH270894   5.944   5.509   2.615 -0.0985  0.1147  0.1967
16468TIP3    H170895   5.914   5.556   2.538 -2.2496 -0.7100  0.4418
16468TIP3    H270896   6.012   5.450   2.582 -1.7567 -1.0593 -1.3783
16469TIP3   OH270897   3.855   1.733   6.001 -0.0449  0.3950 -0.2622
16469TIP3    H170898   3.860   1.638   5.994 -1.2127  0.3125 -0.0825
16469TIP3    H270899   3.871   1.764   5.912  0.4198  0.0450 -0.3068
16470TIP3   OH270900   2.578   2.678  12.747  0.1848 -0.4400 -0.5448
16470TIP3    H170901   2.617   2.592  12.760  1.1301  0.1064  0.3595
16470TIP3    H270902   2.612   2.707  12.663 -0.6305 -1.1861 -1.1566
16471TIP3   OH270903   3.120   4.196   2.569 -0.7190  0.3606  0.2554
16471TIP3    H170904   3.183   4.265   2.590 -0.1207  0.2468 -1.0855
16471TIP3    H270905   3.161   4.115   2.599 -0.3125  0.3130 -0.4121
16472TIP3   OH270906   3.979   4.513   3.454 -0.2450  0.2068 -0.9755
16472TIP3    H170907   4.035   4.580   3.494  1.0162 -0.8382 -0.9188
16472TIP3    H270908   3.945   4.555   3.375 -1.9668  1.9486  0.5875
16473TIP3   OH270909   6.455   5.976   4.280 -0.5887  0.5564  0.3387
16473TIP3    H170910   6.520   5.930   4.333  0.0122 -0.1937 -1.0019
16473TIP3    H270911   6.469   6.068   4.299 -0.1622  0.3213  1.2200
16474TIP3   OH270912   4.880   3.938   4.724 -0.0649 -1.0553 -0.1224
16474TIP3    H170913   4.914   3.935   4.634  0.0411 -1.5325 -0.0723
16474TIP3    H270914   4.917   3.860   4.766 -0.5712 -1.1430  0.1724
16475TIP3   OH270915   2.339   5.336   3.807  0.2066 -0.0655 -0.2500
16475TIP3    H170916   2.329   5.429   3.791 -0.9988 -0.5055 -2.4411
16475TIP3    H270917   2.368   5.300   3.723 -0.6736 -1.8362  0.1579
16476TIP3   OH270918   1.379   2.582  16.041  0.1869  0.7319  0.6047
16476TIP3    H170919   1.396   2.501  16.089 -3.0886  0.5193  1.6337
16476TIP3    H270920   1.364   2.648  16.109 -1.2336  1.2205 -0.1415
16477TIP3   OH270921   4.131   1.659   3.856  0.2398 -0.1000  0.1014
16477TIP3    H170922   4.103   1.738   3.902 -1.3849  0.8418 -2.3043
16477TIP3    H270923   4.186   1.691   3.785  0.5256 -1.2570 -0.2291
16478TIP3   OH270924   5.543   4.445   5.413 -0.7413  0.6011 -0.0960
16478TIP3    H170925   5.563   4.370   5.359 -0.3841  0.3693  0.3505
16478TIP3    H270926   5.625   4.494   5.418 -0.2467 -0.2967  1.6533
16479TIP3   OH270927   0.142   6.048   0.047 -0.9601 -0.2111  0.6729
16479TIP3    H170928   0.124   6.044   0.141  1.1238  1.7066  1.2354
16479TIP3    H270929   0.213   5.986   0.033 -0.0906  0.7359  0.7363
16480TIP3   OH270930   2.235   4.763  12.785 -0.0800 -0.0854 -0.5893
16480TIP3    H170931   2.310   4.764  12.846 -0.9937  1.2548  0.5720
16480TIP3    H270932   2.216   4.670  12.774  2.9688 -0.6305 -2.5326
16481TIP3   OH270933   1.713   1.144   1.706  0.0805  0.9136 -0.4099
16481TIP3    H170934   1.695   1.062   1.661  1.0232 -0.5435  1.6955
16481TIP3    H270935   1.636   1.199   1.690 -2.2080 -1.6876  0.9425
16482TIP3   OH270936   1.099   1.805  15.214 -0.8869 -0.1549 -0.0555
16482TIP3    H170937   1.083   1.830  15.305 -0.9917  0.3126 -0.2006
16482TIP3    H270938   1.050   1.869  15.162  1.3663  1.3295 -0.5150
16483TIP3   OH270939   2.939   3.774  15.015  0.1147  0.3750 -0.3535
16483TIP3    H170940   3.019   3.805  15.056 -0.7501  0.3337  1.4362
16483TIP3    H270941   2.941   3.679  15.025 -2.1396  0.5652  3.7741
16484TIP3   OH270942   3.651   4.746  12.362 -0.0187  0.0448 -0.0817
16484TIP3    H170943   3.664   4.840  12.371  0.7186 -0.0426 -0.2176
16484TIP3    H270944   3.559   4.737  12.335 -0.1779  0.7005  0.2289
16485TIP3   OH270945   5.417   2.404   2.136 -0.4157  0.1762  0.4732
16485TIP3    H170946   5.437   2.311   2.132  1.0980  0.2648  3.4669
16485TIP3    H270947   5.408   2.423   2.229  0.0378  3.1763  0.0085
16486TIP3   OH270948   2.359   4.499   5.216 -0.7982 -0.2140  0.1990
16486TIP3    H170949   2.431   4.548   5.255 -0.4453 -1.0834  0.6660
16486TIP3    H270950   2.396   4.461   5.136 -0.9748  0.0088  0.0097
16487TIP3   OH270951   5.302   3.307  14.571 -0.6583 -0.0480 -0.3854
16487TIP3    H170952   5.389   3.298  14.532 -0.6114  0.4619 -0.4110
16487TIP3    H270953   5.254   3.229  14.543  1.0928 -2.6613  3.0899
16488TIP3   OH270954   0.874   0.871   1.607 -0.4249  0.4901  0.0697
16488TIP3    H170955   0.804   0.933   1.629  0.1376  1.2854 -0.3165
16488TIP3    H270956   0.845   0.830   1.525 -0.5978  0.5734  0.0894
16489TIP3   OH270957   6.629   4.276   4.858 -0.5502 -0.8226  0.0815
16489TIP3    H170958   6.596   4.358   4.821 -0.9046 -0.3120  1.4712
16489TIP3    H270959   6.574   4.260   4.935  1.2976 -0.8344  1.4831
16490TIP3   OH270960   4.050   2.690   3.394 -0.3231 -0.1787  0.4647
16490TIP3    H170961   4.092   2.681   3.480 -0.6074 -1.3652  0.5003
16490TIP3    H270962   3.985   2.759   3.406 -0.3254 -0.2988  1.1846
16491TIP3   OH270963   4.923   5.995   4.363 -0.6599 -0.2658 -0.1518
16491TIP3    H170964   4.839   6.022   4.400 -1.2250 -2.0437 -0.0450
16491TIP3    H270965   4.974   5.966   4.438 -0.1656  0.2122 -0.2949
16492TIP3   OH270966   5.072   0.253   0.864 -0.0349  0.5279  0.0108
16492TIP3    H170967   5.009   0.309   0.910  0.0351  1.6227 -1.1864
16492TIP3    H270968   5.129   0.219   0.933  0.1842  2.2794  0.7355
16493TIP3   OH270969   3.319   6.792  12.025 -0.2184  0.2510  0.1762
16493TIP3    H170970   3.389   6.749  12.075 -0.9716  0.0392  1.0765
16493TIP3    H270971   3.297   6.870  12.076  1.2995  1.9225 -1.5535
16494TIP3   OH270972   5.114   5.064   1.130 -0.0419 -0.2713  0.6243
16494TIP3    H170973   5.139   5.075   1.039 -2.0168  0.2810  0.1051
16494TIP3    H270974   5.129   4.971   1.148  0.0377 -0.4526 -0.3508
16495TIP3   OH270975   2.419   6.541   6.108  0.0147 -0.0952  0.3759
16495TIP3    H170976   2.435   6.591   6.187  0.8470 -0.4728  0.4535
16495TIP3    H270977   2.334   6.499   6.123 -0.2225  0.5040  0.7129
16496TIP3   OH270978   1.796   2.727  13.162 -0.3847 -0.1917  0.2063
16496TIP3    H170979   1.798   2.723  13.066 -2.3696 -0.0618  0.1209
16496TIP3    H270980   1.839   2.810  13.183 -1.7630  0.8130 -0.7190
16497TIP3   OH270981   1.231   6.708  10.255  0.4340 -0.4979 -0.1088
16497TIP3    H170982   1.226   6.677  10.164  1.5031 -1.4638  0.1432
16497TIP3    H270983   1.189   6.639  10.306 -1.0859  0.5063  0.0706
16498TIP3   OH270984   4.645   2.038   3.079  0.2235  0.3337 -0.0451
16498TIP3    H170985   4.704   2.050   3.004 -1.4942  2.0233 -1.2134
16498TIP3    H270986   4.562   2.012   3.040 -0.3997  0.1167  1.3948
16499TIP3   OH270987   4.932   5.989  14.980  0.5584 -0.4203  0.0764
16499TIP3    H170988   5.013   5.938  14.972  0.4996 -0.6420  0.8676
16499TIP3    H270989   4.936   6.028  15.067 -0.7956 -1.5080  0.6618
16500TIP3   OH270990   2.915   1.048  12.856  0.3082 -0.2742 -0.0163
16500TIP3    H170991   2.914   1.100  12.777 -1.0066 -1.0176 -0.5245
16500TIP3    H270992   2.998   1.000  12.853 -0.7770 -2.1650 -2.2401
16501TIP3   OH270993   4.594   4.728  15.820  0.3318  0.2975 -0.0856
16501TIP3    H170994   4.555   4.806  15.782 -0.1792  0.0047 -0.1628
16501TIP3    H270995   4.686   4.751  15.831 -0.2063  1.7533  2.0215
16502TIP3   OH270996   5.978   6.718  16.011 -0.1243  0.0854 -0.1864
16502TIP3    H170997   5.931   6.703  15.929 -0.7451  0.7824  0.0274
16502TIP3    H270998   6.063   6.752  15.983 -0.5161  0.8017 -0.5476
16503TIP3   OH270999   5.357   1.951   1.542 -0.7228  0.1841 -0.0491
16503TIP3    H171000   5.444   1.957   1.502 -1.1366  1.1636 -0.8713
16503TIP3    H271001   5.368   1.986   1.630 -0.4979  1.4292 -0.5504
16504TIP3   OH271002   6.153   3.180   6.075  0.4375  0.9002  0.5460
16504TIP3    H171003   6.103   3.130   6.139  1.0246  0.2943  0.5373
16504TIP3    H271004   6.101   3.259   6.060 -1.2956 -0.3842 -0.6056
16505TIP3   OH271005   1.784   5.109   3.604 -0.1162 -0.1283  0.2400
16505TIP3    H171006   1.863   5.063   3.633  0.5345  0.2925 -0.7797
16505TIP3    H271007   1.752   5.154   3.682  0.3926 -0.6709  0.7737
16506TIP3   OH271008   1.780   2.380  11.013  0.2473  0.6222 -0.0216
16506TIP3    H171009   1.726   2.313  11.055  0.8040  0.5183  0.5486
16506TIP3    H271010   1.775   2.360  10.920 -0.1329  0.1977  0.0853
16507TIP3   OH271011   6.005   1.675   2.901  0.3508 -0.1468  0.5628
16507TIP3    H171012   6.076   1.698   2.840  1.0807 -0.8944  1.1146
16507TIP3    H271013   5.940   1.632   2.845  0.6191 -0.0442  0.1599
16508TIP3   OH271014   0.408   5.887   4.237 -0.4587  0.0402  0.1098
16508TIP3    H171015   0.465   5.818   4.271  0.0121  0.4453  0.1449
16508TIP3    H271016   0.368   5.849   4.159  2.2135  0.7675 -1.7626
16509TIP3   OH271017   3.456   5.713   1.380  0.5269  0.6455  0.2418
16509TIP3    H171018   3.485   5.768   1.308  0.4431  0.1884 -0.1415
16509TIP3    H271019   3.400   5.647   1.340  0.6221  0.2779  0.6995
16510TIP3   OH271020   4.081   5.925   4.499  0.0044 -0.4838  0.4073
16510TIP3    H171021   4.012   5.860   4.494 -0.9247  0.4042  1.3076
16510TIP3    H271022   4.088   5.946   4.592  0.5013  0.4673  0.1664
16511TIP3   OH271023   2.652   0.855  15.189  0.3053  0.1883 -0.0243
16511TIP3    H171024   2.688   0.792  15.127  0.5295  1.5483 -1.3337
16511TIP3    H271025   2.687   0.828  15.274 -2.1505 -3.3768  0.0880
16512TIP3   OH271026   2.515   6.562   0.404 -0.1226 -0.2785  0.3132
16512TIP3    H171027   2.494   6.519   0.321 -0.6985 -0.4199  0.5292
16512TIP3    H271028   2.430   6.587   0.440  0.1948  1.0876  0.1741
16513TIP3   OH271029   6.115   1.450   3.724  0.6536 -0.0718  0.1829
16513TIP3    H171030   6.174   1.520   3.750 -0.8225  0.9250  0.9755
16513TIP3    H271031   6.065   1.486   3.651  0.1576 -0.4451  0.3336
16514TIP3   OH271032   0.199   2.760   0.961 -0.2419  0.2870 -0.3684
16514TIP3    H171033   0.203   2.841   1.012 -0.9370  0.8402 -1.1717
16514TIP3    H271034   0.229   2.692   1.022  2.6243  1.4146 -0.3519
16515TIP3   OH271035   1.485   4.464   2.743  0.0930 -0.6264  0.0401
16515TIP3    H171036   1.433   4.395   2.782 -0.9527 -0.7510 -1.4918
16515TIP3    H271037   1.530   4.422   2.670  1.0849 -0.1480  0.3577
16516TIP3   OH271038   3.922   2.139   4.366 -0.2013 -0.8721 -0.1916
16516TIP3    H171039   3.899   2.221   4.411  0.4888  0.2273 -1.7671
16516TIP3    H271040   3.861   2.075   4.402 -1.0020  0.3975  0.8248
16517TIP3   OH271041   3.621   3.993  15.160 -0.1968  0.0292 -0.1629
16517TIP3    H171042   3.588   4.051  15.229 -1.2535 -0.1471 -0.5097
16517TIP3    H271043   3.691   3.944  15.202 -0.6299  0.1345  0.7047
16518TIP3   OH271044   5.941   2.564  11.950  0.1241 -0.0814  0.4145
16518TIP3    H171045   5.888   2.625  12.001  0.0930  1.2144 -1.0929
16518TIP3    H271046   6.030   2.574  11.984 -0.2448 -0.8918  1.6868
16519TIP3   OH271047   1.056   4.863  17.005  0.1490 -0.4013 -0.1959
16519TIP3    H171048   1.015   4.789  16.961 -0.9729 -0.4570  0.8836
16519TIP3    H271049   0.995   4.936  16.992  1.2722  0.3694 -1.3010
16520TIP3   OH271050   1.167   6.685  11.008  0.0010  0.4689 -0.3309
16520TIP3    H171051   1.218   6.766  11.017  0.2249  0.1380  2.6019
16520TIP3    H271052   1.083   6.706  11.049 -0.4479 -0.3881 -0.8053
16521TIP3   OH271053   0.513   4.126  11.012  0.6373 -0.1304  0.6322
16521TIP3    H171054   0.600   4.147  10.978  0.2998  0.5605  0.1702
16521TIP3    H271055   0.529   4.066  11.085  1.5183  0.3171  0.8115
16522TIP3   OH271056   5.629   6.303   2.771  0.3152  0.2045 -0.2560
16522TIP3    H171057   5.545   6.340   2.800  1.2331  0.6866  2.0347
16522TIP3    H271058   5.622   6.210   2.789 -0.6117 -0.2403 -2.5186
16523TIP3   OH271059   6.136   5.640   3.021  0.0661  0.3923 -0.1701
16523TIP3    H171060   6.075   5.701   3.063 -0.0595 -0.8988  1.6174
16523TIP3    H271061   6.082   5.566   2.994  0.7226 -0.5740  1.0482
16524TIP3   OH271062   0.903   4.338   3.797 -0.3124  0.0503  0.2981
16524TIP3    H171063   0.908   4.423   3.841  0.7061  0.7519 -1.0914
16524TIP3    H271064   0.953   4.350   3.717 -0.6250 -1.7150 -0.1977
16525TIP3   OH271065   6.055   0.583  11.268 -0.0834 -0.0716  0.0120
16525TIP3    H171066   6.005   0.605  11.346  0.9258  2.2118  0.0827
16525TIP3    H271067   5.989   0.558  11.203 -1.0187 -0.7322  1.1874
16526TIP3   OH271068   2.549   0.354  13.870 -0.3956  0.5985  0.2731
16526TIP3    H171069   2.477   0.416  13.861  0.7024  1.9538  0.3924
16526TIP3    H271070   2.555   0.312  13.784 -1.4993  0.2539  0.3533
16527TIP3   OH271071   5.257   5.752  13.759  0.3705 -0.2232 -0.3438
16527TIP3    H171072   5.183   5.812  13.748  0.5092  0.0227  0.0559
16527TIP3    H271073   5.271   5.715  13.672  0.8675  0.9957 -0.7999
16528TIP3   OH271074   0.160   4.281  14.885  0.3723 -0.1682  0.6971
16528TIP3    H171075   0.190   4.350  14.944 -1.0046  1.6023 -0.5708
16528TIP3    H271076   0.163   4.320  14.798 -1.3690 -1.3681  0.0292
16529TIP3   OH271077   3.076   5.638   3.447  0.4321  0.1081  0.0593
16529TIP3    H171078   3.103   5.667   3.360  0.6210 -0.6193 -0.1287
16529TIP3    H271079   3.124   5.696   3.507  0.1247  0.7632 -0.3138
16530TIP3   OH271080   3.454   0.010   3.303  1.2287  0.6575 -0.1539
16530TIP3    H171081   3.415   0.094   3.328 -0.2369  0.1672 -0.6891
16530TIP3    H271082   3.419  -0.008   3.216  2.2923 -0.0613 -0.4607
16531TIP3   OH271083   2.774   1.692  13.348 -0.2085  0.2242 -0.0466
16531TIP3    H171084   2.793   1.694  13.254  0.0685  0.5897  0.0165
16531TIP3    H271085   2.857   1.669  13.389 -0.2391  0.4328  0.1341
16532TIP3   OH271086   0.962   3.427   1.950  0.5735  0.0431 -0.0237
16532TIP3    H171087   0.902   3.458   1.882 -1.6111  0.0487  1.7966
16532TIP3    H271088   0.909   3.366   2.002  1.3058  1.9029  3.1545
16533TIP3   OH271089   4.007   1.570   0.606  0.0152  0.2254  0.0850
16533TIP3    H171090   4.038   1.661   0.607 -0.3389  0.3472  0.1150
16533TIP3    H271091   3.950   1.564   0.683 -0.5195  0.1747 -0.3156
16534TIP3   OH271092   0.938   2.661   3.241 -0.2417 -0.1818 -0.6108
16534TIP3    H171093   0.949   2.622   3.154 -2.0902 -1.1374 -0.4784
16534TIP3    H271094   0.860   2.715   3.234 -0.5970 -0.5050  0.5035
16535TIP3   OH271095   4.230   5.084   0.408  0.7732  0.3294  0.0395
16535TIP3    H171096   4.231   5.007   0.465 -1.4143  0.1397 -0.0853
16535TIP3    H271097   4.295   5.143   0.447  0.1253 -0.2312  2.1336
16536TIP3   OH271098   1.246   0.973  15.431 -0.6536  0.1055 -0.3325
16536TIP3    H171099   1.320   0.947  15.375 -0.7681  1.1992 -1.0154
16536TIP3    H271100   1.272   1.057  15.467 -0.8385 -0.3195  0.8180
16537TIP3   OH271101   4.074   4.522   6.290 -0.1110  0.0096 -0.7530
16537TIP3    H171102   4.094   4.597   6.234  2.3035  1.6273  2.0238
16537TIP3    H271103   4.140   4.457   6.266 -0.7307 -0.3479 -1.5359
16538TIP3   OH271104   4.587   3.606   5.475 -0.0663  0.1680 -0.0019
16538TIP3    H171105   4.536   3.525   5.480  1.9741 -1.1224  2.2018
16538TIP3    H271106   4.534   3.665   5.422 -1.6318 -2.6042 -1.7259
16539TIP3   OH271107   1.726   5.546   0.574  0.4485 -0.7929 -0.6253
16539TIP3    H171108   1.767   5.461   0.589 -1.1914 -1.5096  0.0713
16539TIP3    H271109   1.726   5.588   0.660  2.9203  0.7754 -1.2847
16540TIP3   OH271110   3.751   5.203   5.084  0.1505  0.1847  0.0412
16540TIP3    H171111   3.817   5.200   5.015 -0.3266 -1.7652 -0.3928
16540TIP3    H271112   3.744   5.112   5.114  0.1605  0.9408  2.4948
16541TIP3   OH271113   4.937   3.993  13.904  0.4642  0.0667  0.4370
16541TIP3    H171114   4.910   3.951  13.822  2.3851  0.5733 -0.5043
16541TIP3    H271115   4.954   3.920  13.964  1.2409 -0.4076 -0.3460
16542TIP3   OH271116   3.533   6.177  14.922 -0.0362  0.7096 -0.1815
16542TIP3    H171117   3.590   6.187  14.999 -0.9028  0.5454  0.4907
16542TIP3    H271118   3.485   6.260  14.917 -0.3185  0.5410 -0.2763
16543TIP3   OH271119   1.950   2.571   5.675  0.0073  0.4077  0.6638
16543TIP3    H171120   2.023   2.604   5.623 -0.2837 -0.7728 -0.5506
16543TIP3    H271121   1.884   2.641   5.670  1.2461  1.7632  2.3197
16544TIP3   OH271122   0.446   6.583   1.217 -0.7376  0.2181  0.2495
16544TIP3    H171123   0.405   6.668   1.233 -1.0840 -0.0939  1.0636
16544TIP3    H271124   0.378   6.519   1.240  0.0287 -0.3004  1.1515
16545TIP3   OH271125   6.589   5.202   0.069  0.2708 -0.1104  0.1907
16545TIP3    H171126   6.515   5.157   0.027  1.2070 -0.5361 -1.0663
16545TIP3    H271127   6.633   5.134   0.119 -1.4335  0.6009  2.8451
16546TIP3   OH271128   4.736   2.959  12.175 -0.2171 -0.0479  0.4636
16546TIP3    H171129   4.791   2.937  12.100 -0.6949  1.2248 -0.2947
16546TIP3    H271130   4.787   3.023  12.225 -0.0987 -0.5347  0.9792
16547TIP3   OH271131   0.926   6.533   4.238 -0.4115 -0.0623 -0.1483
16547TIP3    H171132   0.973   6.582   4.305  0.8631 -1.2578 -0.1277
16547TIP3    H271133   0.993   6.504   4.176 -1.4007 -0.0297 -1.2980
16548TIP3   OH271134   4.651   4.209  15.366 -0.3894  0.2843  0.0380
16548TIP3    H171135   4.652   4.300  15.397 -1.0484  0.5796 -0.7593
16548TIP3    H271136   4.695   4.159  15.435  0.1295  1.2328  0.4099
16549TIP3   OH271137   3.432   6.070  13.993  0.0716 -0.6688 -0.0921
16549TIP3    H171138   3.412   6.081  14.086 -1.8468 -0.0384 -0.5183
16549TIP3    H271139   3.493   6.141  13.973 -0.2796 -0.1883  0.4925
16550TIP3   OH271140   0.085   4.553   3.377  0.6478 -0.0297 -0.8776
16550TIP3    H171141   0.028   4.527   3.304 -0.6837  1.0507 -0.2742
16550TIP3    H271142   0.056   4.642   3.398  2.2837  0.3826 -0.2425
16551TIP3   OH271143   1.638   6.379  16.049  0.2018  0.3073 -0.4607
16551TIP3    H171144   1.692   6.359  15.973  1.3990  0.7578  0.2457
16551TIP3    H271145   1.669   6.464  16.080  0.7579 -0.5018  1.3791
16552TIP3   OH271146   6.109   2.461  16.675  0.3154  0.4882 -0.3866
16552TIP3    H171147   6.187   2.464  16.730 -0.2608 -0.5523  0.5402
16552TIP3    H271148   6.066   2.546  16.689  1.9426  1.6625 -2.0048
16553TIP3   OH271149   3.997   3.639   3.611 -0.0771 -0.2469  0.1671
16553TIP3    H171150   4.085   3.600   3.616  0.1364  0.3699  2.4260
16553TIP3    H271151   3.942   3.570   3.575  1.0018 -1.3205  0.5111
16554TIP3   OH271152   0.781   1.562   0.880 -0.0399 -0.2408  0.0083
16554TIP3    H171153   0.734   1.606   0.951 -2.5896  0.4069 -1.9184
16554TIP3    H271154   0.767   1.469   0.897  0.8452 -0.1788  1.2251
16555TIP3   OH271155   6.612   2.567  12.929 -0.3780 -0.4530  0.0129
16555TIP3    H171156   6.616   2.586  12.835  0.6248  0.0361  0.1356
16555TIP3    H271157   6.693   2.518  12.947  0.7718  1.6607  1.0466
16556TIP3   OH271158   0.001   1.009  16.518  0.5946  0.2204  0.1262
16556TIP3    H171159   0.051   0.966  16.587  1.8451  1.1838 -0.1420
16556TIP3    H271160  -0.055   1.071  16.565 -0.3035 -0.7878  0.4199
16557TIP3   OH271161   2.417   4.688  11.539 -0.4590 -0.1707  0.1424
16557TIP3    H171162   2.413   4.766  11.484  0.1018  1.4634  2.3149
16557TIP3    H271163   2.501   4.647  11.517 -1.7639 -1.6324 -2.7411
16558TIP3   OH271164   3.779   3.762   1.264  0.2066 -0.3413 -0.5722
16558TIP3    H171165   3.736   3.728   1.343  1.1151  0.8321  0.4752
16558TIP3    H271166   3.753   3.854   1.261  0.0401 -0.4104 -1.7644
16559TIP3   OH271167   6.059   6.229   3.604  0.1641 -0.0314  0.2150
16559TIP3    H171168   6.025   6.261   3.688 -1.9033  0.9962 -0.9406
16559TIP3    H271169   6.031   6.137   3.601  2.0135 -0.7025  1.4702
16560TIP3   OH271170   6.330   1.363  14.192 -0.1390  0.0459 -0.4602
16560TIP3    H171171   6.295   1.284  14.233 -0.4470 -0.2918 -1.3680
16560TIP3    H271172   6.362   1.334  14.107  0.3302  0.7799 -0.5424
16561TIP3   OH271173   6.556   0.418   0.630 -0.3120  0.1284  0.4349
16561TIP3    H171174   6.589   0.507   0.643 -1.1072  0.5749 -0.4962
16561TIP3    H271175   6.634   0.363   0.629  0.2598  0.9407  0.0199
16562TIP3   OH271176   0.722   4.977  13.253 -0.0969 -0.0191 -0.0433
16562TIP3    H171177   0.800   4.948  13.300  0.5613 -0.8599 -1.5923
16562TIP3    H271178   0.749   4.982  13.162 -1.6880  0.2859 -0.5316
16563TIP3   OH271179   5.220   6.588  12.717 -0.3957 -0.2074  0.2348
16563TIP3    H171180   5.127   6.598  12.696 -0.6014 -0.0981  1.1865
16563TIP3    H271181   5.227   6.504  12.761  0.1630 -0.7952 -0.9320
16564TIP3   OH271182   5.183   2.181   1.360 -0.1102 -0.1529  0.2966
16564TIP3    H171183   5.141   2.257   1.319  2.3560  0.5983 -1.0316
16564TIP3    H271184   5.272   2.211   1.380  0.4580 -2.2432  1.1852
16565TIP3   OH271185   4.831   1.798   5.380  0.0522 -0.3090 -0.1847
16565TIP3    H171186   4.749   1.822   5.425  0.6391 -1.4927  1.6337
16565TIP3    H271187   4.900   1.834   5.436  0.8128 -1.2196 -0.5106
16566TIP3   OH271188   5.784   1.569   1.894  0.1855 -0.0646  0.2473
16566TIP3    H171189   5.753   1.480   1.907 -0.0968 -0.2886 -1.7442
16566TIP3    H271190   5.712   1.614   1.851  1.6604  0.0583 -2.2861
16567TIP3   OH271191   2.225   2.552   4.088  0.7437  0.5771  0.2444
16567TIP3    H171192   2.154   2.489   4.103  0.1935  1.5405  1.9117
16567TIP3    H271193   2.273   2.516   4.013  1.0808 -2.3841  1.7363
16568TIP3   OH271194   5.058   6.017   3.752 -0.6086  0.1293  0.0658
16568TIP3    H171195   4.990   6.010   3.819 -0.9699  1.4143 -0.1467
16568TIP3    H271196   5.104   6.098   3.772  0.0456 -0.0736 -0.5550
16569TIP3   OH271197   1.593   0.432   5.746 -0.6660 -0.4999 -0.0067
16569TIP3    H171198   1.543   0.439   5.827  0.5571 -0.5246  0.7763
16569TIP3    H271199   1.527   0.414   5.678 -1.7463 -0.0740  0.9043
16570TIP3   OH271200   4.070   4.449   2.611  0.0905  0.5715 -0.2876
16570TIP3    H171201   4.108   4.424   2.527 -2.9804 -0.9513 -1.3837
16570TIP3    H271202   4.051   4.365   2.654  0.1980  1.3129  1.2840
16571TIP3   OH271203   5.242   0.915  13.734  0.1557  0.7549 -0.1899
16571TIP3    H171204   5.330   0.951  13.740 -1.2587  4.8984 -0.8719
16571TIP3    H271205   5.231   0.893  13.641  0.3566  0.6070 -0.1785
16572TIP3   OH271206   3.887   6.563   3.818  0.5738  0.3779 -0.3064
16572TIP3    H171207   3.931   6.506   3.756 -1.7608 -1.9014 -0.0727
16572TIP3    H271208   3.852   6.635   3.765  2.3812  0.9020 -0.8398
16573TIP3   OH271209   5.599   0.553  12.761 -0.1100  0.2628  0.1059
16573TIP3    H171210   5.648   0.495  12.702 -0.7632 -0.6070  0.3942
16573TIP3    H271211   5.521   0.577  12.710  0.9550  2.2841 -0.6552
16574TIP3   OH271212   3.085   0.117   3.054  0.0439 -0.1135  0.3196
16574TIP3    H171213   3.053   0.090   2.968  0.7924 -1.5512  0.4542
16574TIP3    H271214   3.017   0.089   3.115 -0.6366  1.1928  0.1984
16575TIP3   OH271215   3.112   0.468  14.383  0.1646 -0.3617 -0.2555
16575TIP3    H171216   3.100   0.402  14.315 -2.5033  0.4178 -0.6767
16575TIP3    H271217   3.151   0.542  14.339 -1.1464 -0.0221 -0.9076
16576TIP3   OH271218   4.089   5.171   0.948 -0.1352 -0.3860 -0.1438
16576TIP3    H171219   4.031   5.244   0.924  1.3947  0.8661 -0.1585
16576TIP3    H271220   4.062   5.100   0.889 -1.7716  0.0717 -0.0137
16577TIP3   OH271221   5.721   5.104  12.993 -0.3238 -0.2610 -0.2977
16577TIP3    H171222   5.662   5.062  13.056  0.2571 -0.1149  0.3603
16577TIP3    H271223   5.678   5.186  12.970 -0.8775 -0.6455 -0.6398
16578TIP3   OH271224   3.367   1.400   4.772 -0.3770  0.1003  0.3467
16578TIP3    H171225   3.278   1.376   4.748 -0.3835 -1.5835  1.8380
16578TIP3    H271226   3.422   1.342   4.720 -0.1963  0.1844  0.4431
16579TIP3   OH271227   3.790   1.973   1.044  0.1274  0.7974  0.4558
16579TIP3    H171228   3.814   2.065   1.046  1.9247  0.6000 -3.4446
16579TIP3    H271229   3.726   1.965   0.973 -0.4027 -0.9084  1.0527
16580TIP3   OH271230   4.615   2.648   1.595 -0.1663  0.8254  0.9171
16580TIP3    H171231   4.559   2.723   1.575 -0.8395  0.0050 -0.4069
16580TIP3    H271232   4.561   2.571   1.574  1.1008 -0.0081  0.5987
16581TIP3   OH271233   1.092   5.345  13.765  0.1342  0.4795  0.5508
16581TIP3    H171234   1.100   5.321  13.857  0.8985 -2.0631 -0.0941
16581TIP3    H271235   1.006   5.313  13.739 -0.4471  1.9620  0.5438
16582TIP3   OH271236   3.107   0.658  16.699  0.6903 -0.1912  0.0332
16582TIP3    H171237   3.133   0.570  16.726  1.1956 -0.3201 -0.8483
16582TIP3    H271238   3.087   0.703  16.781  0.9401 -0.9637  0.5276
16583TIP3   OH271239   0.425   0.507  17.204  0.6295 -0.7024 -0.0192
16583TIP3    H171240   0.443   0.595  17.171  2.0594 -1.1598 -0.5141
16583TIP3    H271241   0.417   0.453  17.125 -0.2026 -1.0405  0.2804
16584TIP3   OH271242   4.941   4.529  15.929 -0.1577  0.0510  0.5203
16584TIP3    H171243   4.935   4.444  15.885  0.4804  0.2359  0.0758
16584TIP3    H271244   4.945   4.507  16.022  1.2686 -0.4824  0.3564
16585TIP3   OH271245   1.790   2.067   1.154  0.8084 -0.4331  0.2420
16585TIP3    H171246   1.713   2.032   1.108  1.5573 -0.1453 -1.2824
16585TIP3    H271247   1.846   2.102   1.084  1.5338  0.9451  1.4666
16586TIP3   OH271248   5.105   0.502   3.157 -0.2606 -0.1292 -0.7102
16586TIP3    H171249   5.062   0.588   3.165 -0.6820 -0.2089 -1.9266
16586TIP3    H271250   5.060   0.460   3.084  0.1072 -1.3000 -0.2731
16587TIP3   OH271251   0.643   3.803  16.370  0.2950 -0.0230 -0.0023
16587TIP3    H171252   0.675   3.892  16.384  0.8263 -0.0738 -0.7822
16587TIP3    H271253   0.585   3.785  16.444  1.2478  0.4745  0.8847
16588TIP3   OH271254   1.304   6.181   4.491 -1.0280 -0.0424  0.2204
16588TIP3    H171255   1.228   6.128   4.466 -0.9116 -0.6965  1.1956
16588TIP3    H271256   1.287   6.204   4.583  0.3437 -0.9058  0.7201
16589TIP3   OH271257   0.568   4.341  14.802 -0.7147 -0.2352 -0.2967
16589TIP3    H171258   0.648   4.390  14.821  0.7981 -0.7307 -4.2727
16589TIP3    H271259   0.571   4.266  14.861  2.0346 -0.4120 -0.5148
16590TIP3   OH271260   2.153   1.556  12.366  0.0409  0.1980  0.2135
16590TIP3    H171261   2.117   1.587  12.283 -0.9439  0.1049  0.5987
16590TIP3    H271262   2.167   1.635  12.418  0.5400  0.2450  0.0198
16591TIP3   OH271263   5.166   3.382  13.462 -0.0959 -0.0979  0.0767
16591TIP3    H171264   5.106   3.327  13.411  0.3380  0.4047 -0.9957
16591TIP3    H271265   5.253   3.360  13.428  0.0667  1.4290 -0.5468
16592TIP3   OH271266   0.161   4.785  11.159  0.5450 -0.0752  0.4094
16592TIP3    H171267   0.124   4.760  11.074  0.3428 -1.1795  0.8086
16592TIP3    H271268   0.130   4.875  11.172  1.9769  0.7679 -1.4438
16593TIP3   OH271269   3.206   5.386  11.938  0.0882 -0.6290 -0.0225
16593TIP3    H171270   3.280   5.432  11.978  0.4106 -1.0878 -0.0936
16593TIP3    H271271   3.246   5.322  11.879 -0.3326 -1.6878  0.8089
16594TIP3   OH271272   6.127   5.361  12.818  0.0781  0.4305 -0.2086
16594TIP3    H171273   6.089   5.321  12.897 -1.1613  0.6614 -0.6697
16594TIP3    H271274   6.052   5.399  12.772  0.9715  1.5069 -0.8076
16595TIP3   OH271275   6.502   4.585  16.069 -0.3603 -0.4530 -0.3869
16595TIP3    H171276   6.550   4.509  16.036 -0.4038 -1.1555  1.0922
16595TIP3    H271277   6.413   4.554  16.082 -0.3707 -0.1735  0.2678
16596TIP3   OH271278   1.131   5.521   0.821  0.3145  0.3230  0.1045
16596TIP3    H171279   1.203   5.465   0.851  0.3554  0.6342  0.6215
16596TIP3    H271280   1.161   5.557   0.738  0.3298 -0.3371 -0.1753
16597TIP3   OH271281   5.288   5.280   3.248  0.4754 -0.2876  0.1628
16597TIP3    H171282   5.303   5.192   3.284 -2.3868 -0.0917  2.1434
16597TIP3    H271283   5.264   5.264   3.157  0.1663 -1.5650  0.4405
16598TIP3   OH271284   6.586   2.711   5.031  0.0465  0.3236  0.6730
16598TIP3    H171285   6.543   2.650   4.971 -0.4719  1.1527  0.1846
16598TIP3    H271286   6.513   2.751   5.080  0.3875  0.5222  1.0246
16599TIP3   OH271287   5.435   1.863   2.159  0.2331 -0.9950  0.0711
16599TIP3    H171288   5.377   1.939   2.154  1.1539 -0.2334  0.7126
16599TIP3    H271289   5.522   1.900   2.173  0.5651 -2.1966  1.4263
16600TIP3   OH271290   3.761   0.842  12.980 -0.1813 -0.2818  0.1165
16600TIP3    H171291   3.839   0.807  13.022  0.0299  0.5341  0.4232
16600TIP3    H271292   3.715   0.765  12.947  1.6980 -0.7149 -1.7736
16601TIP3   OH271293   5.021   3.272   6.243  0.0319  0.2182  0.1475
16601TIP3    H171294   5.030   3.179   6.264  0.4328  0.1562 -0.2746
16601TIP3    H271295   4.950   3.276   6.180 -1.5574  0.4673  1.8663
16602TIP3   OH271296   6.698   2.091   2.872  0.0386 -0.5469  0.1191
16602TIP3    H171297   6.703   1.999   2.845  0.9524 -0.4987  0.1232
16602TIP3    H271298   6.780   2.108   2.918  0.4880  0.6544 -1.0596
16603TIP3   OH271299   0.821   5.414  15.773  0.3155 -0.1708  0.6242
16603TIP3    H171300   0.898   5.413  15.830  0.5053  1.1158  0.4185
16603TIP3    H271301   0.843   5.477  15.704 -0.9510  0.2879  0.6073
16604TIP3   OH271302   1.146   2.028  16.474 -0.2692 -0.3686 -0.4960
16604TIP3    H171303   1.201   2.040  16.397 -1.1956  0.2266 -1.0957
16604TIP3    H271304   1.154   2.110  16.522 -1.7447  0.3204 -1.3539
16605TIP3   OH271305   0.037   1.741   4.001 -0.4680 -0.5975  0.1869
16605TIP3    H171306   0.016   1.698   3.918  0.3143 -0.4679 -0.0852
16605TIP3    H271307  -0.030   1.809   4.010 -0.5654 -0.6200 -0.3294
16606TIP3   OH271308   5.526   6.432  16.118  0.3623 -0.6981  0.6147
16606TIP3    H171309   5.537   6.424  16.212  0.1752  0.5506  0.7634
16606TIP3    H271310   5.609   6.468  16.086 -0.4012  1.2607  0.6777
16607TIP3   OH271311   4.740   5.365  14.728 -0.0391 -0.1192 -0.1155
16607TIP3    H171312   4.777   5.453  14.733 -0.3920 -0.0363  1.3698
16607TIP3    H271313   4.694   5.363  14.644  0.4992  0.8911 -0.4456
16608TIP3   OH271314   2.402   4.879   2.655  0.3167  0.5592 -0.3500
16608TIP3    H171315   2.310   4.870   2.677  0.2763  0.6146 -0.4934
16608TIP3    H271316   2.404   4.886   2.559  0.5579 -0.4978 -0.4301
16609TIP3   OH271317   1.507   3.637  16.633  0.1208  0.3144  0.3841
16609TIP3    H171318   1.430   3.583  16.610 -0.4868  0.0990  2.6665
16609TIP3    H271319   1.582   3.579  16.617  0.0073  0.8488 -2.8406
16610TIP3   OH271320   5.087   1.284   0.487  0.2094 -0.3499  0.5763
16610TIP3    H171321   5.113   1.368   0.523  0.2423 -0.6659  1.3080
16610TIP3    H271322   5.007   1.261   0.533 -1.2258  0.4398 -1.3991
16611TIP3   OH271323   2.117   3.978   2.856 -0.1808 -0.4931  0.3374
16611TIP3    H171324   2.197   4.024   2.830 -0.2204 -0.4563  0.2817
16611TIP3    H271325   2.065   4.046   2.900  0.4596 -0.8573  1.7160
16612TIP3   OH271326   1.709   1.301  14.955 -0.8512 -0.2637  0.2787
16612TIP3    H171327   1.736   1.214  14.987  1.1507  0.8481  1.8572
16612TIP3    H271328   1.716   1.294  14.860  0.5801 -1.4687  0.4221
16613TIP3   OH271329   4.978   3.830   4.456  0.2903  0.2639  0.4652
16613TIP3    H171330   4.966   3.738   4.431  0.5962  0.8603 -2.1066
16613TIP3    H271331   5.072   3.845   4.448  0.1547  0.9815  0.1540
16614TIP3   OH271332   5.006   2.565   3.808 -0.1997 -0.2487  0.2941
16614TIP3    H171333   5.051   2.519   3.737 -0.9246 -1.3883  0.5431
16614TIP3    H271334   4.969   2.495   3.862  1.1815  0.5327  2.3916
16615TIP3   OH271335   3.459   3.625  16.626  0.1835  0.3158 -0.4330
16615TIP3    H171336   3.381   3.671  16.657  1.1142  2.2101 -0.7436
16615TIP3    H271337   3.445   3.615  16.532  0.2713  0.5843 -0.4759
16616TIP3   OH271338   4.806   2.069  13.364 -0.1950 -0.0404  0.0789
16616TIP3    H171339   4.776   2.147  13.410  0.5598  0.5186 -0.3351
16616TIP3    H271340   4.803   1.999  13.429 -0.1073  0.5145  0.6890
16617TIP3   OH271341   5.776   4.255   5.308  0.0135 -0.4905 -0.1732
16617TIP3    H171342   5.771   4.283   5.400  3.8385 -0.7432  0.2557
16617TIP3    H271343   5.803   4.333   5.260  0.5114 -0.9505 -0.6579
16618TIP3   OH271344   4.511   1.665   4.383  0.2284 -0.2675  0.0111
16618TIP3    H171345   4.578   1.615   4.337  1.7697  0.7765  1.0257
16618TIP3    H271346   4.546   1.677   4.472 -1.4382  0.0559  0.6546
16619TIP3   OH271347   0.948   2.099  15.985  0.0672  0.1821  0.2606
16619TIP3    H171348   0.909   2.039  16.049 -0.0851 -0.3734 -0.3458
16619TIP3    H271349   0.878   2.161  15.965  0.6050  1.3634  1.8346
16620TIP3   OH271350   2.051   0.122  15.204 -0.6437  0.2804 -0.0182
16620TIP3    H171351   2.002   0.154  15.128 -0.1773  1.2802  0.0928
16620TIP3    H271352   2.137   0.162  15.196 -0.9222  1.2928  1.6063
16621TIP3   OH271353   1.006   4.940   6.253  0.0668  0.1483 -0.3461
16621TIP3    H171354   1.073   4.923   6.319 -1.8515  2.2409  2.3867
16621TIP3    H271355   0.935   4.880   6.275 -0.1121  0.0013 -1.3042
16622TIP3   OH271356   2.861   0.862  13.187 -0.4553  0.3927  0.2198
16622TIP3    H171357   2.837   0.876  13.095 -1.3622  0.8044  0.5113
16622TIP3    H271358   2.788   0.898  13.237 -0.0657 -0.0195  1.1076
16623TIP3   OH271359   6.259   2.125   4.098  0.1379 -0.0327 -0.3627
16623TIP3    H171360   6.314   2.148   4.023  0.7417  1.2246  0.4431
16623TIP3    H271361   6.172   2.113   4.061  0.6433 -0.5710 -1.4298
16624TIP3   OH271362   6.171   0.060  11.031 -0.3487 -0.4836 -0.0673
16624TIP3    H171363   6.122   0.027  10.956  0.0520  1.3572 -1.1784
16624TIP3    H271364   6.177  -0.016  11.090 -0.1212 -2.1705 -2.1306
16625TIP3   OH271365   3.491   4.089   0.018  0.1092  1.1315 -0.3072
16625TIP3    H171366   3.458   4.019   0.074 -1.4805 -0.5432 -3.0850
16625TIP3    H271367   3.578   4.059  -0.009 -0.2447  0.5725 -0.8552
16626TIP3   OH271368   3.479   6.620  12.560  0.3235  0.7602  0.4101
16626TIP3    H171369   3.564   6.659  12.577  1.2341 -0.5383 -0.9540
16626TIP3    H271370   3.490   6.527  12.581 -1.6541  0.9949  3.1043
16627TIP3   OH271371   0.225   1.770  13.045  0.0231 -0.0753 -0.4186
16627TIP3    H171372   0.215   1.858  13.008 -0.7876 -0.7772 -1.9842
16627TIP3    H271373   0.135   1.739  13.057  0.2870 -1.1463 -1.0941
16628TIP3   OH271374   1.799   3.714  15.205  0.2853 -0.1720  0.7266
16628TIP3    H171375   1.727   3.656  15.181 -0.0760  0.2712  0.7056
16628TIP3    H271376   1.768   3.758  15.284  0.8644 -0.5536  1.1746
16629TIP3   OH271377   0.793   1.191   1.741 -0.4366 -0.0857  0.1135
16629TIP3    H171378   0.752   1.274   1.765  0.3420  0.4890 -0.4895
16629TIP3    H271379   0.843   1.165   1.819 -2.0070 -0.8562  0.8969
16630TIP3   OH271380   6.253   5.150   5.208 -0.3807 -0.2647 -0.0173
16630TIP3    H171381   6.329   5.103   5.172 -1.1099 -1.2041 -0.3923
16630TIP3    H271382   6.278   5.242   5.206  0.9626 -0.6049  0.3919
16631TIP3   OH271383   1.067   2.328  14.276  0.1445 -0.1219  0.7792
16631TIP3    H171384   1.038   2.396  14.337  0.7879  0.3774  0.5387
16631TIP3    H271385   1.109   2.376  14.205 -0.6394 -0.6969 -0.0915
16632TIP3   OH271386   3.474   3.987  12.837  0.0189  0.3307  0.1599
16632TIP3    H171387   3.476   4.013  12.929  0.5351 -2.8044  1.1477
16632TIP3    H271388   3.382   3.973  12.818 -0.0413  0.4028  0.3905
16633TIP3   OH271389   3.978   5.419  15.731  0.0912  0.7794  0.5567
16633TIP3    H171390   3.917   5.357  15.771  1.4772 -1.3403 -0.4155
16633TIP3    H271391   3.987   5.489  15.796 -1.2780 -0.1995  1.8769
16634TIP3   OH271392   2.662   1.425  14.658 -0.6721  0.2850  0.3840
16634TIP3    H171393   2.674   1.339  14.698 -1.5697 -0.4501 -0.8368
16634TIP3    H271394   2.569   1.428  14.635 -0.2967  0.8052 -1.2466
16635TIP3   OH271395   5.744   5.453  13.994 -0.6280 -0.3541 -0.1746
16635TIP3    H171396   5.723   5.522  14.057  0.2245  1.6327 -1.9192
16635TIP3    H271397   5.746   5.373  14.045  0.6480  1.2155  2.4657
16636TIP3   OH271398   3.993   4.045   0.552 -0.0461  0.9363 -0.1484
16636TIP3    H171399   4.076   4.015   0.515  0.8648  2.0803  0.8639
16636TIP3    H271400   3.998   4.141   0.547 -1.4247  1.0199 -0.2987
16637TIP3   OH271401   1.462   0.137  14.596  0.3139  0.4666 -0.2166
16637TIP3    H171402   1.532   0.146  14.660 -1.1144  1.4044  1.2744
16637TIP3    H271403   1.441   0.044  14.596  2.0704  0.0158 -1.3190
16638TIP3   OH271404   5.605   5.945  11.600 -0.1422 -0.5321  0.2644
16638TIP3    H171405   5.642   5.955  11.512 -0.1469  0.2763  0.3437
16638TIP3    H271406   5.646   5.866  11.634  0.8622 -0.1382  0.0232
16639TIP3   OH271407   1.123   0.056  14.403  0.3785  0.2806 -0.5685
16639TIP3    H171408   1.102  -0.023  14.353 -0.6653  0.5323 -0.5560
16639TIP3    H271409   1.106   0.032  14.494  4.2393 -0.8448  0.0296
16640TIP3   OH271410   5.252   5.989   5.053  0.2026  0.3376  0.5199
16640TIP3    H171411   5.174   5.933   5.048  1.4865 -1.5328  0.2644
16640TIP3    H271412   5.217   6.077   5.069 -1.9670 -0.3601  0.0711
16641TIP3   OH271413   6.792   5.598  12.272  0.3027 -0.5124 -0.9420
16641TIP3    H171414   6.787   5.563  12.361 -2.0557 -1.2159 -1.2788
16641TIP3    H271415   6.775   5.692  12.282 -0.6717 -0.7018 -0.6678
16642TIP3   OH271416   2.450   0.363   0.540 -0.5298  0.1880  0.1566
16642TIP3    H171417   2.539   0.359   0.505 -1.5545  1.3478 -3.0125
16642TIP3    H271418   2.430   0.273   0.566  0.4288 -0.8879 -2.4634
16643TIP3   OH271419   1.370   2.275   3.829  0.0670 -1.0270 -0.2535
16643TIP3    H171420   1.436   2.293   3.762 -1.0745  1.7496 -0.7909
16643TIP3    H271421   1.407   2.310   3.910 -0.6895  0.6698 -0.5835
16644TIP3   OH271422   2.254   6.689   1.326 -0.2260 -0.3360  0.2338
16644TIP3    H171423   2.346   6.672   1.348  0.2135  0.2907 -1.0303
16644TIP3    H271424   2.205   6.648   1.397  1.1015  1.5061  2.3753
16645TIP3   OH271425   0.100   1.113  13.791  0.7367 -0.3364 -1.2594
16645TIP3    H171426   0.138   1.081  13.873 -0.4231  0.5406 -0.3502
16645TIP3    H271427   0.047   1.189  13.817 -0.2740 -0.5094 -2.7130
16646TIP3   OH271428   1.445   2.467  14.152 -0.1101  0.4017 -0.2752
16646TIP3    H171429   1.395   2.434  14.226 -2.0943 -1.9345 -2.4655
16646TIP3    H271430   1.523   2.412  14.149 -0.2764  0.1603 -0.1978
16647TIP3   OH271431   4.475   0.793  17.090 -0.1758 -0.4295 -0.5601
16647TIP3    H171432   4.424   0.816  17.167  1.8319  0.0849  0.6740
16647TIP3    H271433   4.446   0.704  17.068 -1.4382 -0.2338  0.1841
16648TIP3   OH271434   4.220   4.286  16.804  0.1701 -0.2161  0.4279
16648TIP3    H171435   4.184   4.223  16.742 -2.1645 -0.8448  2.2843
16648TIP3    H271436   4.221   4.239  16.887 -0.3686  1.7649  1.6126
16649TIP3   OH271437   0.537   4.768   3.003 -0.1004  0.3686  0.4559
16649TIP3    H171438   0.468   4.811   3.055  0.6116 -0.3920  2.1050
16649TIP3    H271439   0.498   4.685   2.976 -0.4165  0.6970 -0.1316
16650TIP3   OH271440   6.435   2.469  12.298  0.3376 -0.4449  0.4548
16650TIP3    H171441   6.530   2.471  12.308  0.5980  0.6352 -1.6823
16650TIP3    H271442   6.414   2.553  12.257 -1.8031  0.2083  2.6524
16651TIP3   OH271443   6.717   3.218   5.796 -0.4736 -0.5552 -0.0035
16651TIP3    H171444   6.670   3.204   5.713 -0.2271  2.3626 -0.7207
16651TIP3    H271445   6.650   3.246   5.857 -0.5305 -1.9822  0.6212
16652TIP3   OH271446   4.357   1.212  10.625  0.7250  0.1379  0.2413
16652TIP3    H171447   4.350   1.130  10.674 -0.8537  0.3785  0.4871
16652TIP3    H271448   4.372   1.279  10.692  2.3893  0.0231  0.0055
16653TIP3   OH271449   2.403   4.895   2.387  0.2646  0.2599 -0.3035
16653TIP3    H171450   2.478   4.897   2.329 -0.9890 -1.5720 -2.1135
16653TIP3    H271451   2.335   4.944   2.341 -0.8020 -1.3580 -0.5499
16654TIP3   OH271452   0.643   1.795  14.300 -0.4582 -0.3325  0.0991
16654TIP3    H171453   0.608   1.784  14.211  1.6198  0.0313 -0.8410
16654TIP3    H271454   0.709   1.864  14.291  1.9463 -2.3414  1.2449
16655TIP3   OH271455   5.051   5.336  13.372 -0.1768 -0.1588  0.3150
16655TIP3    H171456   5.020   5.424  13.352  2.4529  0.6196 -0.8192
16655TIP3    H271457   5.029   5.284  13.295  0.2155  0.0720  0.0438
16656TIP3   OH271458   5.340   1.514   1.941  0.1667  0.0047  0.0949
16656TIP3    H171459   5.316   1.552   2.025 -1.0314  1.0195 -0.6762
16656TIP3    H271460   5.355   1.421   1.960 -2.3970 -0.2863  1.0240
16657TIP3   OH271461   3.715   0.629  16.765  0.2791  0.0965  0.5700
16657TIP3    H171462   3.700   0.548  16.715 -0.7880 -0.8078  2.2620
16657TIP3    H271463   3.804   0.620  16.799 -0.6985 -1.7020  2.9302
16658TIP3   OH271464   0.266   3.977   0.688 -0.4415 -0.2698 -0.2933
16658TIP3    H171465   0.343   3.962   0.743 -0.4842 -0.6305 -0.3257
16658TIP3    H271466   0.231   3.889   0.671 -0.1411 -0.2098 -1.3078
16659TIP3   OH271467   6.121   2.636   5.518 -0.4436  0.0934 -0.2240
16659TIP3    H171468   6.172   2.567   5.475 -0.4984 -2.4751  3.3836
16659TIP3    H271469   6.031   2.621   5.490 -0.3533 -0.9384 -0.0129
16660TIP3   OH271470   3.612   6.214  10.199 -0.8749 -0.6504 -0.2837
16660TIP3    H171471   3.645   6.141  10.252 -2.1935 -1.8475 -1.0540
16660TIP3    H271472   3.680   6.281  10.206  0.1075 -1.7214  0.9144
16661TIP3   OH271473   6.617   3.599   2.400  0.3845 -0.0631  0.5139
16661TIP3    H171474   6.553   3.537   2.437  1.6565 -0.6289  1.8779
16661TIP3    H271475   6.564   3.672   2.368 -1.1080 -1.4901 -0.4466
16662TIP3   OH271476   4.528   5.915  14.013 -0.5997  0.2701  0.1375
16662TIP3    H171477   4.576   5.989  14.051  0.8820 -0.7880  0.3788
16662TIP3    H271478   4.521   5.852  14.084  0.3105 -0.8332 -0.7070
16663TIP3   OH271479   3.135   0.263   4.701  0.4986 -0.2414  0.0308
16663TIP3    H171480   3.193   0.188   4.688 -0.7716 -1.1950 -0.3504
16663TIP3    H271481   3.085   0.269   4.619  0.1784  0.6689  0.2819
16664TIP3   OH271482   0.050   2.808   0.733 -0.1635 -0.6498 -0.2248
16664TIP3    H171483   0.093   2.806   0.819  0.5347  2.7218 -0.3460
16664TIP3    H271484  -0.024   2.868   0.745  0.8520  1.1555 -2.2565
16665TIP3   OH271485   3.860   5.223  12.555  0.2124 -0.1115 -0.5684
16665TIP3    H171486   3.851   5.251  12.646  0.2309 -0.4667 -0.4579
16665TIP3    H271487   3.908   5.141  12.560 -2.6073 -1.9007 -0.6353
16666TIP3   OH271488   5.514   6.153   4.539 -0.2176 -0.0970  0.1494
16666TIP3    H171489   5.587   6.091   4.538  0.2847  0.4010  1.9487
16666TIP3    H271490   5.451   6.115   4.600  0.2899  1.3235  1.6253
16667TIP3   OH271491   0.628   2.213   0.122 -0.4277 -0.1458 -0.3299
16667TIP3    H171492   0.612   2.128   0.084 -0.2191 -0.2682 -0.1495
16667TIP3    H271493   0.691   2.255   0.063  0.6077 -0.6946  0.3567
16668TIP3   OH271494   6.734   3.170  11.596 -0.5510  0.0575  0.2280
16668TIP3    H171495   6.822   3.150  11.565  0.1951  0.1431  2.1805
16668TIP3    H271496   6.689   3.203  11.519  1.9221  2.5776 -0.2969
16669TIP3   OH271497   1.645   0.996  12.598 -0.6047  0.0463 -0.0498
16669TIP3    H171498   1.629   1.081  12.555  1.9835  1.2945  1.2068
16669TIP3    H271499   1.737   0.978  12.582 -0.4298 -1.1880  1.9589
16670TIP3   OH271500   5.262   5.240  13.530  0.0932  0.3280  0.0890
16670TIP3    H171501   5.214   5.203  13.605 -0.3692  0.1302 -0.2980
16670TIP3    H271502   5.194   5.262  13.467  0.4541  0.8422 -0.1259
16671TIP3   OH271503   3.407   4.290   2.176 -0.2630 -0.2388 -0.3454
16671TIP3    H171504   3.483   4.345   2.157 -0.2535 -0.2205 -0.2539
16671TIP3    H271505   3.371   4.326   2.257  1.0450 -1.7565  0.9606
16672TIP3   OH271506   2.451   1.231   0.684  0.6504 -0.0107  0.2229
16672TIP3    H171507   2.463   1.141   0.654  0.9203 -0.2497  1.0250
16672TIP3    H271508   2.539   1.260   0.709  0.8799  1.0808 -1.6226
16673TIP3   OH271509   0.701   6.237  11.800 -0.4811 -0.7019 -0.4077
16673TIP3    H171510   0.759   6.314  11.796  0.9038 -1.6277  0.6206
16673TIP3    H271511   0.756   6.169  11.840 -1.5048 -2.3841 -1.7543
16674TIP3   OH271512   6.108   1.345   6.260 -0.1263 -0.1132  0.1377
16674TIP3    H171513   6.189   1.304   6.291 -0.5623 -1.6490 -0.6396
16674TIP3    H271514   6.133   1.387   6.178 -0.0002 -0.1650  0.1485
16675TIP3   OH271515   1.565   0.884  12.828  0.7532  0.3852 -0.2411
16675TIP3    H171516   1.610   0.932  12.758  3.3375 -0.1748  0.9328
16675TIP3    H271517   1.564   0.793  12.798 -1.3107  0.6123 -1.0444
16676TIP3   OH271518   1.806   4.100   0.582  0.7924  0.5654  0.2729
16676TIP3    H171519   1.853   4.130   0.660  1.8901 -0.7152  0.1321
16676TIP3    H271520   1.869   4.045   0.535 -0.1348  0.5961 -1.0803
16677TIP3   OH271521   2.499   4.411  16.279  0.3141  0.2610 -0.1199
16677TIP3    H171522   2.459   4.449  16.201 -0.9803 -1.6391 -0.4582
16677TIP3    H271523   2.530   4.325  16.250 -0.9908 -0.8617  1.6360
16678TIP3   OH271524   1.774   1.719  15.877 -0.4377  0.2220 -0.3111
16678TIP3    H171525   1.774   1.677  15.791 -0.7907  1.7365 -1.0842
16678TIP3    H271526   1.682   1.732  15.898 -0.3802 -0.6679  0.6025
16679TIP3   OH271527   5.621   1.116  11.661  0.0275 -0.6303  0.0048
16679TIP3    H171528   5.666   1.181  11.608 -0.4189  0.3768  0.8373
16679TIP3    H271529   5.685   1.045  11.671 -0.0544 -1.1224 -2.2971
16680TIP3   OH271530   2.252   6.650   6.471 -0.4279  0.0378 -0.1647
16680TIP3    H171531   2.254   6.609   6.385 -1.0195 -1.7360  0.6133
16680TIP3    H271532   2.343   6.676   6.488 -0.3648  0.6853 -1.4295
16681TIP3   OH271533   1.501   4.759  12.612 -0.2461 -0.3845 -0.7549
16681TIP3    H171534   1.525   4.850  12.598 -0.9702 -0.0305  0.1553
16681TIP3    H271535   1.419   4.748  12.563 -1.3419  0.1054  0.8663
16682TIP3   OH271536   1.699   2.537  17.197  0.2191  0.2155  0.5675
16682TIP3    H171537   1.676   2.537  17.104  0.6412  3.3174  0.3627
16682TIP3    H271538   1.619   2.507  17.241 -0.1098 -0.9338 -0.7375
16683TIP3   OH271539   2.413   5.324  17.072 -0.2920  0.4048 -0.0896
16683TIP3    H171540   2.479   5.279  17.019 -1.0020  2.6052 -3.1093
16683TIP3    H271541   2.453   5.410  17.091 -1.3813  0.8937  0.0481
16684TIP3   OH271542   5.467   1.035   3.662  0.0631  0.2983  0.0981
16684TIP3    H171543   5.472   1.029   3.567  1.3261  1.3108  0.0718
16684TIP3    H271544   5.397   1.098   3.679 -1.1383 -0.9390 -0.0931
16685TIP3   OH271545   0.270   4.431   3.932  0.1636  0.0163 -0.2279
16685TIP3    H171546   0.354   4.473   3.914  0.9426 -1.1623  0.4555
16685TIP3    H271547   0.264   4.430   4.028 -0.5868  0.0258 -0.2742
16686TIP3   OH271548   2.241   2.329   6.308  0.0237  0.4320 -0.1168
16686TIP3    H171549   2.239   2.366   6.397 -0.6023 -0.2697  0.1715
16686TIP3    H271550   2.152   2.296   6.294  0.3472 -0.2127 -0.6876
16687TIP3   OH271551   5.658   3.953  17.060  0.3711 -0.3709 -0.2058
16687TIP3    H171552   5.618   3.869  17.082 -1.8578  0.2674 -1.5486
16687TIP3    H271553   5.595   3.997  17.003  1.7141  1.9910 -0.0459
16688TIP3   OH271554   2.029   6.571  16.536  0.5278 -0.0030  0.5902
16688TIP3    H171555   2.089   6.610  16.472 -0.8883  0.5728 -0.4357
16688TIP3    H271556   2.008   6.485  16.500 -0.3919  0.3826  0.1798
16689TIP3   OH271557   3.629   3.848   2.140 -0.0472  0.3832 -0.3373
16689TIP3    H171558   3.673   3.801   2.069 -1.4521 -1.6541  0.0559
16689TIP3    H271559   3.692   3.915   2.166  1.9990 -1.1032 -1.1231
16690TIP3   OH271560   3.384   5.175   1.476 -0.2668 -0.2618 -0.2267
16690TIP3    H171561   3.422   5.231   1.545  1.1252  0.1599 -1.2849
16690TIP3    H271562   3.378   5.233   1.400  0.2209 -1.2645 -1.0500
16691TIP3   OH271563   3.995   2.597   3.984 -0.6753 -0.2938  0.0635
16691TIP3    H171564   4.079   2.610   3.940 -1.9945  0.6020 -2.3769
16691TIP3    H271565   3.981   2.679   4.032 -0.2637 -0.3632  0.3090
16692TIP3   OH271566   5.429   5.295   5.726  0.5498 -0.2812 -0.0334
16692TIP3    H171567   5.501   5.241   5.695 -0.4558 -0.5906 -2.0100
16692TIP3    H271568   5.449   5.312   5.818  1.9060 -2.3578  0.1186
16693TIP3   OH271569   0.815   5.939  15.152 -0.3160  0.3967 -0.3055
16693TIP3    H171570   0.898   5.936  15.199  1.2306 -2.4161 -2.7996
16693TIP3    H271571   0.834   5.988  15.072 -1.3830  0.6871 -0.3972
16694TIP3   OH271572   0.298   0.511  15.858 -0.1285  0.3192 -0.3043
16694TIP3    H171573   0.275   0.572  15.788 -1.1125 -0.3919 -0.6092
16694TIP3    H271574   0.301   0.425  15.816 -0.5569 -0.0919  0.4888
16695TIP3   OH271575   0.555   1.630  15.313 -0.1200  0.0493 -0.3125
16695TIP3    H171576   0.512   1.573  15.376  2.3583 -2.0103 -0.2938
16695TIP3    H271577   0.494   1.635  15.239 -1.2150 -1.0976  0.4848
16696TIP3   OH271578   5.663   5.459   3.013 -0.3631 -0.3338 -0.1160
16696TIP3    H171579   5.628   5.414   2.937  0.6301 -1.0363 -0.1747
16696TIP3    H271580   5.747   5.494   2.984 -0.6690  0.7093  0.2199
16697TIP3   OH271581   3.650   4.602   1.920  0.2169 -0.7811 -0.2613
16697TIP3    H171582   3.647   4.515   1.879 -1.1284 -0.1076 -1.6950
16697TIP3    H271583   3.695   4.657   1.855 -1.3565  0.1677 -0.5825
16698TIP3   OH271584   5.734   1.720  12.190  0.1112 -0.9713 -0.5127
16698TIP3    H171585   5.789   1.722  12.269  1.7558  1.6329 -1.5836
16698TIP3    H271586   5.786   1.671  12.126  1.0519  1.0532 -1.3725
16699TIP3   OH271587   1.738   5.914  16.229 -0.1152  0.4979 -0.2687
16699TIP3    H171588   1.646   5.922  16.255  0.4485  1.1678  1.6760
16699TIP3    H271589   1.773   5.845  16.286  0.3248 -0.6103 -1.8237
16700TIP3   OH271590   0.030   1.300   1.239 -0.0583  0.1398  0.3678
16700TIP3    H171591  -0.035   1.368   1.221  2.0289  1.9947 -0.6527
16700TIP3    H271592   0.064   1.275   1.153  0.9405 -0.4051  0.8998
16701TIP3   OH271593   1.697   1.700   2.194  0.2741  0.7602 -0.1108
16701TIP3    H171594   1.688   1.793   2.216  0.5649  0.8373 -0.3067
16701TIP3    H271595   1.722   1.701   2.101  1.4180  0.5267  0.1859
16702TIP3   OH271596   2.121   3.727  12.616 -0.0636  0.1401  0.1159
16702TIP3    H171597   2.203   3.774  12.630  0.7817 -1.2251 -0.0664
16702TIP3    H271598   2.092   3.702  12.704 -0.0078  0.1939  0.1489
16703TIP3   OH271599   2.431   1.097  14.597 -0.1036 -0.3368 -0.8564
16703TIP3    H171600   2.517   1.089  14.639 -0.6310  1.0896  0.5932
16703TIP3    H271601   2.409   1.008  14.572  0.4720 -1.2143  1.5045
16704TIP3   OH271602   6.497   2.392  14.479  0.0012 -0.1093  0.1319
16704TIP3    H171603   6.408   2.412  14.507  0.1632 -0.0688  0.6296
16704TIP3    H271604   6.518   2.309  14.524  0.4191  0.1807  0.4805
16705TIP3   OH271605   6.630   3.645  11.724  0.4839  0.6637 -0.2376
16705TIP3    H171606   6.604   3.553  11.717  0.5023  0.5799  0.7507
16705TIP3    H271607   6.717   3.642  11.762 -0.0781  1.1335  1.1356
16706TIP3   OH271608   5.613   2.257   1.492  0.0604 -0.4522 -0.2922
16706TIP3    H171609   5.645   2.236   1.405  2.5349  0.2799  0.3616
16706TIP3    H271610   5.684   2.306   1.532 -0.0149 -2.7343  2.9843
16707TIP3   OH271611   4.196   1.322  14.347  0.0431  0.2155 -0.9044
16707TIP3    H171612   4.197   1.410  14.310  0.1954 -0.1116 -1.7116
16707TIP3    H271613   4.275   1.280  14.312 -0.9534 -0.8136 -2.0266
16708TIP3   OH271614   4.073   1.345   2.953 -0.1195  0.1099 -0.3141
16708TIP3    H171615   4.040   1.397   3.026 -1.0538 -2.0041  0.8719
16708TIP3    H271616   4.167   1.340   2.968 -0.1350  0.7893  0.0237
16709TIP3   OH271617   0.983   6.254  13.098  0.1039  0.9581 -0.3223
16709TIP3    H171618   1.008   6.167  13.129  0.4091  1.0771 -0.2267
16709TIP3    H271619   0.969   6.242  13.004 -0.9650  0.5687 -0.1232
16710TIP3   OH271620   6.271   4.799  16.556  0.3765  0.1887  0.4670
16710TIP3    H171621   6.209   4.732  16.587 -1.5760  0.8634 -1.6959
16710TIP3    H271622   6.315   4.757  16.482  0.1070  0.8197 -0.0575
16711TIP3   OH271623   5.131   5.284   5.090 -0.4197  0.5252  0.1903
16711TIP3    H171624   5.117   5.363   5.037 -2.9647  0.4590  0.6081
16711TIP3    H271625   5.089   5.304   5.173  0.1727 -0.7635  0.8215
16712TIP3   OH271626   4.288   6.214   6.156  0.1581 -0.0204  0.7210
16712TIP3    H171627   4.288   6.294   6.104 -0.1707  0.4143  1.3730
16712TIP3    H271628   4.216   6.162   6.119 -1.4003  1.1328  1.9614
16713TIP3   OH271629   6.103   2.002  15.930 -0.1702  0.1380 -0.5100
16713TIP3    H171630   6.035   2.068  15.944 -1.7194 -1.1464 -1.5078
16713TIP3    H271631   6.055   1.919  15.928  1.8625 -1.2344  2.1319
16714TIP3   OH271632   5.326   3.042  14.022  0.5308  0.3069  0.4827
16714TIP3    H171633   5.287   3.116  14.068 -0.8084 -0.6042  0.8918
16714TIP3    H271634   5.373   2.994  14.091  0.8592  0.4358  0.3486
16715TIP3   OH271635   2.913   0.471  16.241  0.7154  0.6709  0.4203
16715TIP3    H171636   2.989   0.507  16.195  0.6928 -0.4268 -0.5227
16715TIP3    H271637   2.855   0.547  16.254  1.3239  1.2512 -0.1636
16716TIP3   OH271638   0.851   1.567   4.863  0.2871  0.2497 -0.3760
16716TIP3    H171639   0.929   1.559   4.808  0.6097  0.6145  0.0231
16716TIP3    H271640   0.840   1.480   4.901  1.0216  0.4314  0.2617
16717TIP3   OH271641   1.415   2.311   2.945 -0.5882 -0.0187  0.0222
16717TIP3    H171642   1.423   2.399   2.908 -1.6095 -0.7913 -2.1727
16717TIP3    H271643   1.367   2.324   3.027 -0.4379  1.4853 -0.0960
16718TIP3   OH271644   1.429   5.781   2.766 -0.5400 -0.1535  0.6456
16718TIP3    H171645   1.358   5.795   2.704  1.5917 -0.3527 -2.0538
16718TIP3    H271646   1.465   5.868   2.782  0.2449 -0.3014 -0.1911
16719TIP3   OH271647   1.442   6.617  12.314  0.3036 -0.3475  0.3940
16719TIP3    H171648   1.408   6.641  12.401 -0.3614  1.0747 -0.2267
16719TIP3    H271649   1.522   6.668  12.305 -1.2297  2.0295 -1.0193
16720TIP3   OH271650   6.428   1.934  16.323  0.3680  0.5538  0.2660
16720TIP3    H171651   6.406   1.957  16.413  0.2261  2.0778 -0.1282
16720TIP3    H271652   6.471   2.012  16.288  1.5447 -0.4517 -0.6262
16721TIP3   OH271653   2.288   5.663  11.655  0.0949  0.5084 -0.3233
16721TIP3    H171654   2.376   5.634  11.678 -0.4106 -3.0385 -2.0781
16721TIP3    H271655   2.293   5.682  11.561 -1.0387 -0.0354 -0.5149
16722TIP3   OH271656   2.250   4.750   3.637  0.0147 -0.2640  0.3747
16722TIP3    H171657   2.284   4.836   3.662  1.5524 -0.2511 -1.5094
16722TIP3    H271658   2.156   4.755   3.656  0.1431  1.6602  0.7316
16723TIP3   OH271659   1.346   3.441   4.779  0.4180 -0.3214 -0.2443
16723TIP3    H171660   1.316   3.472   4.864  1.4919 -1.0832  0.4384
16723TIP3    H271661   1.345   3.346   4.786 -0.5263 -0.4316 -1.4827
16724TIP3   OH271662   4.128   3.106  10.652 -0.2935 -0.5307 -0.0932
16724TIP3    H171663   4.152   3.168  10.583  1.5269  0.6612  1.4838
16724TIP3    H271664   4.211   3.066  10.678 -0.6717 -0.0229  2.1786
16725TIP3   OH271665   4.783   4.248  12.019  0.0048  0.2191  0.1928
16725TIP3    H171666   4.771   4.155  12.042  0.0236  0.2906  0.4980
16725TIP3    H271667   4.702   4.271  11.974 -0.1671  0.1573  0.4649
16726TIP3   OH271668   3.210   4.692  15.065  0.1227 -0.2624 -0.5731
16726TIP3    H171669   3.239   4.741  15.141 -1.5414 -2.1811  1.4399
16726TIP3    H271670   3.250   4.605  15.076  0.2498 -0.4445 -2.1885
16727TIP3   OH271671   3.825   1.030  15.130 -0.3221 -0.2255 -0.0135
16727TIP3    H171672   3.795   1.093  15.197  1.8114 -0.0159  0.8366
16727TIP3    H271673   3.883   0.971  15.178 -0.0728 -1.1149 -1.3762
16728TIP3   OH271674   5.371   0.121   2.289  0.2234  0.4514  0.5788
16728TIP3    H171675   5.436   0.139   2.222  0.0070 -1.1217 -0.0972
16728TIP3    H271676   5.376   0.196   2.348  1.1340  1.3787 -0.6243
16729TIP3   OH271677   0.992   0.139  12.094  0.3006  0.5182 -0.0137
16729TIP3    H171678   1.055   0.103  12.156 -0.6679  1.1296  1.3847
16729TIP3    H271679   0.921   0.076  12.092  0.0923  0.7550 -0.1012
16730TIP3   OH271680   3.321   6.701   1.609 -0.1470 -0.1945  0.1732
16730TIP3    H171681   3.275   6.745   1.538  0.0843 -0.8686 -0.4008
16730TIP3    H271682   3.257   6.639   1.644  0.3874 -1.3581 -0.8302
16731TIP3   OH271683   3.020   5.751  13.170  0.5808 -0.6486 -0.1360
16731TIP3    H171684   2.957   5.699  13.120 -3.3703  1.9687  1.6824
16731TIP3    H271685   3.067   5.802  13.104  0.9646 -2.6929 -1.5491
16732TIP3   OH271686   5.437   3.611   3.934 -0.5400  0.0904  0.0430
16732TIP3    H171687   5.342   3.608   3.945 -0.5844 -0.3857 -0.4127
16732TIP3    H271688   5.461   3.520   3.918 -0.1778  0.3872 -1.1855
16733TIP3   OH271689   5.811   3.036  12.011  0.0315 -0.0129 -0.1938
16733TIP3    H171690   5.790   3.048  11.918  0.2448 -0.4282 -0.2965
16733TIP3    H271691   5.743   2.977  12.044  0.2246 -0.2355 -0.1941
16734TIP3   OH271692   2.231   0.923  16.493 -0.0273 -0.3098 -0.0800
16734TIP3    H171693   2.190   0.999  16.451 -0.2609 -0.7878 -0.7384
16734TIP3    H271694   2.225   0.853  16.427 -0.3487 -1.0623  0.7303
16735TIP3   OH271695   3.791   2.442  13.844  0.6695 -0.3213 -0.2556
16735TIP3    H171696   3.867   2.452  13.788  2.3262 -0.1368  1.8965
16735TIP3    H271697   3.816   2.374  13.907 -0.3973  0.6670  1.3084
16736TIP3   OH271698   5.603   4.019  13.263 -0.0812  0.0737  0.1122
16736TIP3    H171699   5.586   3.960  13.190 -0.3139 -2.3866  2.0067
16736TIP3    H271700   5.565   3.974  13.339 -0.4041  2.7911  1.6831
16737TIP3   OH271701   2.857   5.752  14.527  0.0581  0.0545  0.4442
16737TIP3    H171702   2.881   5.761  14.435 -2.8277 -0.4717 -0.4731
16737TIP3    H271703   2.865   5.841  14.563  1.2887  0.2507 -0.2458
16738TIP3   OH271704   2.642   4.017   2.441 -0.1842  0.2501  0.2344
16738TIP3    H171705   2.647   4.001   2.347 -2.9259  0.4551 -0.0334
16738TIP3    H271706   2.658   4.111   2.451  2.2552 -0.0929  0.3001
16739TIP3   OH271707   1.985   0.745  14.487 -0.6924 -0.0844 -0.1759
16739TIP3    H171708   1.967   0.824  14.438 -1.8239  0.7622  1.4891
16739TIP3    H271709   1.899   0.709  14.507 -0.4054  0.4576  2.4126
16740TIP3   OH271710   3.761   3.342  11.307  0.3965 -0.3291  0.7189
16740TIP3    H171711   3.719   3.303  11.231  2.2150 -0.0097 -0.5299
16740TIP3    H271712   3.745   3.280  11.378 -1.3493 -0.6257  0.1102
16741TIP3   OH271713   6.002   4.488  14.078 -0.1035 -0.3257  0.4162
16741TIP3    H171714   5.962   4.524  13.998 -2.3009 -2.7399  0.2718
16741TIP3    H271715   6.052   4.412  14.047 -0.9595 -1.2714  1.2901
16742TIP3   OH271716   0.699   0.080   5.820 -0.3639  0.1066  0.2821
16742TIP3    H171717   0.705   0.116   5.909  2.3307  1.7610 -0.4421
16742TIP3    H271718   0.632   0.134   5.777 -1.6957 -0.7144  1.2434
16743TIP3   OH271719   4.303   6.245  11.178  0.5006  0.2060 -0.0786
16743TIP3    H171720   4.359   6.257  11.102  1.0120  0.2806  0.3067
16743TIP3    H271721   4.277   6.334  11.203 -0.9192  0.1008 -1.0822
16744TIP3   OH271722   1.298   3.836   0.813 -0.1585  0.4537  0.5401
16744TIP3    H171723   1.255   3.821   0.729  1.5996 -0.0398 -0.3193
16744TIP3    H271724   1.230   3.820   0.879 -0.6710 -2.9016 -0.6113
16745TIP3   OH271725   5.234   4.571  12.082  0.3102  0.1432 -0.2166
16745TIP3    H171726   5.194   4.491  12.117 -0.3659  1.1818  1.4851
16745TIP3    H271727   5.193   4.584  11.997 -1.3104 -0.0523  0.5141
16746TIP3   OH271728   2.519   2.429   1.087  0.0339 -0.1733  0.4602
16746TIP3    H171729   2.509   2.440   0.992 -2.1887 -1.2106  0.5210
16746TIP3    H271730   2.430   2.423   1.121  0.7775  0.0439  2.6258
16747TIP3   OH271731   5.926   0.704  16.682 -0.4061  0.1393 -0.5803
16747TIP3    H171732   5.993   0.762  16.647  0.0982 -0.9025 -1.4100
16747TIP3    H271733   5.964   0.670  16.763 -0.0274 -0.2575 -0.9214
16748TIP3   OH271734   1.813   1.914  13.774  0.0268 -0.8731 -0.3740
16748TIP3    H171735   1.778   1.905  13.686  1.2047 -0.1907 -0.9395
16748TIP3    H271736   1.840   2.006  13.780 -0.1038 -0.8894  0.7283
16749TIP3   OH271737   0.070   4.760  10.312  0.4566 -0.3079 -0.4509
16749TIP3    H171738   0.066   4.789  10.403  0.3987 -0.6730 -0.3361
16749TIP3    H271739  -0.022   4.746  10.287  0.3745  0.9376 -0.9439
16750TIP3   OH271740   0.792   6.110   4.938  0.2517 -0.0385 -0.1042
16750TIP3    H171741   0.823   6.050   4.870 -1.2612 -0.3079 -0.5886
16750TIP3    H271742   0.697   6.105   4.933  0.1080  0.7583  1.3269
16751TIP3   OH271743   0.304   1.380   4.227  0.4734  0.0607  0.1795
16751TIP3    H171744   0.263   1.467   4.235 -2.0320 -0.9165 -0.9339
16751TIP3    H271745   0.284   1.337   4.310 -0.7640 -0.3870 -0.3324
16752TIP3   OH271746   6.781   0.933   3.758 -0.2286  0.1116 -0.0894
16752TIP3    H171747   6.836   0.919   3.835 -0.2255  0.5727 -0.0063
16752TIP3    H271748   6.694   0.949   3.794 -0.6944 -1.7465 -0.2450
16753TIP3   OH271749   2.133   0.989   5.059  0.3073 -0.2608 -0.8662
16753TIP3    H171750   2.125   0.953   5.147 -0.1452 -0.0678 -0.8240
16753TIP3    H271751   2.208   1.049   5.063 -0.9568  1.3432 -0.0492
16754TIP3   OH271752   3.830   5.406  11.727  0.4183  0.1738 -0.2531
16754TIP3    H171753   3.752   5.438  11.772  1.2193 -0.6268  1.8260
16754TIP3    H271754   3.865   5.483  11.682 -0.3953  1.0456  0.5549
16755TIP3   OH271755   6.375   1.639   1.867 -0.0503  0.2001  0.0957
16755TIP3    H171756   6.312   1.581   1.825  0.8342 -1.4354  0.9493
16755TIP3    H271757   6.460   1.606   1.839  0.4817  1.1126  0.5973
16756TIP3   OH271758   2.621   2.526   3.778 -0.2320  1.0713  0.0665
16756TIP3    H171759   2.667   2.607   3.798 -0.7281  1.4683 -0.4062
16756TIP3    H271760   2.639   2.509   3.686  2.2366 -0.8843  0.7664
16757TIP3   OH271761   5.767   3.769  14.274 -0.0381 -0.0978 -0.0547
16757TIP3    H171762   5.815   3.687  14.259  0.4319  0.1521  0.0692
16757TIP3    H271763   5.806   3.805  14.353 -1.3902 -0.5857  0.8652
16758TIP3   OH271764   0.298   3.364  12.366  0.2836 -0.0041 -0.3667
16758TIP3    H171765   0.381   3.319  12.381  0.1818  0.0065  0.2718
16758TIP3    H271766   0.321   3.441  12.315  0.3296 -1.2789 -2.3657
16759TIP3   OH271767   5.543   1.930   2.563  0.0789 -0.4918 -0.6645
16759TIP3    H171768   5.631   1.891   2.559 -0.0823 -0.7837 -2.0241
16759TIP3    H271769   5.544   1.984   2.642  0.8609 -1.9556  0.3700
16760TIP3   OH271770   3.295   6.435   1.032  0.0071 -0.1410 -0.2904
16760TIP3    H171771   3.272   6.416   0.941  1.1868  0.5519 -0.7570
16760TIP3    H271772   3.218   6.480   1.067 -0.1166  0.4266 -1.2358
16761TIP3   OH271773   4.588   3.188   5.158 -0.1685  0.1201 -0.4831
16761TIP3    H171774   4.579   3.141   5.241  0.0388  0.9918  0.0542
16761TIP3    H271775   4.507   3.172   5.111  0.0777 -1.1309 -0.5137
16762TIP3   OH271776   0.902   3.624   0.852 -0.1451 -0.3690  0.1523
16762TIP3    H171777   0.966   3.692   0.872 -1.2864  0.7440  0.1127
16762TIP3    H271778   0.955   3.547   0.833  1.2019  0.6525 -0.4150
16763TIP3   OH271779   6.408   3.598  15.194  0.1252  0.3635  0.2424
16763TIP3    H171780   6.445   3.566  15.112  0.7217  0.0910  0.6112
16763TIP3    H271781   6.484   3.619  15.249 -0.2627  0.3969  0.7827
16764TIP3   OH271782   2.937   1.634   5.566 -0.0079  0.3037  0.5334
16764TIP3    H171783   2.976   1.547   5.577 -1.7709 -0.7224 -0.7368
16764TIP3    H271784   2.996   1.678   5.505  1.5553  0.5037  2.0896
16765TIP3   OH271785   6.180   2.564   1.852 -0.0033  0.0877 -0.4508
16765TIP3    H171786   6.185   2.482   1.803 -0.2215  0.1009 -0.4931
16765TIP3    H271787   6.095   2.601   1.830 -0.8530 -0.7399  1.2593
16766TIP3   OH271788   1.017   2.176  14.600 -0.4314 -0.0175  0.0727
16766TIP3    H171789   0.934   2.183  14.553 -0.3092 -0.4435 -0.2178
16766TIP3    H271790   1.020   2.253  14.657 -0.5096  0.5866 -0.7280
16767TIP3   OH271791   4.724   6.025   1.246 -0.0564  0.1919 -0.2499
16767TIP3    H171792   4.693   6.055   1.331  0.7376  0.9989 -0.2231
16767TIP3    H271793   4.736   6.106   1.195  0.0232 -0.2397 -0.9366
16768TIP3   OH271794   2.723   5.419  14.379  0.8356 -0.3700  0.6222
16768TIP3    H171795   2.643   5.407  14.328  2.0426 -2.3618 -0.9715
16768TIP3    H271796   2.729   5.339  14.432  1.0796  0.3932  1.7715
16769TIP3   OH271797   0.614   3.206   6.122  0.3035 -0.4225  0.3489
16769TIP3    H171798   0.621   3.284   6.177  0.1612 -0.4179  0.3607
16769TIP3    H271799   0.641   3.134   6.179  3.0081 -0.1074 -0.3829
16770TIP3   OH271800   1.688   1.054   2.301  0.3420 -0.1224 -0.0587
16770TIP3    H171801   1.623   1.037   2.233 -0.5161  2.3793  0.0709
16770TIP3    H271802   1.741   1.125   2.266  0.6851  0.3471  1.3686
16771TIP3   OH271803   5.573   4.830   1.071  0.2527  0.3333 -0.3608
16771TIP3    H171804   5.528   4.906   1.108  0.9658  1.0085 -0.8374
16771TIP3    H271805   5.665   4.857   1.066  0.3762 -0.2248 -1.3811
16772TIP3   OH271806   2.671   1.283   6.381 -0.0835  0.0367 -0.1728
16772TIP3    H171807   2.759   1.248   6.397 -0.0728  1.2320  3.2006
16772TIP3    H271808   2.622   1.209   6.346  1.5208 -1.5457  0.7588
16773TIP3   OH271809   3.830   2.600  17.041 -0.1913 -0.8197  0.5242
16773TIP3    H171810   3.906   2.555  17.079 -0.1879 -1.2530  0.0160
16773TIP3    H271811   3.815   2.555  16.958 -0.2395  0.0729  0.0367
16774TIP3   OH271812   3.691   6.473  11.637  0.0342 -0.0343  0.0256
16774TIP3    H171813   3.670   6.392  11.684  1.7032 -1.0253 -0.8430
16774TIP3    H271814   3.660   6.457  11.548  0.1887  0.3604 -0.0983
16775TIP3   OH271815   1.262   3.398  17.002  0.5899 -0.1069 -0.0915
16775TIP3    H171816   1.187   3.458  16.999  0.8446  0.1623 -1.5178
16775TIP3    H271817   1.237   3.325  16.946  1.3099 -0.1140 -0.4078
16776TIP3   OH271818   2.153   0.561   1.285 -0.1518 -0.6266 -0.4389
16776TIP3    H171819   2.138   0.467   1.272 -0.4586 -0.2696 -3.1824
16776TIP3    H271820   2.105   0.604   1.214 -0.6086  1.6960  1.1612
16777TIP3   OH271821   0.585   1.588   2.631  0.0423  0.4431 -0.0655
16777TIP3    H171822   0.517   1.569   2.568  0.0590 -0.3083  0.1390
16777TIP3    H271823   0.581   1.683   2.644  0.0303  0.5992 -1.1739
16778TIP3   OH271824   2.420   4.634   3.943  0.0269  0.3672  0.1959
16778TIP3    H171825   2.462   4.549   3.935 -0.8806  0.0908 -2.5628
16778TIP3    H271826   2.328   4.613   3.962 -0.0756  0.7688  0.1451
16779TIP3   OH271827   2.042   4.582  15.117  0.8143 -0.4827  0.3554
16779TIP3    H171828   2.032   4.670  15.152  0.6598 -0.7457  0.9900
16779TIP3    H271829   1.964   4.568  15.063 -0.5690 -1.1994  2.3969
16780TIP3   OH271830   5.492   2.626   1.306 -0.2646  0.0330  0.0504
16780TIP3    H171831   5.569   2.683   1.302 -1.0147  1.0340 -0.3274
16780TIP3    H271832   5.506   2.563   1.235  0.7717 -0.5476  0.7336
16781TIP3   OH271833   3.386   0.628  11.887 -0.3559 -0.6394 -0.2371
16781TIP3    H171834   3.445   0.676  11.945 -0.8706 -1.0307  0.6230
16781TIP3    H271835   3.436   0.552  11.859  0.4514  0.3344 -1.5713
16782TIP3   OH271836   0.251   3.595   0.609  0.0393 -0.4930 -0.7319
16782TIP3    H171837   0.224   3.530   0.544 -0.5994  0.6084 -1.5995
16782TIP3    H271838   0.223   3.558   0.693 -0.7129 -1.1433 -1.2533
16783TIP3   OH271839   3.798   2.403   4.740 -0.7186  0.2877  0.4102
16783TIP3    H171840   3.819   2.309   4.737 -0.7853  0.2831  0.0390
16783TIP3    H271841   3.826   2.431   4.827  0.4529  0.1844  0.0823
16784TIP3   OH271842   2.233   0.420   1.607  0.2542  0.0437 -0.4947
16784TIP3    H171843   2.302   0.448   1.667 -0.2975  1.6078 -0.5527
16784TIP3    H271844   2.276   0.414   1.522  0.5765 -0.1913 -0.3187
16785TIP3   OH271845   6.183   1.142   5.147  0.5111 -0.1284  0.0602
16785TIP3    H171846   6.096   1.180   5.159  0.4119 -0.5326  0.6570
16785TIP3    H271847   6.241   1.203   5.192  0.3157 -0.8186  1.3030
16786TIP3   OH271848   4.462   0.990  15.293 -0.4222  0.4102  0.7772
16786TIP3    H171849   4.396   0.935  15.250 -2.0716  0.7523  2.6968
16786TIP3    H271850   4.442   1.079  15.263 -0.1171  0.3935  0.5187
16787TIP3   OH271851   5.482   0.075  12.337  0.4075 -0.2431 -0.5651
16787TIP3    H171852   5.529   0.004  12.292  2.5342  0.7930 -0.1056
16787TIP3    H271853   5.435   0.031  12.408  2.5895 -1.1026  0.4196
16788TIP3   OH271854   1.810   5.855  10.812 -0.0577  0.3872  0.6673
16788TIP3    H171855   1.768   5.839  10.727 -1.6156  0.4263  1.4107
16788TIP3    H271856   1.848   5.771  10.836  2.3681  0.8573 -1.0457
16789TIP3   OH271857   3.621   3.197   4.591 -0.5586 -0.9315  0.1432
16789TIP3    H171858   3.631   3.292   4.581  0.8148 -0.9034  1.4958
16789TIP3    H271859   3.625   3.164   4.501 -0.4672  0.2343 -0.3090
16790TIP3   OH271860   6.638   2.941  14.765 -0.6906 -0.3241 -0.3300
16790TIP3    H171861   6.709   3.003  14.781 -1.4669  0.0923  1.8713
16790TIP3    H271862   6.568   2.994  14.728 -0.5717 -0.3379 -0.5764
16791TIP3   OH271863   6.618   3.779   2.107 -0.1432 -0.5275  0.2214
16791TIP3    H171864   6.650   3.708   2.052  2.3059 -0.3039  1.2661
16791TIP3    H271865   6.696   3.826   2.135 -1.3023 -0.2415  3.3731
16792TIP3   OH271866   3.868   3.853  14.286 -0.2325 -0.2402 -0.1851
16792TIP3    H171867   3.844   3.821  14.373  2.6362 -0.9523  0.4387
16792TIP3    H271868   3.850   3.947  14.289  0.8705 -0.0401  1.6044
16793TIP3   OH271869   1.316   0.768   6.054 -0.4580 -0.2868  0.4173
16793TIP3    H171870   1.316   0.744   6.146  1.8547 -0.0764  0.5300
16793TIP3    H271871   1.371   0.846   6.049 -1.7905  0.6273 -0.9608
16794TIP3   OH271872   6.590   1.792   5.294 -0.3206  0.3101  0.5246
16794TIP3    H171873   6.535   1.819   5.220  3.5554  0.3676 -2.6731
16794TIP3    H271874   6.589   1.867   5.353 -0.7693  1.7789 -1.2567
16795TIP3   OH271875   2.673   6.438   5.409  0.1654 -0.5120  0.6952
16795TIP3    H171876   2.626   6.356   5.418  2.0294 -1.6674  0.5081
16795TIP3    H271877   2.742   6.434   5.476  1.0948  0.2881 -0.1633
16796TIP3   OH271878   3.866   2.500   3.326  0.5002  0.1331  0.2504
16796TIP3    H171879   3.903   2.412   3.322  3.7712  1.4311 -0.9569
16796TIP3    H271880   3.938   2.556   3.354 -0.8239  2.7560 -1.1745
16797TIP3   OH271881   0.744   1.224   3.090  0.1392  0.1153  0.0291
16797TIP3    H171882   0.764   1.161   3.020  0.9683 -0.4188  0.7326
16797TIP3    H271883   0.721   1.305   3.043 -1.9414 -0.9498 -0.9189
16798TIP3   OH271884   3.254   0.150  12.207 -0.3275  0.1977  0.2574
16798TIP3    H171885   3.226   0.242  12.211  0.6789  0.4799  1.0677
16798TIP3    H271886   3.284   0.130  12.295  0.9206 -0.4339 -0.2900
16799TIP3   OH271887   3.757   0.200  13.476  0.4757 -0.4567 -0.3569
16799TIP3    H171888   3.691   0.143  13.516  0.6244 -2.3617 -2.6052
16799TIP3    H271889   3.785   0.152  13.398  1.9431  1.9357 -1.3873
16800TIP3   OH271890   1.822   3.427  14.126 -0.0651  0.4716 -0.2022
16800TIP3    H171891   1.860   3.476  14.199 -1.4209 -0.0108  0.8569
16800TIP3    H271892   1.740   3.392  14.160 -0.1959 -0.7054 -1.6203
16801TIP3   OH271893   5.685   4.717   3.848 -0.5844  0.3863 -0.2764
16801TIP3    H171894   5.601   4.720   3.893  0.3853  0.8023  1.6075
16801TIP3    H271895   5.714   4.808   3.845 -0.6100  0.3690 -1.7877
16802TIP3   OH271896   2.888   6.376  15.319  0.1203 -0.7250  0.4790
16802TIP3    H171897   2.839   6.446  15.276  1.5757  0.9731  1.4333
16802TIP3    H271898   2.915   6.318  15.248 -0.0220  0.4065 -0.5401
16803TIP3   OH271899   3.353   3.462  12.325 -0.2342 -0.2912  0.0907
16803TIP3    H171900   3.322   3.550  12.301  1.3793  0.6627  1.3218
16803TIP3    H271901   3.331   3.453  12.418  3.0477  0.4799  1.0659
16804TIP3   OH271902   3.737   0.490   5.496  0.1214 -0.8389  0.5003
16804TIP3    H171903   3.801   0.441   5.444 -0.4238 -0.3014 -0.7303
16804TIP3    H271904   3.755   0.582   5.475  1.6996 -0.3716  3.4273
16805TIP3   OH271905   1.618   3.814  11.065  0.2230  0.0800  0.2563
16805TIP3    H171906   1.610   3.845  11.155  1.0581 -0.2089  0.4408
16805TIP3    H271907   1.684   3.871  11.026 -1.6863  1.6753 -0.8691
16806TIP3   OH271908   1.975   0.305   2.263 -0.0579 -0.3941 -0.0512
16806TIP3    H171909   2.046   0.262   2.215  0.4454  0.8683 -0.4769
16806TIP3    H271910   2.019   0.346   2.338 -0.7114 -1.6160  1.0454
16807TIP3   OH271911   3.855   4.006  15.583 -0.0425  0.3510  0.1844
16807TIP3    H171912   3.856   4.086  15.634  1.7667  0.3561  0.1876
16807TIP3    H271913   3.946   3.978  15.579 -0.3225 -0.4870 -1.7354
16808TIP3   OH271914   4.623   6.175   4.907 -0.0244 -0.0141 -0.3320
16808TIP3    H171915   4.702   6.127   4.881 -0.7936 -1.8215  0.4904
16808TIP3    H271916   4.656   6.247   4.961  1.0171 -1.6113  1.2741
16809TIP3   OH271917   3.071   6.135  11.547 -0.0702  0.4118 -0.2646
16809TIP3    H171918   3.082   6.101  11.459 -1.6579 -0.0980 -0.2989
16809TIP3    H271919   3.152   6.182  11.566  1.5385 -2.0047 -0.8295
16810TIP3   OH271920   4.316   3.411   1.982 -0.2778  0.4084  0.1443
16810TIP3    H171921   4.355   3.381   2.064  1.0677 -1.1445 -0.9876
16810TIP3    H271922   4.247   3.347   1.964 -0.3448  0.5452 -0.0888
16811TIP3   OH271923   0.668   4.600   5.350  0.1129  0.1574  0.2992
16811TIP3    H171924   0.665   4.506   5.365 -1.5046  0.0806 -0.2767
16811TIP3    H271925   0.576   4.628   5.352  0.4289  1.4739 -0.9795
16812TIP3   OH271926   3.918   2.273   2.782 -0.0648  0.6853  0.2472
16812TIP3    H171927   3.889   2.189   2.747 -0.9801  0.2456  1.9602
16812TIP3    H271928   4.012   2.274   2.766 -0.1405 -0.3895 -0.3544
16813TIP3   OH271929   6.789   2.777  15.076  0.8708 -0.0650  0.2542
16813TIP3    H171930   6.781   2.866  15.111  0.0138  0.4603 -1.1872
16813TIP3    H271931   6.858   2.783  15.010 -0.7425  0.1227 -1.4854
16814TIP3   OH271932   1.943   0.707   2.193  0.2860  0.2698  0.1461
16814TIP3    H171933   2.009   0.744   2.252  1.3473 -1.5936  0.1771
16814TIP3    H271934   1.967   0.740   2.107  1.0727 -0.1005  0.2101
16815TIP3   OH271935   4.138   6.243   4.839 -0.4844 -0.2083  0.2688
16815TIP3    H171936   4.225   6.207   4.854  0.5162  1.5715 -0.9079
16815TIP3    H271937   4.112   6.208   4.754 -0.4337  0.1513  0.1055
16816TIP3   OH271938   3.697   2.655  14.526  0.2393  0.2022  0.0106
16816TIP3    H171939   3.723   2.712  14.455 -0.4066 -0.0861 -0.4725
16816TIP3    H271940   3.614   2.691  14.558  1.1513  1.0764  1.4820
16817TIP3   OH271941   5.761   1.555  16.497 -0.2288 -0.0754  0.2817
16817TIP3    H171942   5.714   1.630  16.535  0.0813  1.0524 -1.4369
16817TIP3    H271943   5.756   1.569  16.402  2.3909 -0.6337 -0.0100
16818TIP3   OH271944   3.733   6.311   5.527 -0.2652  0.2754  0.3377
16818TIP3    H171945   3.651   6.266   5.547 -0.9804  1.1807 -0.4448
16818TIP3    H271946   3.728   6.327   5.433 -0.4565  2.7698  0.7256
16819TIP3   OH271947   6.011   5.901   4.150  0.6582  0.1474 -0.4679
16819TIP3    H171948   5.987   5.879   4.060  2.6989  0.4321 -1.1369
16819TIP3    H271949   6.015   5.997   4.151 -0.7564  0.2105  0.3356
16820TIP3   OH271950   3.806   1.674   3.231  0.1246 -0.5097  0.0746
16820TIP3    H171951   3.735   1.699   3.171  1.5035 -2.1666 -2.4098
16820TIP3    H271952   3.760   1.642   3.309 -1.8422 -0.3395 -0.9396
16821TIP3   OH271953   5.147   2.958  13.471 -0.2762  0.1447 -0.2878
16821TIP3    H171954   5.159   2.954  13.376 -0.8232 -0.1665 -0.3523
16821TIP3    H271955   5.211   2.897  13.506 -1.6743 -1.5862 -0.6228
16822TIP3   OH271956   1.252   6.305   3.480 -0.2075  0.0018  0.0489
16822TIP3    H171957   1.282   6.220   3.511  1.2089 -0.4523 -2.3302
16822TIP3    H271958   1.237   6.356   3.560  0.4425 -1.9448  1.4873
16823TIP3   OH271959   1.154   6.550  11.520 -0.7790 -0.3298  0.0349
16823TIP3    H171960   1.236   6.582  11.482 -0.7960 -1.1977 -0.7728
16823TIP3    H271961   1.182   6.486  11.586 -0.8069 -1.2013 -0.7817
16824TIP3   OH271962   3.255   6.406  14.109  0.1660  0.9238 -0.1051
16824TIP3    H171963   3.275   6.386  14.018  0.9352 -0.5698  0.3476
16824TIP3    H271964   3.176   6.355  14.127  2.2652 -2.1960  1.1284
16825TIP3   OH271965   2.511   6.286   4.323 -0.0733 -0.0003 -0.1965
16825TIP3    H171966   2.419   6.268   4.302  0.4783 -2.0299 -1.0758
16825TIP3    H271967   2.553   6.201   4.323  1.9266  0.9320 -0.2936
16826TIP3   OH271968   2.405   4.821  12.513  0.3268  0.0333 -0.0112
16826TIP3    H171969   2.339   4.840  12.580 -1.3401 -2.7237 -0.7394
16826TIP3    H271970   2.472   4.770  12.560 -0.4384 -1.2028 -0.2301
16827TIP3   OH271971   5.956   5.668  15.117 -0.5462  0.1645  0.3656
16827TIP3    H171972   5.863   5.673  15.138 -0.6482  0.3462 -0.1082
16827TIP3    H271973   5.976   5.574  15.119 -0.3945  0.2032  1.8810
16828TIP3   OH271974   2.363   3.142  14.430  0.1101 -0.1416  0.0453
16828TIP3    H171975   2.346   3.057  14.388 -0.3447 -0.5091  0.9392
16828TIP3    H271976   2.282   3.191  14.418  0.1894 -0.0268 -0.0203
16829TIP3   OH271977   6.664   3.046  13.100 -0.7080  0.1963 -0.1164
16829TIP3    H171978   6.696   3.095  13.176 -0.5557  0.6678 -0.4814
16829TIP3    H271979   6.684   2.955  13.120  2.4207  0.5719 -1.0363
16830TIP3   OH271980   2.325   1.458   6.204  0.1684 -0.1324  0.1836
16830TIP3    H171981   2.409   1.488   6.239  0.3721  0.4362 -0.7763
16830TIP3    H271982   2.299   1.387   6.263  2.7301 -2.3452 -1.1362
16831TIP3   OH271983   2.302   1.026  15.871  0.1140 -0.6191  0.1836
16831TIP3    H171984   2.310   0.943  15.918  1.0908 -1.3009 -1.1349
16831TIP3    H271985   2.348   1.012  15.788 -2.5447  0.1176 -1.5523
16832TIP3   OH271986   4.513   5.341  14.907  0.7322  0.1771  0.0383
16832TIP3    H171987   4.539   5.249  14.900 -0.7998 -0.3131  0.3782
16832TIP3    H271988   4.595   5.388  14.919  1.4228 -1.3515  1.9148
16833TIP3   OH271989   3.525   5.265   2.502 -0.2896  0.2814 -0.5160
16833TIP3    H171990   3.468   5.296   2.431 -1.5861  1.1591  0.8503
16833TIP3    H271991   3.484   5.298   2.582  1.6079  0.0638  0.6080
16834TIP3   OH271992   6.795   5.591  14.360 -0.2570  0.0441  0.1592
16834TIP3    H171993   6.883   5.628  14.365 -0.9009  1.4336  2.4074
16834TIP3    H271994   6.740   5.661  14.325 -0.6870 -0.3958 -0.0731
16835TIP3   OH271995   3.799   0.089   2.785  0.0506  0.7976 -0.0818
16835TIP3    H171996   3.834   0.158   2.727 -0.0208 -0.1477 -1.2962
16835TIP3    H271997   3.757   0.027   2.725  0.8492 -0.7479  0.8864
16836TIP3   OH271998   5.838   4.772  11.271  0.2806  0.4519 -0.0132
16836TIP3    H171999   5.839   4.711  11.198  1.4835 -0.3943  0.6785
16836TIP3    H272000   5.841   4.858  11.231  0.3417  0.0148 -0.9678
16837TIP3   OH272001   0.533   6.197   2.730 -0.3895  0.2611  0.3429
16837TIP3    H172002   0.576   6.178   2.647 -1.2031 -1.1079  0.1912
16837TIP3    H272003   0.574   6.136   2.792  0.1897  1.2496  0.9614
16838TIP3   OH272004   1.794   0.665   2.604  0.1038  0.0031  0.0258
16838TIP3    H172005   1.749   0.701   2.528  0.3246 -0.9550 -0.5744
16838TIP3    H272006   1.873   0.718   2.612  0.7590 -0.7327 -1.2572
16839TIP3   OH272007   3.493   4.182  12.669  0.2344  0.2989  0.2672
16839TIP3    H172008   3.404   4.180  12.634  0.8467 -1.7541 -1.4388
16839TIP3    H272009   3.496   4.110  12.732  0.9752 -0.4543 -0.5964
16840TIP3   OH272010   5.883   1.863   4.867 -0.5675 -0.1562 -0.5966
16840TIP3    H172011   5.892   1.892   4.958 -0.8585 -1.7956 -0.0101
16840TIP3    H272012   5.790   1.872   4.848 -0.9665 -2.1914  0.1610
16841TIP3   OH272013   6.818   2.094  15.522 -0.3226 -0.2534 -0.2646
16841TIP3    H172014   6.820   2.146  15.441 -1.0370  0.4237  0.1482
16841TIP3    H272015   6.811   2.158  15.592 -1.1539 -0.8965  0.2621
16842TIP3   OH272016   3.631   4.176   5.524  0.5351 -0.2276 -0.3191
16842TIP3    H172017   3.604   4.097   5.570 -1.2450  0.6059  0.1507
16842TIP3    H272018   3.688   4.145   5.454 -1.8124 -2.1995 -1.5122
16843TIP3   OH272019   3.541   2.453   0.505  0.0574 -0.5244  0.3948
16843TIP3    H172020   3.512   2.364   0.523  0.2528 -0.3834  1.4567
16843TIP3    H272021   3.478   2.487   0.441  0.0427 -1.4466 -0.0942
16844TIP3   OH272022   3.400   3.636   0.441 -0.4594 -0.0631 -0.4778
16844TIP3    H172023   3.474   3.643   0.501 -0.3121 -0.5703 -0.5967
16844TIP3    H272024   3.438   3.649   0.354 -0.9076  2.3047 -0.3931
16845TIP3   OH272025   5.617   3.346  13.857  0.1845  0.2752  0.4184
16845TIP3    H172026   5.555   3.279  13.829  1.0611  0.1470 -1.3402
16845TIP3    H272027   5.685   3.297  13.904  0.3595  0.0455 -0.0710
16846TIP3   OH272028   3.954   5.655   1.278  0.0636 -0.4694 -0.4555
16846TIP3    H172029   4.004   5.584   1.239  1.1707 -1.4457  2.4775
16846TIP3    H272030   3.863   5.633   1.260  0.4534 -1.9895 -0.6881
16847TIP3   OH272031   2.129   6.216   2.998 -0.4204 -0.2132  0.0570
16847TIP3    H172032   2.169   6.186   2.916 -1.6039 -0.9763 -0.2635
16847TIP3    H272033   2.202   6.254   3.047  0.9462 -2.4985 -0.0327
16848TIP3   OH272034   0.255   3.654   3.563 -0.2739 -0.5422 -0.1795
16848TIP3    H172035   0.322   3.604   3.609  1.0431 -0.5079 -1.9749
16848TIP3    H272036   0.268   3.744   3.592  0.1937 -0.6002 -0.2022
16849TIP3   OH272037   0.828   4.232  12.819  0.0045  0.2580 -0.1459
16849TIP3    H172038   0.846   4.174  12.893  2.2421  1.7684  0.6024
16849TIP3    H272039   0.826   4.320  12.857 -0.9383  0.9082 -1.5886
16850TIP3   OH272040   4.721   3.654  16.989 -0.0213 -0.3437  0.2893
16850TIP3    H172041   4.731   3.663  16.894 -0.7477  0.5242  0.2826
16850TIP3    H272042   4.657   3.721  17.013 -2.2003 -2.5558  0.9873
16851TIP3   OH272043   3.166   5.119  13.761 -0.1693  0.1104  0.3118
16851TIP3    H172044   3.180   5.059  13.688 -0.5151  1.6053 -1.0266
16851TIP3    H272045   3.132   5.063  13.832  2.4225 -1.8042  0.2042
16852TIP3   OH272046   0.872   0.312  13.811 -0.4736 -0.2478  0.4270
16852TIP3    H172047   0.816   0.380  13.847  0.0764  0.5700 -0.2163
16852TIP3    H272048   0.901   0.262  13.888 -1.3687 -0.1443  0.8460
16853TIP3   OH272049   4.833   5.863   5.346 -0.3595  0.0162 -0.0310
16853TIP3    H172050   4.775   5.853   5.422 -0.4854 -0.1872 -0.1524
16853TIP3    H272051   4.885   5.941   5.366 -1.5151  0.9346 -0.4680
16854TIP3   OH272052   1.565   0.967   2.082  0.2089  0.5372 -0.8195
16854TIP3    H172053   1.637   0.944   2.022  2.5262  1.6539  1.3602
16854TIP3    H272054   1.513   0.886   2.088  1.2261 -0.3150 -2.4951
16855TIP3   OH272055   0.787   1.569  15.432  0.2323  0.2936  0.5121
16855TIP3    H172056   0.713   1.601  15.381 -0.9665  1.0162  2.5955
16855TIP3    H272057   0.817   1.491  15.385 -0.6908  1.0028 -1.3372
16856TIP3   OH272058   4.938   0.446   4.193  0.1378 -0.1869  0.6811
16856TIP3    H172059   5.004   0.483   4.134  0.4761 -0.3896  0.9248
16856TIP3    H272060   4.987   0.428   4.273  0.2503 -2.1898  0.2126
16857TIP3   OH272061   2.263   5.830   0.055 -0.0319 -0.1036  0.0324
16857TIP3    H172062   2.304   5.850  -0.029  1.1471  0.0651  0.6353
16857TIP3    H272063   2.296   5.743   0.078 -1.2072 -0.6326 -0.1771
16858TIP3   OH272064   4.276   4.614   2.685 -0.5733  0.5171  0.2023
16858TIP3    H172065   4.213   4.545   2.665 -0.0926  0.1070  0.1068
16858TIP3    H272066   4.323   4.629   2.603 -0.0613  0.3229  0.4586
16859TIP3   OH272067   1.828   6.603  16.734  0.5134  0.2571 -0.3864
16859TIP3    H172068   1.846   6.558  16.816  1.4437  0.7584 -0.3170
16859TIP3    H272069   1.892   6.567  16.672  1.8665  2.0877 -0.1148
16860TIP3   OH272070   3.680   2.162  12.394 -0.2013 -0.6671 -0.5605
16860TIP3    H172071   3.637   2.156  12.309  0.7986  3.9956 -1.6595
16860TIP3    H272072   3.614   2.200  12.452  0.5037  0.6287 -0.5783
16861TIP3   OH272073   6.679   4.093  11.034  0.4577 -0.0108  0.6886
16861TIP3    H172074   6.635   4.175  11.014 -0.7184 -1.2522 -2.5515
16861TIP3    H272075   6.750   4.087  10.970 -0.0967 -1.9235  0.1878
16862TIP3   OH272076   5.398   5.696  12.933 -0.4927  0.1578 -0.8506
16862TIP3    H172077   5.393   5.759  12.860  0.6996  1.6069  0.2495
16862TIP3    H272078   5.336   5.730  12.998 -0.1921 -0.0785 -0.4407
16863TIP3   OH272079   1.128   5.175  15.447  0.8580 -0.4267  0.1259
16863TIP3    H172080   1.138   5.245  15.511  1.9730 -1.3363  0.9903
16863TIP3    H272081   1.120   5.220  15.363  1.1223  0.7357  0.7078
16864TIP3   OH272082   1.659   3.916  16.173 -0.4353 -0.6526  0.7009
16864TIP3    H172083   1.632   3.882  16.088  1.0881 -0.3258  0.0437
16864TIP3    H272084   1.636   4.009  16.171  1.9532  0.0155 -0.5001
16865TIP3   OH272085   1.697   3.597  16.047  0.0920 -0.3095  0.2448
16865TIP3    H172086   1.647   3.663  15.998 -2.0414 -0.8449  1.5595
16865TIP3    H272087   1.738   3.543  15.979 -1.8632 -0.3558 -0.9970
16866TIP3   OH272088   1.677   0.773   4.642 -0.4307 -0.1005 -0.6334
16866TIP3    H172089   1.615   0.734   4.580 -1.2206 -0.5813  0.4258
16866TIP3    H272090   1.623   0.825   4.702  0.2035 -0.3235  0.1582
16867TIP3   OH272091   6.066   6.742  12.437 -0.2751 -0.1682 -0.5994
16867TIP3    H172092   6.079   6.787  12.521 -0.3814 -1.1634 -0.0407
16867TIP3    H272093   6.136   6.777  12.381  0.4082 -0.2136  0.2032
16868TIP3   OH272094   2.275   0.615   5.637 -0.0008  0.5261 -0.7645
16868TIP3    H172095   2.230   0.700   5.633  1.0868  1.1910  0.2839
16868TIP3    H272096   2.352   0.626   5.582  2.2945  1.6664  2.4013
16869TIP3   OH272097   2.416   0.654  12.838 -0.0522 -0.0196  0.6692
16869TIP3    H172098   2.329   0.647  12.877  0.4192  2.5725  2.4831
16869TIP3    H272099   2.419   0.743  12.803  1.6269 -0.2919  0.0460
16870TIP3   OH272100   6.266   1.188  14.423 -0.4241  0.2846  0.6186
16870TIP3    H172101   6.171   1.194  14.416 -0.6081 -1.2768  1.4133
16870TIP3    H272102   6.285   1.209  14.514 -0.1092 -0.3213  0.6967
16871TIP3   OH272103   0.979   4.394  11.116  0.6479  0.1730 -0.5839
16871TIP3    H172104   1.007   4.342  11.191 -2.5748 -1.6515 -0.4685
16871TIP3    H272105   1.023   4.354  11.041  1.2375 -0.1991 -0.0494
16872TIP3   OH272106   5.920   5.884   3.860 -0.2822  0.1986  0.6035
16872TIP3    H172107   6.006   5.903   3.823 -0.3446 -0.9070 -0.1628
16872TIP3    H272108   5.858   5.925   3.800 -0.3802 -1.5281 -0.5490
16873TIP3   OH272109   4.672   5.248  13.102  0.2827 -0.3412  0.6409
16873TIP3    H172110   4.719   5.209  13.028  0.2805 -0.4150  0.6782
16873TIP3    H272111   4.596   5.191  13.114 -0.4976  0.4846 -0.2132
16874TIP3   OH272112   2.217   1.876   2.612  0.2996 -0.1750  0.1014
16874TIP3    H172113   2.250   1.963   2.634  2.2929 -0.6142 -0.9881
16874TIP3    H272114   2.264   1.816   2.670 -0.8854 -0.5865  0.6807
16875TIP3   OH272115   4.098   2.069   0.734  0.5929  0.0887 -0.2275
16875TIP3    H172116   4.094   2.102   0.824 -0.9406 -0.2661 -0.1429
16875TIP3    H272117   4.126   2.145   0.683 -2.2513  1.4690  0.0573
16876TIP3   OH272118   3.098   3.560  15.054 -0.0759  0.2532 -0.2256
16876TIP3    H172119   3.172   3.533  15.108 -0.5692 -1.7441 -0.4667
16876TIP3    H272120   3.134   3.568  14.966 -0.2596 -1.5490 -0.5005
16877TIP3   OH272121   0.453   3.543  11.362 -0.0430  0.4085  0.5670
16877TIP3    H172122   0.527   3.572  11.308 -0.5952  0.9197  0.0798
16877TIP3    H272123   0.441   3.613  11.425 -0.1164  0.3241  0.6464
16878TIP3   OH272124   2.167   4.911   2.813  0.3402  0.0828 -0.1333
16878TIP3    H172125   2.198   4.916   2.903  0.6347  1.3694 -0.2841
16878TIP3    H272126   2.143   4.819   2.801 -0.5887  0.0751  1.5349
16879TIP3   OH272127   0.496   5.201  12.177  0.1784 -0.1648 -0.2572
16879TIP3    H172128   0.431   5.143  12.216  1.4083 -0.5001  1.4069
16879TIP3    H272129   0.576   5.186  12.229  0.9670  1.8384 -0.8011
16880TIP3   OH272130   2.797   6.073   6.029 -0.2952  0.1254  0.4379
16880TIP3    H172131   2.791   6.140   6.097  2.0016  2.1782 -1.2434
16880TIP3    H272132   2.885   6.036   6.039  0.6336  1.4064 -2.1072
16881TIP3   OH272133   4.191   0.580   2.200  0.1141 -0.3314  0.1333
16881TIP3    H172134   4.122   0.589   2.134  0.1717 -1.0809 -0.0361
16881TIP3    H272135   4.201   0.485   2.211 -0.3171 -0.2170  1.6688
16882TIP3   OH272136   1.647   3.245  12.858  0.4070  0.6718 -0.4970
16882TIP3    H172137   1.719   3.251  12.795 -0.5480 -0.1630 -1.7110
16882TIP3    H272138   1.571   3.222  12.805 -0.1327 -1.6605  1.1609
16883TIP3   OH272139   3.763   0.735  16.032 -0.4163  0.5261 -0.2374
16883TIP3    H172140   3.843   0.688  16.010 -0.3088  1.0878 -1.1028
16883TIP3    H272141   3.779   0.768  16.121  0.2716  0.5438 -0.3588
16884TIP3   OH272142   3.284   5.505  16.270  0.1744  0.1371  0.0677
16884TIP3    H172143   3.379   5.514  16.257  0.3930 -0.8484  0.8975
16884TIP3    H272144   3.263   5.418  16.239 -0.5022  0.4173 -0.2794
16885TIP3   OH272145   3.036   1.606  17.022 -0.3045 -0.4873 -0.0947
16885TIP3    H172146   2.975   1.679  17.008  0.2901 -0.3769 -2.6386
16885TIP3    H272147   3.061   1.613  17.114 -3.7215 -0.2582  0.9738
16886TIP3   OH272148   5.434   5.537  14.285  1.0161  0.7041  0.1057
16886TIP3    H172149   5.523   5.511  14.306  1.3293  1.3402 -0.4060
16886TIP3    H272150   5.435   5.554  14.190  0.1427 -0.1182 -0.0753
16887TIP3   OH272151   6.260   5.256   4.872 -0.2873  0.3680 -0.2200
16887TIP3    H172152   6.322   5.280   4.940 -1.8369 -3.0598  2.7975
16887TIP3    H272153   6.314   5.226   4.798  1.4949  1.9390  0.3822
16888TIP3   OH272154   0.340   0.132   5.462 -0.6048 -0.3137  0.5552
16888TIP3    H172155   0.405   0.176   5.407 -0.3668  0.9641  1.7811
16888TIP3    H272156   0.375   0.140   5.551 -0.3687 -3.3648  0.8495
16889TIP3   OH272157   3.886   0.499   2.172 -0.2841 -0.2611 -0.1045
16889TIP3    H172158   3.861   0.539   2.256 -1.0248  0.7524 -0.7883
16889TIP3    H272159   3.817   0.437   2.153 -0.6577  0.2537 -0.4542
16890TIP3   OH272160   6.804   6.032   1.275  0.7053  0.1446 -0.6370
16890TIP3    H172161   6.708   6.028   1.269  0.8457 -0.8898 -2.9448
16890TIP3    H272162   6.823   6.126   1.286 -0.5473  0.4205 -0.6743
16891TIP3   OH272163   1.724   6.733   1.642 -0.3064 -0.2865  0.0025
16891TIP3    H172164   1.711   6.821   1.677 -0.0382  0.1273 -0.8908
16891TIP3    H272165   1.637   6.704   1.616 -0.0173  1.2703 -3.1967
16892TIP3   OH272166   4.574   6.233  15.628  0.2493  0.7141  0.1864
16892TIP3    H172167   4.599   6.239  15.720  1.0451  1.4898 -0.0688
16892TIP3    H272168   4.510   6.162  15.625 -0.2404  1.0886  1.4217
16893TIP3   OH272169   2.837   1.609  15.962  0.3468 -0.1173  0.2685
16893TIP3    H172170   2.777   1.621  16.036  0.8416  0.2432  0.6216
16893TIP3    H272171   2.787   1.639  15.886 -0.1065 -0.3229  0.4807
16894TIP3   OH272172   2.713   0.682  16.372 -0.3365  0.4766 -0.0823
16894TIP3    H172173   2.662   0.656  16.448 -0.1777  1.3262  0.3227
16894TIP3    H272174   2.757   0.763  16.399  2.0552 -0.7457 -0.0251
16895TIP3   OH272175   0.257   5.997  11.633 -0.5486 -0.3161 -0.7998
16895TIP3    H172176   0.247   6.091  11.623 -1.7900 -0.4008 -0.5346
16895TIP3    H272177   0.202   5.959  11.564  1.1626 -0.8630 -1.9197
16896TIP3   OH272178   1.584   6.748  16.954 -0.3380  0.1426  0.4470
16896TIP3    H172179   1.495   6.717  16.937 -0.0638 -0.6287  0.3976
16896TIP3    H272180   1.613   6.786  16.871 -0.0175 -1.1127 -0.0352
16897TIP3   OH272181   0.230   1.296  14.929  0.2698 -0.5305  0.0422
16897TIP3    H172182   0.186   1.211  14.939 -1.1678 -0.0140 -1.4025
16897TIP3    H272183   0.289   1.302  15.004  0.9304 -3.1026 -0.1953
16898TIP3   OH272184   1.587   2.157   0.392 -0.4423 -0.4256 -0.5243
16898TIP3    H172185   1.550   2.243   0.413  0.9402 -0.5503  3.1120
16898TIP3    H272186   1.639   2.172   0.314 -1.4318  1.6732 -0.8589
16899TIP3   OH272187   1.458   4.550  15.481  0.2312  0.2225  0.6343
16899TIP3    H172188   1.478   4.619  15.418  0.4103 -1.1298 -0.8491
16899TIP3    H272189   1.496   4.471  15.443 -0.3969 -0.7990  2.0399
16900TIP3   OH272190   6.568   4.881   1.387  0.2416 -0.0724  0.2398
16900TIP3    H172191   6.544   4.805   1.335 -0.4874 -1.3765  2.3217
16900TIP3    H272192   6.485   4.928   1.400  0.5118  0.5321 -0.2354
16901TIP3   OH272193   3.648   5.795   5.167 -0.1879  0.6115 -0.6451
16901TIP3    H172194   3.653   5.890   5.156 -0.7595  0.5966 -1.1028
16901TIP3    H272195   3.716   5.761   5.108  1.1786  0.7877  0.7689
16902TIP3   OH272196   0.355   0.249  16.242  0.0056 -0.3284 -0.6613
16902TIP3    H172197   0.407   0.314  16.195 -0.8476  1.3964  0.6643
16902TIP3    H272198   0.264   0.273  16.223 -0.3382 -0.2934  0.8954
16903TIP3   OH272199   2.917   5.237   1.561  0.2991  0.1325  0.0878
16903TIP3    H172200   2.973   5.271   1.631  0.6076  1.5707 -0.8161
16903TIP3    H272201   2.975   5.224   1.487 -0.0768 -1.1257 -0.0139
16904TIP3   OH272202   0.188   2.666   1.551 -0.1762 -0.6369  0.0649
16904TIP3    H172203   0.199   2.718   1.471 -0.7673 -1.0434 -0.2863
16904TIP3    H272204   0.249   2.706   1.614  0.0023 -0.0621 -0.4607
16905TIP3   OH272205   4.968   4.076   2.857  0.5559  0.0746 -0.3233
16905TIP3    H172206   4.967   4.095   2.951  2.5168  0.1848 -0.2667
16905TIP3    H272207   4.941   3.985   2.849 -0.1799  0.2385  0.2915
16906TIP3   OH272208   2.583   5.939  13.598  0.1545  0.1866  0.1170
16906TIP3    H172209   2.668   5.974  13.571  0.3768  1.1359  1.8759
16906TIP3    H272210   2.543   6.010  13.648  0.9238 -2.0927  4.4967
16907TIP3   OH272211   4.526   3.771  10.600 -0.0703  0.1014 -0.5335
16907TIP3    H172212   4.460   3.763  10.670  0.0447  0.9536 -0.3160
16907TIP3    H272213   4.530   3.865  10.582 -0.4986 -0.1466 -2.0799
16908TIP3   OH272214   3.301   5.212   0.682  0.1941 -0.4358 -0.3509
16908TIP3    H172215   3.308   5.305   0.704  0.6400 -0.5682  0.0939
16908TIP3    H272216   3.272   5.211   0.591  1.0948  0.1476 -0.6566
16909TIP3   OH272217   1.665   3.210  11.424 -0.3238  0.5550 -0.0334
16909TIP3    H172218   1.587   3.225  11.371  0.2371  0.9315 -0.7762
16909TIP3    H272219   1.632   3.192  11.512 -1.1981  1.8230 -0.0802
16910TIP3   OH272220   2.325   5.846   1.543 -0.5424  0.6943  0.3237
16910TIP3    H172221   2.291   5.771   1.592  0.4714 -0.3234 -0.4918
16910TIP3    H272222   2.312   5.823   1.451  0.5129  1.1569  0.0411
16911TIP3   OH272223   1.138   6.528   4.055  0.2192  0.3913  0.3186
16911TIP3    H172224   1.176   6.448   4.019 -1.3236 -0.2736  0.0756
16911TIP3    H272225   1.172   6.598   4.000  0.0088 -0.3340 -0.7635
16912TIP3   OH272226   5.323   2.483   3.085 -0.1016  0.3610  0.0397
16912TIP3    H172227   5.288   2.500   2.998 -0.2225 -3.6952 -0.9297
16912TIP3    H272228   5.249   2.446   3.134  0.2996  1.3688  1.4822
16913TIP3   OH272229   3.922   0.929   1.502  0.1288  0.0665 -0.4144
16913TIP3    H172230   4.000   0.917   1.556 -1.3944 -0.7047  1.8088
16913TIP3    H272231   3.945   0.997   1.440  2.5114 -0.0589  0.2406
16914TIP3   OH272232   5.290   5.647  16.342 -0.2951  0.9789  0.3689
16914TIP3    H172233   5.322   5.581  16.403  0.3546  3.0028  2.3704
16914TIP3    H272234   5.195   5.635  16.342 -0.1868  0.0354  0.6502
16915TIP3   OH272235   5.278   5.800  16.894 -0.4566  0.2794  0.1533
16915TIP3    H172236   5.355   5.843  16.855 -1.2659  3.0059  1.3020
16915TIP3    H272237   5.314   5.723  16.938  1.7047  1.5717  0.8370
16916TIP3   OH272238   4.567   5.289  11.785 -0.9403  0.8844 -0.1987
16916TIP3    H172239   4.558   5.384  11.789 -1.5803  0.8277 -0.2037
16916TIP3    H272240   4.519   5.264  11.706 -0.5684  0.5782 -0.3327
16917TIP3   OH272241   5.588   5.732   5.699 -0.7834  0.1402 -0.0088
16917TIP3    H172242   5.600   5.732   5.604  1.5434 -0.6715  0.2264
16917TIP3    H272243   5.634   5.654   5.730 -1.6629  0.2685  1.7909
16918TIP3   OH272244   6.791   5.879  12.317 -0.1832 -0.3690  0.5926
16918TIP3    H172245   6.872   5.908  12.359  0.3494  0.4702 -0.9388
16918TIP3    H272246   6.721   5.903  12.379  0.6272  0.0571  1.3577
16919TIP3   OH272247   3.849   0.536  16.493  0.0245 -0.1086  0.0132
16919TIP3    H172248   3.895   0.483  16.428 -1.0924 -1.1888  0.0628
16919TIP3    H272249   3.787   0.588  16.443 -0.3703 -0.4434  0.1498
16920TIP3   OH272250   5.193   4.654   4.318 -0.3943  0.3323 -0.0329
16920TIP3    H172251   5.128   4.645   4.388 -0.3965  2.0622  0.2315
16920TIP3    H272252   5.235   4.568   4.313 -0.8256 -0.0142  1.6638
16921TIP3   OH272253   3.045   6.540   1.706  0.2011 -0.2520 -0.4197
16921TIP3    H172254   2.961   6.566   1.745  0.3031 -1.5245  0.7287
16921TIP3    H272255   3.023   6.511   1.618 -0.1951  1.7067 -1.0165
16922TIP3   OH272256   4.327   6.515   6.777  0.3412 -0.1371  0.1869
16922TIP3    H172257   4.305   6.574   6.849  2.3795  0.2045  0.5909
16922TIP3    H272258   4.371   6.441   6.819  1.9187  0.2497 -0.6876
16923TIP3   OH272259   1.854   1.533  12.194 -0.1755 -0.8992  0.4566
16923TIP3    H172260   1.899   1.577  12.122  0.4085 -0.8966  0.8119
16923TIP3    H272261   1.838   1.602  12.259 -2.5254 -0.4586 -0.4873
16924TIP3   OH272262   1.528   1.578  14.043  0.1922  0.2257  0.6734
16924TIP3    H172263   1.533   1.558  14.137  0.0752  0.0134  0.6340
16924TIP3    H272264   1.588   1.652  14.032  0.2544  0.2128  0.9050
16925TIP3   OH272265   4.519   3.586   5.842  0.3011  0.2780  0.2156
16925TIP3    H172266   4.504   3.507   5.789  2.6310  0.2260 -0.4620
16925TIP3    H272267   4.568   3.555   5.918 -1.3441  0.6680  1.5091
16926TIP3   OH272268   6.691   2.233   1.366 -0.4798 -0.3588  0.2748
16926TIP3    H172269   6.696   2.200   1.456 -0.8408  0.2418  0.5220
16926TIP3    H272270   6.761   2.298   1.362 -0.6931 -0.1336  0.2289
16927TIP3   OH272271   2.464   4.876  16.276  0.3533 -0.4393  0.1596
16927TIP3    H172272   2.487   4.812  16.344  0.6401 -0.1513  0.3383
16927TIP3    H272273   2.546   4.891  16.230  0.2862 -0.1989  0.1198
16928TIP3   OH272274   1.378   2.028  11.986  0.3894 -0.8362  0.7654
16928TIP3    H172275   1.380   1.963  11.915  1.0661 -1.0729  0.9934
16928TIP3    H272276   1.439   2.096  11.958 -1.3807  0.4489 -0.1478
16929TIP3   OH272277   0.512   0.551   5.320 -0.2101  0.1316  0.1182
16929TIP3    H172278   0.551   0.626   5.364 -0.8922 -0.8056  2.4830
16929TIP3    H272279   0.567   0.476   5.346 -2.9894 -1.1317  3.1144
16930TIP3   OH272280   1.079   1.506  12.238 -0.1190  0.3255 -0.2391
16930TIP3    H172281   1.082   1.574  12.306  1.0310  3.0446 -2.8219
16930TIP3    H272282   1.171   1.488  12.218 -0.4428 -0.6595 -0.9349
16931TIP3   OH272283   3.260   4.978  10.323  0.2547  0.3468  0.5160
16931TIP3    H172284   3.353   4.986  10.343  0.6721 -0.3338 -1.0449
16931TIP3    H272285   3.218   4.975  10.409  1.6657  0.5843  1.2510
16932TIP3   OH272286   0.510   5.104   0.599 -0.4164 -0.1288  0.3742
16932TIP3    H172287   0.542   5.062   0.520  0.4812 -0.6213  0.9821
16932TIP3    H272288   0.474   5.033   0.652 -2.1930  0.3647 -0.1249
16933TIP3   OH272289   2.920   0.564   1.656 -0.3679 -0.8491  0.2151
16933TIP3    H172290   2.919   0.550   1.750 -1.0306 -1.2424  0.1562
16933TIP3    H272291   2.855   0.503   1.621  0.5614 -1.4022 -0.6062
16934TIP3   OH272292   5.787   0.321  16.849  0.3580 -0.0728 -0.4565
16934TIP3    H172293   5.705   0.274  16.834  0.1249  0.1460  0.0841
16934TIP3    H272294   5.783   0.346  16.942  0.3503  1.2322 -0.7778
16935TIP3   OH272295   6.253   2.295   1.751 -0.9460  0.2558 -0.4541
16935TIP3    H172296   6.273   2.202   1.761  2.7246  1.0573  1.5262
16935TIP3    H272297   6.285   2.317   1.663 -0.3000 -0.0739 -0.3119
16936TIP3   OH272298   1.213   2.372   0.169 -0.2259  0.0452 -0.7549
16936TIP3    H172299   1.160   2.359   0.247  0.7988  0.7659  0.0819
16936TIP3    H272300   1.151   2.404   0.103 -1.7460 -3.5171 -1.2654
16937TIP3   OH272301   3.391   2.207   5.466  0.3574 -0.3364  0.0193
16937TIP3    H172302   3.446   2.177   5.394  1.0242 -1.3557  0.9201
16937TIP3    H272303   3.302   2.198   5.434  0.6325  1.9501 -1.7150
16938TIP3   OH272304   5.840   6.425   4.059 -0.4517  0.5908 -0.7105
16938TIP3    H172305   5.853   6.379   4.143 -1.2166 -0.7684 -1.2936
16938TIP3    H272306   5.775   6.493   4.079  1.7968  2.5166  0.5131
16939TIP3   OH272307   1.316   3.078  14.959  0.2819 -0.4708  0.8364
16939TIP3    H172308   1.328   3.163  14.915 -1.3111 -0.1289  1.0012
16939TIP3    H272309   1.404   3.052  14.984  0.7006  1.9791  2.3408
16940TIP3   OH272310   1.812   1.667   4.051 -0.5929  0.8751  0.0454
16940TIP3    H172311   1.764   1.664   4.133 -1.7049 -2.6181 -0.5890
16940TIP3    H272312   1.900   1.638   4.073 -0.8499  0.0802  0.0300
16941TIP3   OH272313   6.425   5.662   3.483  0.1010 -0.5289 -0.3511
16941TIP3    H172314   6.495   5.718   3.449  0.5795 -1.3063 -0.6815
16941TIP3    H272315   6.412   5.692   3.572  2.0110 -1.4167  0.2939
16942TIP3   OH272316   1.469   3.912  15.413 -0.0387 -0.4758  0.1406
16942TIP3    H172317   1.547   3.965  15.431 -0.2385 -0.2557  0.3549
16942TIP3    H272318   1.492   3.863  15.333  0.3368 -0.4483  0.2283
16943TIP3   OH272319   0.987   3.356   5.590 -0.0285 -0.0573  0.1253
16943TIP3    H172320   1.019   3.405   5.514  0.1778 -0.6036 -0.1498
16943TIP3    H272321   1.066   3.329   5.636 -0.1363 -0.2447  0.2018
16944TIP3   OH272322   0.892   6.232   4.067  0.0501 -0.1381 -0.0791
16944TIP3    H172323   0.883   6.270   3.980 -1.2740  0.1667  0.1779
16944TIP3    H272324   0.878   6.138   4.054 -0.4002 -0.0605 -0.1589
16945TIP3   OH272325   5.691   6.047   6.299 -0.1589 -0.9036  0.1737
16945TIP3    H172326   5.638   6.098   6.360  1.2227 -0.1956  0.8425
16945TIP3    H272327   5.754   6.002   6.355  1.6418  0.3685 -0.7343
16946TIP3   OH272328   3.021   0.158  16.847 -0.1969 -0.6023  0.6581
16946TIP3    H172329   3.099   0.103  16.848 -0.2226 -0.7178 -0.9630
16946TIP3    H272330   2.958   0.110  16.902 -0.2896 -2.3667 -0.8643
16947TIP3   OH272331   2.189   0.285   0.850 -0.5065 -0.2184 -0.1536
16947TIP3    H172332   2.249   0.338   0.798 -0.4559  0.0403  0.1632
16947TIP3    H272333   2.218   0.195   0.835  0.0397 -0.0890  0.0932
16948TIP3   OH272334   5.235   2.095   2.324 -0.5228  0.2846 -0.0870
16948TIP3    H172335   5.203   2.180   2.292 -0.1302  2.0216  3.5982
16948TIP3    H272336   5.156   2.050   2.356 -0.3747  0.6698  0.8415
16949TIP3   OH272337   3.714   6.226   1.361 -0.0238 -0.4088  0.3835
16949TIP3    H172338   3.620   6.225   1.344  0.3770  1.5601 -2.7505
16949TIP3    H272339   3.728   6.304   1.414 -0.1045 -0.6057  0.7004
16950TIP3   OH272340   1.644   1.015   5.039 -0.0158  0.7296 -0.1778
16950TIP3    H172341   1.649   1.079   4.967 -1.7229 -0.3773 -1.3638
16950TIP3    H272342   1.561   1.035   5.083 -0.0219  0.0298  0.1366
16951TIP3   OH272343   0.059   1.003  15.859  0.1755 -0.3437 -0.3774
16951TIP3    H172344   0.116   1.032  15.930  2.0032  0.1049 -1.9549
16951TIP3    H272345  -0.011   1.068  15.857  1.4709  1.1066 -0.5820
16952TIP3   OH272346   1.609   5.194  13.256 -0.0987  0.2502  0.1761
16952TIP3    H172347   1.703   5.181  13.243  0.3448  1.1897  2.0507
16952TIP3    H272348   1.598   5.189  13.351 -2.4386 -2.8771 -0.0783
16953TIP3   OH272349   3.575   1.528   3.309 -0.2607 -0.4458 -0.4949
16953TIP3    H172350   3.529   1.600   3.352  1.7805  1.1656 -0.8438
16953TIP3    H272351   3.606   1.473   3.381  0.2047  0.3524 -0.0728
16954TIP3   OH272352   0.672   1.995  17.197 -0.0944 -0.3878  0.4580
16954TIP3    H172353   0.755   1.969  17.157  0.6089  0.2666  1.4454
16954TIP3    H272354   0.633   1.913  17.227  0.3541 -0.6620  0.2947
16955TIP3   OH272355   0.938   6.502   7.058 -0.1605  0.5932  0.4168
16955TIP3    H172356   0.972   6.513   6.970  1.0433  1.6050  0.9717
16955TIP3    H272357   0.930   6.591   7.092 -0.1899  0.2042  1.4681
16956TIP3   OH272358   1.596   6.546  11.051 -0.1819  0.0715  0.3282
16956TIP3    H172359   1.626   6.636  11.037  0.5161 -0.2118 -0.0694
16956TIP3    H272360   1.526   6.533  10.987 -0.2211  0.3012  0.3259
16957TIP3   OH272361   4.456   3.714  17.085 -0.2666 -0.5402 -0.7284
16957TIP3    H172362   4.418   3.628  17.067 -1.0272 -0.9571  2.2642
16957TIP3    H272363   4.381   3.773  17.090 -0.4432 -0.8680  2.6470
16958TIP3   OH272364   4.600   0.926  12.458 -0.4012  0.6192  0.0363
16958TIP3    H172365   4.610   1.010  12.414  0.5827  0.0502 -0.8758
16958TIP3    H272366   4.687   0.886  12.455 -1.3207 -1.5014 -1.8208
16959TIP3   OH272367   2.205   1.830  14.705 -0.5073  0.1934 -0.0282
16959TIP3    H172368   2.237   1.920  14.696 -1.0261  0.1841 -2.5831
16959TIP3    H272369   2.278   1.783  14.746  0.4130  1.4106 -0.1973
16960TIP3   OH272370   0.774   2.686  13.827 -0.0048  0.4660 -0.2781
16960TIP3    H172371   0.826   2.732  13.892  0.2045  0.5178 -0.4821
16960TIP3    H272372   0.729   2.617  13.876 -0.0847  0.6961 -0.0260
16961TIP3   OH272373   5.221   2.571  16.606  0.4648  0.0663  0.2234
16961TIP3    H172374   5.237   2.663  16.624  0.3620  0.3767 -1.1602
16961TIP3    H272375   5.267   2.554  16.523 -0.0839 -0.9492  0.1038
16962TIP3   OH272376   0.240   3.044   3.882  0.6606 -0.2909 -0.0441
16962TIP3    H172377   0.320   3.091   3.857 -0.4791  2.0425  0.4224
16962TIP3    H272378   0.175   3.072   3.817  0.0331 -1.5847  0.0102
16963TIP3   OH272379   1.739   3.517   1.215 -0.4800  0.1569 -0.1915
16963TIP3    H172380   1.736   3.602   1.259 -1.2171  0.3381 -0.5715
16963TIP3    H272381   1.760   3.538   1.124 -0.8385 -0.0495 -0.3242
16964TIP3   OH272382   4.305   4.060   0.181  0.2190 -0.5682  0.3315
16964TIP3    H172383   4.214   4.087   0.164  0.5337  0.1808 -0.2288
16964TIP3    H272384   4.310   3.970   0.149 -0.3423 -0.6349  0.4223
16965TIP3   OH272385   2.247   4.908   1.150 -0.6093  0.2322 -0.0291
16965TIP3    H172386   2.180   4.840   1.151  0.5783 -0.9818  0.5680
16965TIP3    H272387   2.201   4.987   1.124 -2.1324 -0.6991 -0.2703
16966TIP3   OH272388   6.381   2.714  11.271  0.1126  0.0122 -0.0758
16966TIP3    H172389   6.300   2.724  11.322  0.9509  0.6789  1.1929
16966TIP3    H272390   6.355   2.728  11.180 -1.3693 -0.8069  0.2061
16967TIP3   OH272391   4.184   0.810   5.536 -0.2713  0.1136 -0.4350
16967TIP3    H172392   4.213   0.781   5.622  2.2550  1.1206 -0.8518
16967TIP3    H272393   4.195   0.733   5.480  0.4991  0.1503 -0.3394
16968TIP3   OH272394   3.596   2.814  11.831 -0.0035 -0.0602 -0.3063
16968TIP3    H172395   3.680   2.787  11.792 -0.1256 -0.3894 -0.3446
16968TIP3    H272396   3.531   2.757  11.789 -0.1427 -0.3915  0.3481
16969TIP3   OH272397   5.626   0.740  13.790 -0.1774  0.1320 -0.0566
16969TIP3    H172398   5.696   0.717  13.852  0.2702 -0.8401 -0.8852
16969TIP3    H272399   5.582   0.657  13.773 -1.0406  0.6000 -0.1597
16970TIP3   OH272400   1.670   0.161  13.529 -0.1808  0.0475  0.7903
16970TIP3    H172401   1.762   0.146  13.553 -0.8883 -0.6556  3.2987
16970TIP3    H272402   1.675   0.197  13.440  2.5743  1.0003  1.2220
16971TIP3   OH272403   0.023   2.341   3.629 -0.3461  0.0406 -0.0205
16971TIP3    H172404   0.054   2.320   3.716  1.7504 -0.6579 -0.8736
16971TIP3    H272405  -0.067   2.370   3.642 -1.5460 -3.8882  1.9402
16972TIP3   OH272406   0.319   6.317  12.490 -0.5111  0.4423 -0.5007
16972TIP3    H172407   0.270   6.399  12.482 -0.7381  0.2886 -0.7159
16972TIP3    H272408   0.334   6.290  12.399  1.1195  1.1592 -0.4799
16973TIP3   OH272409   6.790   5.540   2.033  0.4039  0.1561  0.0935
16973TIP3    H172410   6.863   5.481   2.016  2.2180  2.4632 -0.6532
16973TIP3    H272411   6.804   5.613   1.972 -0.8610  2.0544  1.9595
16974TIP3   OH272412   1.300   1.860  15.430 -0.5892 -0.4187 -0.6908
16974TIP3    H172413   1.379   1.875  15.377 -0.0132  0.9246  0.4699
16974TIP3    H272414   1.292   1.765  15.434  0.8808 -0.5824 -0.9879
16975TIP3   OH272415   4.691   3.293   4.686  0.2682 -0.0962  0.4623
16975TIP3    H172416   4.597   3.286   4.676  0.2554 -0.3920  0.7884
16975TIP3    H272417   4.706   3.385   4.710  0.0315 -0.1431  0.7855
16976TIP3   OH272418   6.705   6.190  11.464 -0.6321 -0.2990 -0.2563
16976TIP3    H172419   6.720   6.280  11.436 -0.2264 -1.2814 -3.6846
16976TIP3    H272420   6.623   6.165  11.422  0.4490 -2.2042 -1.3483
16977TIP3   OH272421   2.084   2.461   2.209  0.7432 -0.2829  0.2791
16977TIP3    H172422   2.060   2.505   2.290 -1.1011 -1.7488  0.5946
16977TIP3    H272423   2.032   2.504   2.141  1.1079 -0.0860  0.1226
16978TIP3   OH272424   2.598   6.206  16.803 -0.7832  0.5373 -0.1280
16978TIP3    H172425   2.537   6.264  16.758 -1.4396 -0.7897 -0.9944
16978TIP3    H272426   2.575   6.118  16.773 -1.5455 -0.5020  3.1278
16979TIP3   OH272427   1.006   2.772   3.862 -0.0761  0.2892  0.1483
16979TIP3    H172428   0.997   2.827   3.784 -0.2638  0.2772  0.1595
16979TIP3    H272429   1.053   2.694   3.832  0.6054  0.6594  0.2343
16980TIP3   OH272430   4.769   2.892   5.323 -0.4552 -0.2677  0.6976
16980TIP3    H172431   4.719   2.971   5.343 -2.0864 -1.6308  2.2860
16980TIP3    H272432   4.826   2.879   5.399  1.0675  0.2384 -0.2916
16981TIP3   OH272433   3.006   5.650   5.739  0.3640 -0.1659  0.5731
16981TIP3    H172434   2.979   5.619   5.826  1.8115 -0.6455  0.8853
16981TIP3    H272435   3.032   5.570   5.693 -0.9845  0.0130 -0.5464
16982TIP3   OH272436   0.241   2.933   0.563  0.3075  0.4891 -0.3931
16982TIP3    H172437   0.180   2.869   0.597 -0.5623  1.3778 -0.2319
16982TIP3    H272438   0.302   2.950   0.635 -0.4997  1.1069  0.1580
16983TIP3   OH272439   3.312   1.764   5.686  0.8175  0.8569  0.3677
16983TIP3    H172440   3.277   1.693   5.740 -0.6578  1.3153  0.0566
16983TIP3    H272441   3.316   1.728   5.598 -0.6274  1.3550  0.0744
16984TIP3   OH272442   3.592   4.577   5.051  0.4251 -0.0875  0.1079
16984TIP3    H172443   3.614   4.486   5.030 -0.6593 -0.0932 -1.1348
16984TIP3    H272444   3.531   4.570   5.125 -0.8483 -0.4905 -0.9487
16985TIP3   OH272445   1.080   0.510  10.523 -0.5733 -0.2227 -0.8385
16985TIP3    H172446   0.999   0.560  10.527 -0.6189 -0.2496 -1.3382
16985TIP3    H272447   1.134   0.545  10.594 -1.2277 -0.5715 -0.1626
16986TIP3   OH272448   1.618   4.809   0.410 -0.4068 -0.6424 -0.5378
16986TIP3    H172449   1.545   4.870   0.413 -0.6846 -0.9533 -0.8308
16986TIP3    H272450   1.639   4.791   0.501 -1.5650 -1.5702 -0.4269
16987TIP3   OH272451   1.471   6.618   3.415 -0.0761 -0.4274 -0.5219
16987TIP3    H172452   1.435   6.653   3.497  0.3148 -1.4456  0.1141
16987TIP3    H272453   1.513   6.536   3.441  0.7090 -0.3945 -1.6324
16988TIP3   OH272454   0.035   3.911   5.416  0.4737 -0.3762 -0.3211
16988TIP3    H172455  -0.023   3.845   5.454  0.3889 -1.1661 -1.7621
16988TIP3    H272456   0.103   3.923   5.482  0.6862 -2.1782 -0.1506
16989TIP3   OH272457   1.869   4.494  16.982 -0.3369  0.4840  0.2370
16989TIP3    H172458   1.928   4.540  17.042 -1.0687  1.0521  0.5487
16989TIP3    H272459   1.790   4.548  16.982 -0.2124  0.7135 -1.5654
16990TIP3   OH272460   2.846   2.086  11.502 -0.1479 -0.3754  0.5848
16990TIP3    H172461   2.804   2.172  11.496  2.5028  0.9978 -0.1675
16990TIP3    H272462   2.813   2.038  11.426  1.3044  1.5244 -1.3627
16991TIP3   OH272463   4.506   6.279  15.294  0.3947 -0.3097 -0.2661
16991TIP3    H172464   4.574   6.279  15.227  3.8530  0.7446  2.8727
16991TIP3    H272465   4.507   6.190  15.330 -0.5047 -0.5081 -0.7044
16992TIP3   OH272466   3.363   4.606   1.294 -0.0340  0.3415  0.7299
16992TIP3    H172467   3.435   4.664   1.319  0.9880  1.6611 -4.1685
16992TIP3    H272468   3.285   4.662   1.298  0.4671  1.2262 -0.9775
16993TIP3   OH272469   5.827   4.287   1.428 -0.5066  0.3948 -0.2101
16993TIP3    H172470   5.760   4.220   1.414  1.6643 -1.9989  0.0545
16993TIP3    H272471   5.841   4.287   1.523  1.2200 -0.6411 -0.4227
16994TIP3   OH272472   6.141   2.473   1.292  0.1343 -0.0752 -0.1946
16994TIP3    H172473   6.223   2.490   1.339 -0.6200 -2.7319  2.4194
16994TIP3    H272474   6.145   2.380   1.269 -1.5810  0.0634 -1.2225
16995TIP3   OH272475   6.756   1.266   3.771 -0.1865 -0.6501  0.2681
16995TIP3    H172476   6.757   1.175   3.801  1.0020 -0.9671 -0.6530
16995TIP3    H272477   6.802   1.315   3.839 -2.4261 -0.3563  1.7075
16996TIP3   OH272478   0.659   0.840   0.704 -0.3015 -0.4810  0.7435
16996TIP3    H172479   0.710   0.873   0.630 -0.5943  0.9427  1.1471
16996TIP3    H272480   0.591   0.785   0.664 -0.4228  0.2272 -0.0405
16997TIP3   OH272481   1.154   0.408   0.184 -0.6537 -0.1066 -0.0664
16997TIP3    H172482   1.244   0.428   0.210 -0.9306  1.5554 -0.2605
16997TIP3    H272483   1.161   0.380   0.092 -0.4233  0.9518 -0.3811
16998TIP3   OH272484   5.039   3.725   2.402 -0.5382 -0.2292  0.1748
16998TIP3    H172485   5.007   3.661   2.339 -0.5419 -1.7304  1.6370
16998TIP3    H272486   5.082   3.673   2.469  0.9345  1.4263  0.6002
16999TIP3   OH272487   1.330   4.511  16.197 -0.4269  0.1285 -0.1260
16999TIP3    H172488   1.419   4.547  16.191  0.1468 -1.3970 -1.6553
16999TIP3    H272489   1.295   4.547  16.278  1.3901  1.2054  0.2425
17000TIP3   OH272490   2.380   0.758   3.872 -0.2700  0.1363 -0.2839
17000TIP3    H172491   2.446   0.822   3.896 -1.4583  0.8089  1.4014
17000TIP3    H272492   2.344   0.790   3.789  2.2576 -0.8981 -1.8878
17001TIP3   OH272493   3.921   4.901  13.943  0.9790 -0.0713  0.1227
17001TIP3    H172494   3.893   4.963  13.875  1.7894 -1.0215 -1.1252
17001TIP3    H272495   3.976   4.838  13.896  2.1836 -0.3356  1.8032
17002TIP3   OH272496   5.577   2.434   4.707  0.0081 -0.2097 -0.5758
17002TIP3    H172497   5.527   2.369   4.658  0.7905 -1.1918 -0.1127
17002TIP3    H272498   5.555   2.517   4.666 -0.8914 -0.7767 -1.2912
17003TIP3   OH272499   4.929   1.499  15.403 -0.4938 -0.7163 -0.3977
17003TIP3    H172500   4.872   1.470  15.475  0.2921 -3.5912 -0.7993
17003TIP3    H272501   4.874   1.498  15.326 -1.1833  1.7956 -0.0258
17004TIP3   OH272502   0.378   0.006   1.199  0.4069 -0.6309 -0.3011
17004TIP3    H172503   0.442   0.058   1.150  1.2482 -0.5000  0.9009
17004TIP3    H272504   0.355   0.061   1.274 -0.3166 -1.1216 -0.1557
17005TIP3   OH272505   5.401   3.135   1.065 -0.1713 -0.6909 -0.0274
17005TIP3    H172506   5.487   3.175   1.072 -0.5372 -0.0257  0.7759
17005TIP3    H272507   5.403   3.062   1.127  0.1275 -1.2830 -0.7120
17006TIP3   OH272508   4.487   4.388   0.356  0.1550  0.3334 -0.0085
17006TIP3    H172509   4.423   4.422   0.420 -1.3233 -1.3655 -0.4995
17006TIP3    H272510   4.506   4.299   0.386  1.8613  0.5867 -0.2355
17007TIP3   OH272511   2.035   4.815   4.601  0.3499  0.2027 -0.4824
17007TIP3    H172512   1.957   4.854   4.640  2.0778  1.0109  2.4824
17007TIP3    H272513   2.028   4.722   4.622 -0.4909  0.0053 -1.5582
17008TIP3   OH272514   2.185   1.108   3.737 -0.5283  0.1448  0.3802
17008TIP3    H172515   2.119   1.102   3.807  1.1182 -0.6393  1.9460
17008TIP3    H272516   2.216   1.199   3.742 -0.2204  0.0156  0.8614
17009TIP3   OH272517   1.078   0.157   0.403 -0.2572  0.4730 -0.0579
17009TIP3    H172518   1.164   0.193   0.426  0.2465 -0.6412 -0.0963
17009TIP3    H272519   1.097   0.068   0.374 -1.3333  0.5380 -1.0154
17010TIP3   OH272520   2.632   4.024  12.893 -0.0340  0.6955 -0.2359
17010TIP3    H172521   2.685   3.962  12.943  0.5096  0.7747 -0.6980
17010TIP3    H272522   2.583   3.970  12.832 -1.2659  0.5304  0.8653
17011TIP3   OH272523   6.092   4.657  16.327 -0.1652  0.7258  0.0302
17011TIP3    H172524   6.073   4.739  16.281  0.2337  0.5783 -0.4071
17011TIP3    H272525   6.010   4.633  16.369 -0.4259  1.0734 -0.2765
17012TIP3   OH272526   1.149   4.464  12.440 -0.2435  0.3478  0.3119
17012TIP3    H172527   1.147   4.400  12.369 -2.0065 -0.6662  1.2044
17012TIP3    H272528   1.136   4.412  12.519  1.6153  1.4526  1.4029
17013TIP3   OH272529   1.732   5.211  16.232 -0.4012  0.9221 -0.5511
17013TIP3    H172530   1.700   5.163  16.308  0.5241 -0.1154 -0.7831
17013TIP3    H272531   1.654   5.247  16.191 -0.9368  1.2625  0.7308
17014TIP3   OH272532   1.702   0.704  14.486 -0.0738 -0.4737 -0.2218
17014TIP3    H172533   1.607   0.696  14.495 -0.0962  0.5049  0.6753
17014TIP3    H272534   1.717   0.798  14.481  0.8808 -0.6019  0.1132
17015TIP3   OH272535   2.803   0.440   1.903 -0.3395 -0.1281 -0.1379
17015TIP3    H172536   2.792   0.426   1.997 -0.2737 -0.4191 -0.1716
17015TIP3    H272537   2.760   0.365   1.863 -0.2399 -0.0798 -0.3365
17016TIP3   OH272538   3.457   1.575  11.140 -0.6810  0.3189 -0.4549
17016TIP3    H172539   3.482   1.661  11.107 -1.8008  1.1569  0.7396
17016TIP3    H272540   3.401   1.538  11.071  0.3229  0.2583 -1.2514
17017TIP3   OH272541   4.091   2.932   3.646 -0.5049  0.3357  0.1312
17017TIP3    H172542   4.072   3.009   3.592 -0.2932 -0.2888 -0.8514
17017TIP3    H272543   4.162   2.887   3.601  1.2242  0.9368  2.0876
17018TIP3   OH272544   0.303   2.511  13.920  0.2175 -0.1147  1.0649
17018TIP3    H172545   0.217   2.473  13.905 -0.3189  0.5043  2.4115
17018TIP3    H272546   0.312   2.514  14.015  1.8185 -0.3446  0.9556
17019TIP3   OH272547   5.403   0.876  15.538  0.3787 -0.6262  0.5819
17019TIP3    H172548   5.439   0.805  15.485 -1.2790 -1.2573  0.2206
17019TIP3    H272549   5.469   0.944  15.536  1.0001 -1.2338 -1.0732
17020TIP3   OH272550   5.782   3.142  17.062  0.1091  0.3308 -0.0435
17020TIP3    H172551   5.772   3.178  17.150 -0.3571 -0.3608  0.1956
17020TIP3    H272552   5.780   3.219  17.004 -2.2822  0.6138  0.3308
17021TIP3   OH272553   1.362   2.803   3.608  0.6749  0.2991  0.0249
17021TIP3    H172554   1.449   2.844   3.613 -0.5611  3.0303  1.2803
17021TIP3    H272555   1.310   2.864   3.556 -0.9151 -0.4166  0.7066
17022TIP3   OH272556   2.719   3.209   5.887 -0.5202  0.7022  0.0768
17022TIP3    H172557   2.702   3.209   5.981 -0.9915 -0.8558  0.0151
17022TIP3    H272558   2.766   3.292   5.871  2.6004 -0.4473  2.2220
17023TIP3   OH272559   1.309   3.832   3.409 -0.0061 -0.1195 -0.8889
17023TIP3    H172560   1.326   3.793   3.323  1.3970 -0.1302 -0.6348
17023TIP3    H272561   1.349   3.919   3.404  1.8711 -0.8499  0.3773
17024TIP3   OH272562   0.885   2.814  14.379 -0.0819 -0.6577  0.6579
17024TIP3    H172563   0.963   2.780  14.424  2.3878 -1.0832 -3.3506
17024TIP3    H272564   0.843   2.736  14.342 -1.2514 -0.2354  1.0532
17025TIP3   OH272565   3.822   0.807  11.423 -0.0772  0.0370  0.5003
17025TIP3    H172566   3.762   0.778  11.354 -0.8288  1.0855  0.6913
17025TIP3    H272567   3.841   0.898  11.402  3.0589 -0.7802 -0.6727
17026TIP3   OH272568   5.641   6.017  10.967 -0.3580 -0.5476 -0.6178
17026TIP3    H172569   5.610   6.107  10.951 -1.4880 -0.8491 -0.2136
17026TIP3    H272570   5.589   5.963  10.908 -0.4641 -1.0594 -0.0583
17027TIP3   OH272571   6.153   3.522  16.414 -0.1521  0.4847  0.4860
17027TIP3    H172572   6.180   3.576  16.489 -2.0916  1.2618  0.6574
17027TIP3    H272573   6.194   3.564  16.339  0.8327  0.3919  0.9432
17028TIP3   OH272574   1.826   3.865  15.440  0.1281  0.2397  0.8550
17028TIP3    H172575   1.887   3.937  15.459  0.4803  0.0517  0.4409
17028TIP3    H272576   1.879   3.786  15.449  0.1280  0.1078 -0.2045
17029TIP3   OH272577   2.727   4.676   4.602  0.3823  0.2187  0.0582
17029TIP3    H172578   2.690   4.748   4.653  0.9223 -0.5616  1.6099
17029TIP3    H272579   2.651   4.624   4.577  0.1839 -0.0061  1.0730
17030TIP3   OH272580   3.021   2.417   2.776  0.3487  0.0940  0.1337
17030TIP3    H172581   2.969   2.342   2.749  0.5369  0.2529 -0.6821
17030TIP3    H272582   3.087   2.427   2.708  0.0025  1.3195 -0.0460
17031TIP3   OH272583   3.153   4.676  15.490 -0.3759 -0.1421  0.4187
17031TIP3    H172584   3.065   4.637  15.495 -0.1802 -0.9286 -1.4151
17031TIP3    H272585   3.211   4.602  15.474  0.3182  0.5957 -0.6245
17032TIP3   OH272586   0.850   1.114   2.479 -0.4362 -0.0868  0.3284
17032TIP3    H172587   0.945   1.128   2.483 -0.3185 -0.9551  1.1595
17032TIP3    H272588   0.839   1.020   2.496 -1.5111  0.2561  1.8171
17033TIP3   OH272589   3.437   5.514  15.421 -0.1303  0.1943 -0.2338
17033TIP3    H172590   3.489   5.546  15.495 -1.9252  0.9854  0.7735
17033TIP3    H272591   3.410   5.594  15.375 -0.9160 -0.1502 -0.3909
17034TIP3   OH272592   4.387   6.379  14.060 -0.0022 -0.0714  0.0873
17034TIP3    H172593   4.408   6.326  13.983 -0.0505  0.5714 -0.3748
17034TIP3    H272594   4.292   6.367  14.071  0.1508 -0.8892  0.6039
17035TIP3   OH272595   3.339   5.492  15.934  0.4987 -0.2405 -0.1056
17035TIP3    H172596   3.366   5.567  15.987 -1.3575  0.6970 -0.4172
17035TIP3    H272597   3.277   5.444  15.989 -0.5483  0.0968 -0.9531
17036TIP3   OH272598   3.964   5.481  11.023 -0.3433 -0.4058 -0.2392
17036TIP3    H172599   4.040   5.531  10.994 -0.0497 -0.4434  0.4378
17036TIP3    H272600   3.912   5.467  10.944 -0.1303  0.4494 -0.5378
17037TIP3   OH272601   0.866   4.227  13.595 -0.6214  0.4475 -0.6039
17037TIP3    H172602   0.804   4.182  13.538  0.5419 -1.0688 -0.7345
17037TIP3    H272603   0.947   4.177  13.586 -0.0504  0.9486  1.3902
17038TIP3   OH272604   4.617   6.243  11.536 -0.6167 -0.4589 -0.3190
17038TIP3    H172605   4.668   6.177  11.490 -2.0904 -1.6655 -0.3124
17038TIP3    H272606   4.626   6.219  11.629 -0.3499 -0.0470 -0.2382
17039TIP3   OH272607   2.878   3.698   5.397  0.9327 -0.3247  0.3224
17039TIP3    H172608   2.859   3.623   5.454 -1.1495 -0.7671 -0.8440
17039TIP3    H272609   2.836   3.772   5.441 -0.6136 -0.6537 -0.5112
17040TIP3   OH272610   1.946   0.280   5.941 -0.9429  0.1160  0.2112
17040TIP3    H172611   2.027   0.331   5.946  0.5022 -2.0752  1.1144
17040TIP3    H272612   1.892   0.315   6.012  0.2501  0.0410  1.1974
17041TIP3   OH272613   4.114   0.589   4.197 -0.1510 -0.2003  0.3082
17041TIP3    H172614   4.079   0.509   4.157  1.0744 -0.7872  0.3798
17041TIP3    H272615   4.143   0.642   4.123  0.2399 -0.4012  0.3135
17042TIP3   OH272616   5.578   1.023   1.861  0.5566 -0.1978  0.3283
17042TIP3    H172617   5.565   0.933   1.829 -0.0147 -0.1772  0.4910
17042TIP3    H272618   5.556   1.078   1.786  2.1836 -0.2101 -0.1909
17043TIP3   OH272619   0.789   5.703  12.085  0.4026 -0.2479  0.0231
17043TIP3    H172620   0.749   5.693  11.998 -0.4565  1.0259  0.2319
17043TIP3    H272621   0.878   5.731  12.067 -0.0999  1.1281 -0.4846
17044TIP3   OH272622   3.568   2.857   1.025  0.2719 -0.2879 -0.4233
17044TIP3    H172623   3.506   2.890   1.090  1.9270  0.2042  0.9929
17044TIP3    H272624   3.526   2.779   0.988 -1.0220 -0.1736  0.7452
17045TIP3   OH272625   3.357   2.869  16.006 -0.7433  0.3000  0.4403
17045TIP3    H172626   3.435   2.814  16.014 -1.4648 -0.7996  0.2365
17045TIP3    H272627   3.295   2.832  16.069 -0.8446  1.6431  1.1641
17046TIP3   OH272628   4.712   1.336  13.250 -0.1484 -0.2895 -0.2721
17046TIP3    H172629   4.780   1.332  13.182 -0.7806 -1.5844 -0.8512
17046TIP3    H272630   4.719   1.425  13.284  0.7340  0.1377 -1.4742
17047TIP3   OH272631   1.784   2.271   0.216  0.0718 -0.3786 -0.4140
17047TIP3    H172632   1.858   2.254   0.274  0.7073 -0.6925 -1.2930
17047TIP3    H272633   1.813   2.343   0.160  0.3906 -1.5840 -1.8743
17048TIP3   OH272634   1.400   6.162  12.867 -0.5873 -0.0369 -0.0925
17048TIP3    H172635   1.378   6.198  12.953  1.3389  1.2814 -0.0803
17048TIP3    H272636   1.461   6.226  12.830 -1.0102 -0.8095 -2.2655
17049TIP3   OH272637   4.838   0.794  11.143 -0.0435 -0.0311  0.4595
17049TIP3    H172638   4.753   0.765  11.110 -0.2976  3.1855 -2.2052
17049TIP3    H272639   4.823   0.811  11.236 -2.2737  0.3011  0.0989
17050TIP3   OH272640   4.429   4.467   5.464  0.2958 -0.2897  0.4644
17050TIP3    H172641   4.438   4.516   5.546  0.2916 -0.5180  0.6005
17050TIP3    H272642   4.477   4.386   5.478  1.8628  0.4418 -0.3989
17051TIP3   OH272643   1.736   1.480   4.684  0.1876 -0.2972  0.0903
17051TIP3    H172644   1.674   1.550   4.706  0.8830  0.2856  0.2414
17051TIP3    H272645   1.694   1.400   4.715 -0.5013  0.0857  0.1624
17052TIP3   OH272646   0.031   2.399  13.926 -0.3125  0.0031 -0.2342
17052TIP3    H172647  -0.064   2.407  13.927 -0.5273 -2.0384  0.2767
17052TIP3    H272648   0.050   2.325  13.984  1.7224  1.3796  0.9858
17053TIP3   OH272649   5.102   1.632  13.392  0.3052  0.3197 -0.0871
17053TIP3    H172650   5.170   1.575  13.356 -1.2087 -1.6821  0.0081
17053TIP3    H272651   5.104   1.615  13.486  1.3871  2.2736  0.2945
17054TIP3   OH272652   5.951   3.373   1.190 -0.1790 -0.2668  0.4735
17054TIP3    H172653   6.023   3.437   1.188 -0.8182  0.4465 -0.7627
17054TIP3    H272654   5.948   3.338   1.101  0.1558 -2.0629  1.1258
17055TIP3   OH272655   1.101   3.313   1.469 -0.0059  0.2908  0.3741
17055TIP3    H172656   1.095   3.255   1.393  0.4969  1.1649 -0.3593
17055TIP3    H272657   1.192   3.341   1.470 -0.1159  0.6356  1.0438
17056TIP3   OH272658   4.497   0.295   3.899 -0.1120 -0.7547  0.1885
17056TIP3    H172659   4.475   0.272   3.989 -0.7502  0.4565  0.3573
17056TIP3    H272660   4.444   0.236   3.845  0.9447 -2.0982  0.5889
17057TIP3   OH272661   0.453   5.901  13.568 -0.1412  0.3844  0.2765
17057TIP3    H172662   0.522   5.913  13.633 -1.0690 -0.5204  1.4647
17057TIP3    H272663   0.424   5.990  13.547 -0.4409  0.6778  1.8045
17058TIP3   OH272664   0.062   5.414  17.029  0.2370  0.0514 -0.6200
17058TIP3    H172665   0.139   5.392  17.082 -0.7231 -0.1536  0.7173
17058TIP3    H272666   0.083   5.381  16.942  1.0055 -1.4546  0.1025
17059TIP3   OH272667   6.652   2.957   3.731 -0.5012 -0.1989 -0.1799
17059TIP3    H172668   6.567   2.916   3.749 -0.9407  0.5817 -0.4068
17059TIP3    H272669   6.679   2.921   3.646 -1.0055  0.1701 -0.5024
17060TIP3   OH272670   2.283   4.033  13.477  0.4036  0.3140 -0.0417
17060TIP3    H172671   2.254   3.942  13.486  0.1487  0.4560  0.7392
17060TIP3    H272672   2.326   4.037  13.392 -1.5945  0.0077 -1.1297
17061TIP3   OH272673   4.593   5.382   6.375 -0.0030 -0.6484 -0.0427
17061TIP3    H172674   4.541   5.375   6.455 -2.0072 -0.6457 -1.2714
17061TIP3    H272675   4.676   5.422   6.403 -0.7331 -0.4329  1.9625
17062TIP3   OH272676   4.474   1.746   0.123 -0.8160  0.1682  0.7564
17062TIP3    H172677   4.432   1.668   0.087 -0.7597  0.9608 -1.1724
17062TIP3    H272678   4.568   1.730   0.113 -0.7991  0.3931  0.5298
17063TIP3   OH272679   0.334   4.417   5.000  0.0149 -0.7591 -0.4449
17063TIP3    H172680   0.412   4.372   4.967  2.1848  1.1956  1.6764
17063TIP3    H272681   0.318   4.487   4.937  0.1587 -0.9588 -0.7066
17064TIP3   OH272682   6.685   5.274   2.005 -0.2098 -0.2245  0.4176
17064TIP3    H172683   6.725   5.326   1.935  0.6867  0.2169  1.2275
17064TIP3    H272684   6.709   5.184   1.985 -1.4208 -0.3181 -0.7720
17065TIP3   OH272685   4.390   4.517   4.326 -0.3394 -0.4474 -0.5648
17065TIP3    H172686   4.320   4.570   4.288 -0.8131  0.6080  1.5712
17065TIP3    H272687   4.464   4.577   4.333  0.8659 -1.5687 -2.8501
17066TIP3   OH272688   4.489   1.588   6.271 -0.0270 -0.5154 -0.3866
17066TIP3    H172689   4.396   1.613   6.275 -0.4885 -2.0949 -0.4470
17066TIP3    H272690   4.529   1.629   6.347 -0.7351  0.3279 -0.4544
17067TIP3   OH272691   3.255   3.352  12.889 -0.6658  0.2611 -1.1888
17067TIP3    H172692   3.170   3.396  12.895 -0.8357 -0.1586 -0.4959
17067TIP3    H272693   3.314   3.420  12.857 -1.2145  0.6146 -1.4809
17068TIP3   OH272694   0.302   1.668   5.283 -0.3008  0.0682  0.3713
17068TIP3    H172695   0.296   1.582   5.241  2.5708 -0.3923  0.6598
17068TIP3    H272696   0.299   1.649   5.377 -1.6893  0.5337  0.4301
17069TIP3   OH272697   2.108   3.582   2.093  0.0337 -0.7711  0.2419
17069TIP3    H172698   2.036   3.521   2.105  0.2164 -1.3115 -1.1698
17069TIP3    H272699   2.082   3.661   2.141 -1.6952 -0.8060 -0.5714
17070TIP3   OH272700   3.378   1.381   3.618 -0.0032  0.1189 -0.1465
17070TIP3    H172701   3.352   1.301   3.664 -2.6731  0.5620 -0.7468
17070TIP3    H272702   3.326   1.380   3.538  0.9790  1.7828 -0.8516
17071TIP3   OH272703   1.163   6.615  16.939 -0.1765  0.2744  0.2535
17071TIP3    H172704   1.237   6.659  16.897 -0.1910  0.3825  0.3430
17071TIP3    H272705   1.086   6.661  16.906 -0.1211  1.4396  1.6631
17072TIP3   OH272706   3.284   1.137   2.641  0.1139  0.3656  0.2524
17072TIP3    H172707   3.375   1.156   2.663  0.3911  0.8811 -1.1992
17072TIP3    H272708   3.241   1.121   2.725  1.6900 -0.6075  0.9040
17073TIP3   OH272709   2.311   6.555   2.248 -0.0496 -0.1047 -0.1253
17073TIP3    H172710   2.294   6.489   2.181 -0.0943  0.8890 -1.1181
17073TIP3    H272711   2.295   6.638   2.204 -0.2064  0.5682  1.1630
17074TIP3   OH272712   0.967   5.840  13.892  0.0616 -0.4922 -0.2540
17074TIP3    H172713   0.941   5.748  13.882  0.6614 -0.8219  0.8879
17074TIP3    H272714   0.999   5.845  13.983  2.4266  0.2208 -1.0395
17075TIP3   OH272715   0.884   0.123   0.598  0.0169 -0.5062  0.4825
17075TIP3    H172716   0.792   0.136   0.575  0.1217  0.5589  0.6148
17075TIP3    H272717   0.932   0.137   0.516  0.0663 -1.0058  0.4251
17076TIP3   OH272718   3.669   2.651   5.471 -0.2171 -0.2163 -0.3951
17076TIP3    H172719   3.630   2.691   5.549  0.7448 -1.1639  0.6041
17076TIP3    H272720   3.605   2.586   5.443 -0.1645 -0.5251  0.1777
17077TIP3   OH272721   1.935   2.391   5.017  0.2451 -0.1300 -0.7671
17077TIP3    H172722   1.866   2.448   5.050 -0.0039 -0.1455 -1.2507
17077TIP3    H272723   2.016   2.441   5.030  0.3990 -0.8678  1.5671
17078TIP3   OH272724   5.394   2.013  15.609  0.5684 -0.1491  0.0799
17078TIP3    H172725   5.344   1.940  15.574 -1.4952  0.5856  1.3640
17078TIP3    H272726   5.410   2.069  15.533 -1.5757  0.1470 -0.2029
17079TIP3   OH272727   6.344   3.492   5.972  0.0703  1.1268 -0.6532
17079TIP3    H172728   6.279   3.510   5.904  0.7868  2.0219 -1.1221
17079TIP3    H272729   6.326   3.557   6.040 -1.0627 -0.1797  0.3502
17080TIP3   OH272730   2.692   1.109   3.760  0.0506  0.0633 -0.4437
17080TIP3    H172731   2.685   1.158   3.842 -1.1067  0.4835 -0.7854
17080TIP3    H272732   2.786   1.111   3.739  0.1861  1.0600  0.1901
17081TIP3   OH272733   0.582   5.670   4.531 -0.2497  0.5713  0.1896
17081TIP3    H172734   0.526   5.646   4.457  0.0783  0.8091 -0.1331
17081TIP3    H272735   0.628   5.748   4.503  0.6939  0.0476  0.2344
17082TIP3   OH272736   6.361   0.614  17.169  0.3457  0.1095  0.5671
17082TIP3    H172737   6.295   0.588  17.233  0.2939 -1.2767 -0.0067
17082TIP3    H272738   6.316   0.606  17.084  0.4359  1.8326  0.3203
17083TIP3   OH272739   5.057   4.171  16.990 -0.1282  0.4411  0.4272
17083TIP3    H172740   4.978   4.225  16.981  1.0192  2.0545 -0.6923
17083TIP3    H272741   5.090   4.163  16.900  0.9068 -0.2975  0.8594
17084TIP3   OH272742   5.800   2.441   0.243 -0.1080 -0.4110 -0.4198
17084TIP3    H172743   5.829   2.404   0.326 -0.9170  0.6754  0.3677
17084TIP3    H272744   5.881   2.454   0.193  0.6231  0.8153  1.0037
17085TIP3   OH272745   3.514   0.057  11.094  0.0001  0.2482 -0.2179
17085TIP3    H172746   3.440   0.003  11.122 -0.6827  1.2165 -0.0890
17085TIP3    H272747   3.553   0.088  11.176 -0.3932  0.9628 -0.2905
17086TIP3   OH272748   6.553   5.428  12.255 -0.2374  0.9695 -0.2039
17086TIP3    H172749   6.618   5.493  12.282 -0.0405  1.5984 -1.9950
17086TIP3    H272750   6.598   5.376  12.188  0.1309 -2.1277  2.2654
17087TIP3   OH272751   6.245   3.603  14.011 -0.5794 -0.5034 -0.2658
17087TIP3    H172752   6.191   3.609  13.932 -1.5095 -2.3460  0.1610
17087TIP3    H272753   6.202   3.535  14.064  0.4562  0.1419  1.4830
17088TIP3   OH272754   1.985   2.675  14.999  0.5701 -0.4559 -0.5251
17088TIP3    H172755   1.943   2.597  14.962  0.1253 -1.7802  2.4876
17088TIP3    H272756   2.078   2.664  14.977  0.0732  0.1827 -3.3432
17089TIP3   OH272757   3.113   6.714   4.910 -0.5624 -0.0374 -0.4163
17089TIP3    H172758   3.030   6.726   4.865  0.0120 -1.7667 -2.1081
17089TIP3    H272759   3.146   6.630   4.877  1.4818  0.2166  0.7837
17090TIP3   OH272760   3.618   6.273  13.985 -0.0057  0.0041 -0.0551
17090TIP3    H172761   3.652   6.321  13.909 -0.0174 -0.2906 -0.2453
17090TIP3    H272762   3.644   6.327  14.060 -0.7997  0.7847 -0.3160
17091TIP3   OH272763   5.775   4.565   1.651  0.1046 -0.1229 -0.4489
17091TIP3    H172764   5.848   4.615   1.689 -0.3006  0.8437 -0.9073
17091TIP3    H272765   5.717   4.632   1.614 -0.1177 -0.9761 -1.6837
17092TIP3   OH272766   2.490   3.278   3.590 -0.4945  0.0872  0.4517
17092TIP3    H172767   2.425   3.236   3.646 -0.5143 -0.2766  0.1668
17092TIP3    H272768   2.574   3.258   3.631 -0.4236 -1.1414 -0.2295
17093TIP3   OH272769   1.138   1.107   2.501  1.2224 -0.0101 -0.1880
17093TIP3    H172770   1.177   1.035   2.550 -0.1119 -0.1476  0.7276
17093TIP3    H272771   1.181   1.185   2.534  1.6005 -0.2599 -0.0892
17094TIP3   OH272772   3.161   6.314   3.397  0.2273 -0.3109  0.6671
17094TIP3    H172773   3.072   6.335   3.425  0.2325  0.4744  0.1156
17094TIP3    H272774   3.171   6.359   3.313  1.6599  0.8279  1.4172
17095TIP3   OH272775   0.017   4.213  15.868 -0.2127  0.1190  0.2888
17095TIP3    H172776  -0.028   4.131  15.889 -0.3231  0.2149  0.4295
17095TIP3    H272777   0.065   4.235  15.947 -0.4286  0.3509  0.3579
17096TIP3   OH272778   1.689   3.733   4.199  0.2781 -0.4781  0.4939
17096TIP3    H172779   1.616   3.731   4.260 -0.9898 -1.7207 -0.9875
17096TIP3    H272780   1.731   3.648   4.208 -1.2338 -1.5690 -1.7822
17097TIP3   OH272781   4.550   0.615   0.213  0.1564  0.6235 -0.0267
17097TIP3    H172782   4.516   0.662   0.289 -0.0788 -1.2335  1.0852
17097TIP3    H272783   4.473   0.603   0.156 -0.1337  0.2593  0.4265
17098TIP3   OH272784   0.805   2.214  10.519  0.2381 -0.3737 -0.2292
17098TIP3    H172785   0.739   2.280  10.500 -0.3511 -0.8303  0.1895
17098TIP3    H272786   0.889   2.256  10.499 -0.0733  0.7670  0.7943
17099TIP3   OH272787   0.472   3.413   1.934 -0.1566  0.1901  0.1277
17099TIP3    H172788   0.518   3.493   1.959  1.5794  0.0896 -2.3663
17099TIP3    H272789   0.409   3.441   1.868  1.1633 -0.5562 -1.5183
17100TIP3   OH272790   1.955   6.024  11.733  0.1649  0.7363 -0.7518
17100TIP3    H172791   1.863   6.009  11.712  0.4636  0.0080 -1.6354
17100TIP3    H272792   1.976   5.957  11.798  0.2732  0.3608 -1.1663
17101TIP3   OH272793   0.273   6.796   0.419  0.0814  0.0749 -0.0787
17101TIP3    H172794   0.274   6.867   0.355  0.7699 -0.0800 -0.2404
17101TIP3    H272795   0.327   6.727   0.380  0.5564 -0.0006  0.6964
17102TIP3   OH272796   1.843   6.101   1.427 -0.1466  0.4480  0.2874
17102TIP3    H172797   1.763   6.052   1.446 -0.9888  1.5336 -0.3796
17102TIP3    H272798   1.913   6.036   1.436 -1.1595 -0.7078  0.1224
17103TIP3   OH272799   0.849   0.804   3.263 -0.4405 -0.4731  0.1125
17103TIP3    H172800   0.832   0.825   3.171  0.7894  3.5167  0.6308
17103TIP3    H272801   0.763   0.795   3.302 -1.1995  2.6053 -0.5909
17104TIP3   OH272802   1.642   0.005   3.430 -0.1739  0.6272 -0.5489
17104TIP3    H172803   1.617  -0.085   3.407 -0.8610  0.4915  0.6545
17104TIP3    H272804   1.736  -0.001   3.449 -0.0436  0.3363 -1.2308
17105TIP3   OH272805   1.527   0.855  16.685 -0.0880 -0.4851 -0.0613
17105TIP3    H172806   1.553   0.823  16.772  0.6950  0.1152 -0.0624
17105TIP3    H272807   1.434   0.875  16.693  0.0416 -0.1600  0.7293
17106TIP3   OH272808   4.887   1.498  14.178  0.1232  0.5774 -0.0419
17106TIP3    H172809   4.979   1.507  14.204  0.2231 -0.8282  0.1362
17106TIP3    H272810   4.839   1.496  14.261 -0.2068  2.3668 -0.1474
17107TIP3   OH272811   3.834   4.338   3.818 -0.0082 -0.2224 -0.1835
17107TIP3    H172812   3.904   4.284   3.781 -0.8283 -0.7564 -1.0002
17107TIP3    H272813   3.848   4.334   3.912  2.3802  1.4855 -0.3673
17108TIP3   OH272814   6.468   3.700  15.651  0.1560 -0.3714 -0.0140
17108TIP3    H172815   6.419   3.619  15.642  0.0151 -0.3943  0.8987
17108TIP3    H272816   6.413   3.767  15.611  0.8213 -0.8990 -1.9256
17109TIP3   OH272817   3.621   2.777   1.492  0.5251 -0.3514 -0.6730
17109TIP3    H172818   3.680   2.843   1.530 -0.5148 -0.0996  0.5715
17109TIP3    H272819   3.540   2.824   1.476 -0.7896 -1.6098  1.7476
17110TIP3   OH272820   6.461   2.669  14.085  0.5346  0.6173  0.3585
17110TIP3    H172821   6.520   2.736  14.053  1.0676  0.8367  1.7138
17110TIP3    H272822   6.426   2.627  14.007  0.3792  2.3038 -0.5091
17111TIP3   OH272823   2.810   1.619  13.964  0.1757 -0.0847  0.1135
17111TIP3    H172824   2.820   1.524  13.968  0.6217 -0.1895 -2.2874
17111TIP3    H272825   2.717   1.633  13.946  0.5235 -0.2547 -2.1462
17112TIP3   OH272826   4.954   4.093   3.818 -0.6018 -0.8829 -0.6692
17112TIP3    H172827   5.007   4.167   3.848  0.5961 -2.0584  0.2151
17112TIP3    H272828   4.931   4.115   3.728  1.4080 -0.3247 -1.0902
17113TIP3   OH272829   2.169   6.123   5.240  0.0314  0.2170  0.4778
17113TIP3    H172830   2.087   6.073   5.239  0.2605 -0.1575  0.0476
17113TIP3    H272831   2.238   6.057   5.249  0.4578  0.2538 -1.8651
17114TIP3   OH272832   1.181   5.663  13.814  0.3547  0.6892 -0.0922
17114TIP3    H172833   1.085   5.661  13.810  0.3672 -2.4441 -1.1442
17114TIP3    H272834   1.210   5.631  13.729  2.2256 -1.6669  1.3047
17115TIP3   OH272835   1.130   5.454   2.313  0.4488 -0.1027 -0.5876
17115TIP3    H172836   1.112   5.536   2.359 -2.2229  0.0747 -1.7684
17115TIP3    H272837   1.117   5.476   2.221 -2.9546 -2.3408 -0.7913
17116TIP3   OH272838   4.722   2.393  12.141 -0.2738  0.0573  0.2140
17116TIP3    H172839   4.789   2.336  12.179  0.6545  1.7435  1.1940
17116TIP3    H272840   4.770   2.469  12.108 -1.4928  0.3652 -0.9749
17117TIP3   OH272841   6.522   3.294   4.178  0.3547  0.2329 -0.0570
17117TIP3    H172842   6.464   3.344   4.235  2.0773  0.4218  1.6189
17117TIP3    H272843   6.594   3.265   4.235  1.4003 -0.8569 -1.8155
17118TIP3   OH272844   0.823   2.496  11.388 -0.5598  0.6147 -0.1810
17118TIP3    H172845   0.787   2.551  11.457  0.6493  0.8305  0.2981
17118TIP3    H272846   0.884   2.438  11.433 -1.6012 -0.9777 -0.7017
17119TIP3   OH272847   2.718   5.911   5.816 -0.3133 -0.2534 -0.2172
17119TIP3    H172848   2.795   5.873   5.774 -1.4037 -1.2588 -1.4099
17119TIP3    H272849   2.747   5.935   5.903  1.2439 -0.9846 -0.5074
17120TIP3   OH272850   6.364   6.669   4.625  0.0726  0.0448  1.0626
17120TIP3    H172851   6.295   6.632   4.680  0.6179 -1.9454  0.5177
17120TIP3    H272852   6.419   6.593   4.602  0.1615  0.8628 -1.7740
17121TIP3   OH272853   3.967   5.850  14.827 -0.3765 -0.1705 -0.3748
17121TIP3    H172854   3.969   5.797  14.907 -3.7271  0.3699  0.1978
17121TIP3    H272855   3.971   5.940  14.857 -0.2893  0.0182 -0.9376
17122TIP3   OH272856   0.339   1.520   2.046 -0.5648  0.1582  0.2246
17122TIP3    H172857   0.284   1.461   1.995  0.8202 -1.0673  0.1014
17122TIP3    H272858   0.389   1.569   1.981  1.3434 -1.5407  0.3137
17123TIP3   OH272859   2.170   1.629   3.554 -0.0234  0.5139 -0.1082
17123TIP3    H172860   2.162   1.539   3.586  2.8777  0.3599  0.4623
17123TIP3    H272861   2.202   1.620   3.464  0.0226  0.9839 -0.1422
17124TIP3   OH272862   2.332   2.179   4.468  0.1109  0.2272 -0.3881
17124TIP3    H172863   2.398   2.246   4.450 -0.4203  0.7764 -0.3157
17124TIP3    H272864   2.313   2.140   4.382  1.9071 -1.2740 -0.1727
17125TIP3   OH272865   3.184   5.040   4.290 -0.8409  0.1149  0.2253
17125TIP3    H172866   3.126   5.109   4.322 -0.8294 -0.6904  2.1359
17125TIP3    H272867   3.270   5.081   4.283 -1.3084  0.9161 -1.1076
17126TIP3   OH272868   3.593   1.712  12.041  0.3863  0.1258 -0.0079
17126TIP3    H172869   3.578   1.695  11.948  0.7871 -0.4795  0.0311
17126TIP3    H272870   3.505   1.711  12.080  0.1570  1.0318 -0.4720
17127TIP3   OH272871   2.043   2.716  11.665  0.0677 -0.6165 -0.1935
17127TIP3    H172872   1.956   2.699  11.629  0.1008  0.5356 -0.8644
17127TIP3    H272873   2.038   2.805  11.699  0.7696 -0.8161  0.4717
17128TIP3   OH272874   5.012   4.574   3.228 -0.2138  0.5206 -0.1157
17128TIP3    H172875   5.103   4.545   3.241  0.3125  2.5574  1.2153
17128TIP3    H272876   5.003   4.582   3.133  1.5268  1.6975 -0.2331
17129TIP3   OH272877   4.595   1.907   4.179  0.3911 -0.0675 -0.2061
17129TIP3    H172878   4.659   1.864   4.122  0.2840 -0.3583 -0.1139
17129TIP3    H272879   4.632   1.898   4.267 -0.1199 -0.8923 -0.0649
17130TIP3   OH272880   3.209   3.962   4.848  0.0685  0.5391  0.1586
17130TIP3    H172881   3.180   3.944   4.759  1.5378  1.2064 -0.4898
17130TIP3    H272882   3.301   3.935   4.849  0.0563  0.4821  1.4897
17131TIP3   OH272883   5.385   2.292   0.226  0.3855 -0.0109  0.5888
17131TIP3    H172884   5.467   2.332   0.196 -0.3262  0.7996 -0.3352
17131TIP3    H272885   5.354   2.242   0.150  0.1651 -0.5775  1.0372
17132TIP3   OH272886   3.865   1.700  11.685  0.2648  0.6825  0.5150
17132TIP3    H172887   3.825   1.661  11.608 -0.3940  1.2035  0.5897
17132TIP3    H272888   3.795   1.749  11.727  0.8327  1.1212  0.9741
17133TIP3   OH272889   6.469   5.668  15.117  0.0836  0.3072  0.4428
17133TIP3    H172890   6.459   5.643  15.025 -0.2551 -2.4554  1.1330
17133TIP3    H272891   6.433   5.757  15.122  0.0409  0.5057 -2.0560
17134TIP3   OH272892   5.582   5.026  12.273  0.7545  0.5361 -0.3533
17134TIP3    H172893   5.602   4.948  12.324  0.1807 -0.2892 -1.3662
17134TIP3    H272894   5.624   5.098  12.321  1.3311 -0.3964  0.5578
17135TIP3   OH272895   0.799   4.844   2.368  0.2686  0.8293  1.1933
17135TIP3    H172896   0.843   4.804   2.443  0.2385 -0.5630  0.5059
17135TIP3    H272897   0.843   4.928   2.356  2.3178 -0.2063  0.9557
17136TIP3   OH272898   2.892   2.736  14.527  0.1919  0.0967  0.0488
17136TIP3    H172899   2.946   2.736  14.448  1.4561  1.9549  0.8437
17136TIP3    H272900   2.815   2.789  14.504  1.0910  1.5861  0.3526
17137TIP3   OH272901   6.205   6.222  11.553 -0.4726 -0.5938  0.6876
17137TIP3    H172902   6.131   6.186  11.505 -0.2764 -0.9064  0.6171
17137TIP3    H272903   6.204   6.316  11.532  1.1114 -1.0699 -2.0391
17138TIP3   OH272904   3.856   3.342  16.701  0.3423  0.1500 -0.1662
17138TIP3    H172905   3.767   3.369  16.721 -0.0245 -0.5927 -0.7369
17138TIP3    H272906   3.911   3.412  16.736 -0.4295  0.3476  0.6872
17139TIP3   OH272907   6.129   3.971  14.621 -0.2383 -0.0865 -0.2453
17139TIP3    H172908   6.178   4.011  14.693 -2.0090  0.0742  0.9274
17139TIP3    H272909   6.104   4.045  14.565 -5.2756  1.1575  2.9712
17140TIP3   OH272910   2.330   5.405   0.959 -0.0434 -0.1831  0.5432
17140TIP3    H172911   2.315   5.367   1.046  1.8762  0.4421  1.1999
17140TIP3    H272912   2.396   5.350   0.919  0.1902  0.4066  0.0976
17141TIP3   OH272913   1.298   3.606  15.497  0.0218 -0.6524 -0.3027
17141TIP3    H172914   1.228   3.549  15.529 -0.0297 -2.4805 -3.2061
17141TIP3    H272915   1.253   3.676  15.451  0.1007 -0.0990  0.4585
17142TIP3   OH272916   1.090   4.884   1.185  0.1248 -0.5836 -0.1246
17142TIP3    H172917   1.094   4.790   1.167 -0.5351 -0.4641 -0.9686
17142TIP3    H272918   1.003   4.897   1.224  0.6684 -0.4885  1.1042
17143TIP3   OH272919   0.812   4.082  13.047 -0.2527 -0.1330 -0.0309
17143TIP3    H172920   0.800   4.112  13.137  2.6138 -2.8786  1.4441
17143TIP3    H272921   0.850   3.995  13.055  4.4358  1.1248 -3.7041
17144TIP3   OH272922   0.509   5.768   5.517 -0.4044  0.6027 -0.5023
17144TIP3    H172923   0.580   5.831   5.533 -0.5965  0.9634 -1.0164
17144TIP3    H272924   0.542   5.713   5.446  0.3414 -0.8210  0.8846
17145TIP3   OH272925   5.989   5.189  13.347  0.3689  0.1588  0.2419
17145TIP3    H172926   5.918   5.238  13.304  0.3695 -0.3894 -0.4109
17145TIP3    H272927   6.049   5.256  13.378 -0.9004  0.6838  1.6750
17146TIP3   OH272928   0.271   6.063   2.557  0.2604  0.3418 -0.0144
17146TIP3    H172929   0.208   6.027   2.494  1.8661 -1.5393 -0.6740
17146TIP3    H272930   0.224   6.132   2.603 -1.9620 -0.3642 -1.1195
17147TIP3   OH272931   0.440   2.929   5.621  0.3853 -0.2935 -0.2084
17147TIP3    H172932   0.460   3.019   5.645  0.8905  0.1296 -2.0740
17147TIP3    H272933   0.345   2.921   5.634  0.5390  0.0447  1.3001
17148TIP3   OH272934   1.295   4.497  14.197  0.5540 -0.0277 -0.2866
17148TIP3    H172935   1.293   4.525  14.105 -1.2874  1.8193  0.2579
17148TIP3    H272936   1.326   4.574  14.244 -0.7651 -0.1717  0.8622
17149TIP3   OH272937   0.280   4.642  14.255 -0.5226 -0.5448  0.0738
17149TIP3    H172938   0.310   4.553  14.236 -2.0278 -1.1958  0.5483
17149TIP3    H272939   0.299   4.654  14.348  0.0732 -0.2002 -0.0905
17150TIP3   OH272940   3.325   4.127  14.692 -0.2617 -0.2346 -0.0264
17150TIP3    H172941   3.305   4.146  14.783 -1.2190 -0.6580 -0.1389
17150TIP3    H272942   3.414   4.091  14.693 -1.0147 -2.1772  0.9921
17151TIP3   OH272943   3.273   2.530   2.838  0.7739 -0.3810 -0.4130
17151TIP3    H172944   3.268   2.596   2.907  2.1990 -0.2129 -0.4360
17151TIP3    H272945   3.311   2.453   2.882 -0.3665 -1.0183 -0.5123
17152TIP3   OH272946   4.573   1.510   5.798  0.0701  0.0870  0.2116
17152TIP3    H172947   4.504   1.451   5.827 -0.5069  0.5134 -0.2665
17152TIP3    H272948   4.553   1.594   5.840  0.1108  0.2944 -0.1728
17153TIP3   OH272949   2.819   1.736   1.116 -0.2507  0.2352  0.1716
17153TIP3    H172950   2.858   1.792   1.049  1.1987  0.8945  1.5005
17153TIP3    H272951   2.894   1.690   1.155 -1.2358 -1.4194  0.2055
17154TIP3   OH272952   4.329   6.134   3.946 -0.4553 -0.3740 -0.0023
17154TIP3    H172953   4.333   6.203   3.880 -1.1017 -0.5090 -0.1958
17154TIP3    H272954   4.298   6.178   4.025  0.0717 -0.2602  0.1414
17155TIP3   OH272955   6.699   1.528   3.502 -0.1158 -0.6494  0.0761
17155TIP3    H172956   6.717   1.570   3.586  0.6973  3.4659 -1.8984
17155TIP3    H272957   6.612   1.488   3.513 -0.5511  0.7716  2.5203
17156TIP3   OH272958   0.437   1.886   2.106  0.3088  0.1593  0.4363
17156TIP3    H172959   0.453   1.810   2.161  1.5040  0.2198  0.2040
17156TIP3    H272960   0.509   1.946   2.127  0.4045  0.4618 -0.6943
17157TIP3   OH272961   5.881   5.674  14.639 -0.5800  0.4964 -0.0746
17157TIP3    H172962   5.851   5.625  14.562  0.1581  1.0185 -0.7014
17157TIP3    H272963   5.954   5.727  14.608  0.9570 -0.6349  1.3741
17158TIP3   OH272964   0.600   5.250   1.614  0.1293 -0.3081  0.3043
17158TIP3    H172965   0.530   5.255   1.549 -0.0704  0.3355  0.5622
17158TIP3    H272966   0.575   5.176   1.670 -0.7874  0.4346  0.8955
17159TIP3   OH272967   6.512   1.562  16.991 -0.7161 -0.1808  0.2065
17159TIP3    H172968   6.572   1.637  16.984 -0.1227 -0.4985  1.5952
17159TIP3    H272969   6.465   1.562  16.908 -1.2268  2.1524  0.4251
17160TIP3   OH272970   4.790   2.870  11.012  0.2072 -0.3252  0.3921
17160TIP3    H172971   4.721   2.886  11.077  1.9697 -1.0161  2.5746
17160TIP3    H272972   4.806   2.776  11.017  1.2971 -0.1755 -0.0688
17161TIP3   OH272973   3.936   4.886   1.582  0.0755  0.0495 -0.4202
17161TIP3    H172974   3.895   4.908   1.498 -1.3780 -1.6451 -0.2110
17161TIP3    H272975   3.905   4.953   1.642  0.0820  0.5376 -0.9499
17162TIP3   OH272976   1.227   1.555  14.207  0.1637 -0.1510  0.0858
17162TIP3    H172977   1.183   1.591  14.130  2.7473 -0.9786 -1.9228
17162TIP3    H272978   1.271   1.631  14.246 -1.6411  0.3850  1.1848
17163TIP3   OH272979   2.797   0.691  12.915 -0.0878 -0.2334 -0.2749
17163TIP3    H172980   2.755   0.776  12.926  1.5972  0.5635  0.3985
17163TIP3    H272981   2.889   0.708  12.933  0.4288 -2.0361 -1.0330
17164TIP3   OH272982   2.582   3.757  11.619 -0.5061  0.6061 -0.0759
17164TIP3    H172983   2.633   3.790  11.545 -1.4272  0.5407 -0.7704
17164TIP3    H272984   2.493   3.748  11.584 -0.5226 -1.5239  0.3960
17165TIP3   OH272985   2.067   5.882   0.677 -0.0988 -0.2801 -0.5164
17165TIP3    H172986   2.030   5.833   0.603 -0.4097  0.2248 -0.6980
17165TIP3    H272987   2.153   5.909   0.648 -0.6054  0.7711 -1.0764
17166TIP3   OH272988   0.196   1.346  13.659  0.5130 -0.1126  0.2715
17166TIP3    H172989   0.269   1.393  13.619  0.7397 -0.8055 -0.1367
17166TIP3    H272990   0.232   1.261  13.684 -0.3460 -0.7910 -0.7017
17167TIP3   OH272991   4.940   5.443   4.682 -0.1561  0.4232  0.3537
17167TIP3    H172992   4.846   5.427   4.688 -0.1084 -0.3323 -0.6340
17167TIP3    H272993   4.968   5.459   4.772 -1.1242  0.1008  0.7238
17168TIP3   OH272994   4.937   2.358   4.853  0.3947 -0.0919 -0.0133
17168TIP3    H172995   4.912   2.334   4.942  0.5160  1.4575  0.4799
17168TIP3    H272996   4.856   2.348   4.802 -0.3251  1.2692  0.7874
17169TIP3   OH272997   4.306   0.621   6.510  0.1061  0.3930  0.7164
17169TIP3    H172998   4.351   0.539   6.489  0.5141  0.7170  0.3256
17169TIP3    H272999   4.319   0.633   6.604  0.4702  0.2668  0.6823
17170TIP3   OH273000   1.093   3.522  11.995 -0.4191  0.1909 -0.8396
17170TIP3    H173001   1.058   3.506  11.907  1.3263  0.6817 -1.6714
17170TIP3    H273002   1.143   3.444  12.016 -0.9296  0.0257 -0.2113
17171TIP3   OH273003   5.587   4.397  11.980  0.2357  0.1383 -0.1802
17171TIP3    H173004   5.605   4.373  11.890 -0.3499 -0.0271 -0.2601
17171TIP3    H273005   5.568   4.314  12.024  0.0085  0.2675 -0.0302
17172TIP3   OH273006   1.476   3.182   3.160  0.2719  0.5870  0.0332
17172TIP3    H173007   1.412   3.244   3.195  0.1297  0.7437 -0.4890
17172TIP3    H273008   1.454   3.176   3.067  2.2221  2.1366 -0.5872
17173TIP3   OH273009   6.250   3.668   3.451  0.4973  0.3825 -0.0134
17173TIP3    H173010   6.249   3.586   3.401  0.6552  1.1543 -1.3150
17173TIP3    H273011   6.164   3.671   3.493  1.4641 -1.7977  2.3929
17174TIP3   OH273012   3.189   0.635   1.733 -0.1789  0.2797  0.1016
17174TIP3    H173013   3.131   0.586   1.675  0.4175 -1.1528  0.6698
17174TIP3    H273014   3.131   0.699   1.775 -0.8168  0.6444 -1.2554
17175TIP3   OH273015   3.840   0.478   2.719  0.7068  0.2987 -0.4568
17175TIP3    H173016   3.749   0.506   2.708  0.5932 -0.4197 -1.4625
17175TIP3    H273017   3.843   0.390   2.682  1.9897  0.6145 -1.1871
17176TIP3   OH273018   1.756   6.407   1.662  0.3069 -0.2027 -0.5417
17176TIP3    H173019   1.702   6.367   1.731  0.6331  1.6271  0.8700
17176TIP3    H273020   1.706   6.485   1.636  1.1391  0.2072 -0.9375
17177TIP3   OH273021   4.554   2.776   3.985  0.5066  0.5284 -0.5630
17177TIP3    H173022   4.534   2.779   3.892  1.3417 -1.6463 -0.8689
17177TIP3    H273023   4.637   2.823   3.994  2.6623 -2.7136 -1.7079
17178TIP3   OH273024   2.678   3.907   0.838 -0.1144  0.2061  0.0817
17178TIP3    H173025   2.743   3.886   0.772 -0.3857 -1.3070  0.2702
17178TIP3    H273026   2.712   3.987   0.880  0.2379  0.9753 -1.5961
17179TIP3   OH273027   3.774   4.431  15.148 -0.1843  0.3207 -0.1103
17179TIP3    H173028   3.786   4.349  15.196 -0.2901  0.6502  0.4848
17179TIP3    H273029   3.835   4.492  15.188  0.2117  0.4232 -0.8393
17180TIP3   OH273030   1.015   1.318  13.322  0.2103  0.3194  0.1700
17180TIP3    H173031   0.943   1.264  13.355 -0.5277  0.7279 -0.7379
17180TIP3    H273032   0.975   1.402  13.300  1.0912  0.7800  0.2762
17181TIP3   OH273033   0.374   3.218  16.603 -0.1465  0.6887 -0.3412
17181TIP3    H173034   0.345   3.130  16.579  0.7980  0.7418 -1.7699
17181TIP3    H273035   0.454   3.205  16.653  1.9403  0.7821 -3.4572
17182TIP3   OH273036   1.138   6.162   5.760 -0.9119 -0.6805 -0.1368
17182TIP3    H173037   1.045   6.143   5.754 -0.9960  0.1014 -1.8257
17182TIP3    H273038   1.151   6.238   5.703  0.4431  0.4252  1.5476
17183TIP3   OH273039   1.765   0.423  16.483 -0.2544 -0.1405  0.0970
17183TIP3    H173040   1.720   0.506  16.496  2.8374  1.5862  0.6527
17183TIP3    H273041   1.783   0.391  16.572  1.7276  0.5168 -0.0206
17184TIP3   OH273042   6.055   1.054  10.792  0.2616 -0.1585 -0.2041
17184TIP3    H173043   5.963   1.031  10.775  0.0752  0.7567 -0.4922
17184TIP3    H273044   6.101   0.970  10.790 -0.2205 -0.4338 -2.2993
17185TIP3   OH273045   1.589   2.852   0.899 -0.3391 -0.0043 -0.3380
17185TIP3    H173046   1.558   2.776   0.851 -0.3844  0.1241 -0.5139
17185TIP3    H273047   1.681   2.859   0.876 -0.5961  0.6530 -1.2108
17186TIP3   OH273048   5.126   4.704   5.564  0.4171  0.6427  0.4743
17186TIP3    H173049   5.073   4.740   5.635  1.4792  1.4277  0.8905
17186TIP3    H273050   5.212   4.744   5.575  0.7174  0.4888 -1.0349
17187TIP3   OH273051   1.808   4.880   2.685  0.1338 -0.5900 -0.3299
17187TIP3    H173052   1.832   4.793   2.718  1.5554 -0.2176 -0.3131
17187TIP3    H273053   1.750   4.915   2.753 -0.3054 -1.4450 -0.2468
17188TIP3   OH273054   1.006   0.387  15.223  0.4638  0.3265 -0.0943
17188TIP3    H173055   0.948   0.359  15.294 -0.1060  2.7656  0.4783
17188TIP3    H273056   1.072   0.442  15.265 -0.5278  2.7579 -1.5309
17189TIP3   OH273057   6.828   5.144   6.044  0.9485 -0.2804 -0.9084
17189TIP3    H173058   6.761   5.210   6.025 -0.0495 -0.3885  1.7836
17189TIP3    H273059   6.902   5.195   6.079  0.1692 -0.5117  1.1909
17190TIP3   OH273060   4.131   5.937   4.769  0.0230 -0.0628 -0.1390
17190TIP3    H173061   4.212   5.907   4.729  0.1304  0.1752 -0.1035
17190TIP3    H273062   4.151   5.945   4.862  0.0407  0.2604 -0.1694
17191TIP3   OH273063   2.635   1.403  15.645  0.2890 -0.4467  0.0002
17191TIP3    H173064   2.709   1.427  15.589  0.6273 -1.3710  0.0266
17191TIP3    H273065   2.618   1.311  15.623 -0.5390 -0.3841  0.3483
17192TIP3   OH273066   5.546   3.805  15.174 -0.0842  0.1016 -0.0764
17192TIP3    H173067   5.490   3.758  15.237  0.7175  0.0628  0.6313
17192TIP3    H273068   5.626   3.824  15.223  0.3577  0.5345 -0.9414
17193TIP3   OH273069   3.599   3.659   0.239  0.3277  0.9626 -0.4649
17193TIP3    H173070   3.668   3.596   0.257 -1.0507  0.1960  3.0517
17193TIP3    H273071   3.536   3.612   0.186  1.2622  0.8447 -1.5049
17194TIP3   OH273072   6.390   0.038  15.307  0.1779 -0.2904  0.7115
17194TIP3    H173073   6.389  -0.039  15.364  0.5141 -0.8549 -0.0213
17194TIP3    H273074   6.432   0.106  15.359 -3.3197  0.5438  2.7514
17195TIP3   OH273075   0.840   4.915  16.650  0.3041  0.5478 -0.1921
17195TIP3    H173076   0.860   4.839  16.595 -0.6830 -0.1618  0.3987
17195TIP3    H273077   0.925   4.940  16.687  1.1328  1.5053 -2.5575
17196TIP3   OH273078   2.471   4.692   1.989  0.0314  0.0831  0.0075
17196TIP3    H173079   2.545   4.631   1.993  0.7901  0.9239 -0.8784
17196TIP3    H273080   2.427   4.671   1.907  0.2263  0.6432 -0.2430
17197TIP3   OH273081   5.687   0.855  16.741 -0.2241  0.1527 -0.5916
17197TIP3    H173082   5.724   0.938  16.771 -2.8819  1.3994 -0.4853
17197TIP3    H273083   5.762   0.807  16.704  1.8444  1.4974  1.6026
17198TIP3   OH273084   1.345   2.943   6.171 -0.5613  0.3208  0.5337
17198TIP3    H173085   1.435   2.957   6.201 -0.3632 -0.1818  0.1901
17198TIP3    H273086   1.305   2.889   6.238 -0.1184 -0.8040 -0.0752
17199TIP3   OH273087   0.544   4.213   4.439 -0.3048  0.2138 -0.1494
17199TIP3    H173088   0.625   4.162   4.429 -1.5800 -2.1179  0.7647
17199TIP3    H273089   0.499   4.172   4.513 -3.4761 -0.1464 -2.1332
17200TIP3   OH273090   5.733   0.225   4.840  0.6774 -0.7612 -0.4539
17200TIP3    H173091   5.772   0.298   4.888 -3.0050  2.3150 -1.5571
17200TIP3    H273092   5.781   0.220   4.758  1.0521  0.4022 -0.3104
17201TIP3   OH273093   2.698   3.766   2.583 -0.2121  0.2414  0.5147
17201TIP3    H173094   2.659   3.843   2.542 -0.0803 -0.1076 -0.2745
17201TIP3    H273095   2.787   3.763   2.548 -0.3410 -0.4910  0.2373
17202TIP3   OH273096   1.492   1.248   0.359 -0.2276 -0.9745 -0.4101
17202TIP3    H173097   1.535   1.252   0.444  3.3137 -1.7763 -1.9897
17202TIP3    H273098   1.459   1.158   0.353 -0.5875 -0.8821  0.1329
17203TIP3   OH273099   5.716   4.070   1.337  0.1053  0.3136  0.1928
17203TIP3    H173100   5.640   4.013   1.334 -0.2445  0.6376  1.9222
17203TIP3    H273101   5.779   4.024   1.393  0.6019  0.7317 -0.0065
17204TIP3   OH273102   0.222   5.887   0.739 -0.1649 -0.5212 -0.3651
17204TIP3    H173103   0.199   5.827   0.668  1.6305  0.2307 -1.6372
17204TIP3    H273104   0.142   5.937   0.755 -1.2168 -2.1038 -0.3716
17205TIP3   OH273105   2.105   4.703  11.343  0.5552 -0.0961  0.3497
17205TIP3    H173106   2.189   4.684  11.384  0.0917 -1.0178  0.9124
17205TIP3    H273107   2.054   4.746  11.411  0.9261  1.5161 -0.3304
17206TIP3   OH273108   4.526   4.534  11.782  0.6602  0.1390  0.1913
17206TIP3    H173109   4.434   4.551  11.765  0.1409 -0.9898  1.7266
17206TIP3    H273110   4.566   4.530  11.695  0.0495  4.2708 -0.5157
17207TIP3   OH273111   3.559   1.016  13.703 -0.4215  0.1901 -0.3287
17207TIP3    H173112   3.468   1.032  13.676 -0.5422  1.1776  0.6044
17207TIP3    H273113   3.588   0.944  13.647 -1.0283  1.3751 -2.2587
17208TIP3   OH273114   0.841   6.721   4.727 -0.5670 -0.2810  0.6744
17208TIP3    H173115   0.792   6.656   4.778 -2.0146 -1.5948 -2.1674
17208TIP3    H273116   0.774   6.767   4.676  0.8761  0.2354 -0.8345
17209TIP3   OH273117   5.422   1.611  13.573 -0.0462 -0.1960 -0.1101
17209TIP3    H173118   5.381   1.694  13.548 -2.3239 -0.4796  2.2593
17209TIP3    H273119   5.409   1.606  13.668  2.4438 -2.0542  0.2208
17210TIP3   OH273120   1.537   3.441  14.150  0.9207 -0.3833  0.1610
17210TIP3    H173121   1.519   3.369  14.090  0.4606  0.1051 -0.2932
17210TIP3    H273122   1.563   3.514  14.094  0.7628 -0.0053  0.5728
17211TIP3   OH273123   4.002   1.821   4.276  0.9888 -0.1599 -0.5905
17211TIP3    H173124   4.020   1.885   4.207  0.6074 -1.5008 -1.9898
17211TIP3    H273125   4.078   1.825   4.334  0.9235  1.5995 -0.5700
17212TIP3   OH273126   5.678   3.821  16.030  0.1214  0.7796 -0.1265
17212TIP3    H173127   5.732   3.890  16.068  0.2885  0.4327  0.2783
17212TIP3    H273128   5.608   3.807  16.094  1.2632 -0.8813  0.8458
17213TIP3   OH273129   4.112   2.317   1.882  0.6139 -0.3913  0.6177
17213TIP3    H173130   4.075   2.232   1.860 -1.1202  0.4007  0.3663
17213TIP3    H273131   4.205   2.308   1.862  0.5535 -2.3620  1.0226
17214TIP3   OH273132   1.348   1.883  15.943  0.8059 -0.0563  0.2620
17214TIP3    H173133   1.297   1.805  15.922  1.7977 -0.9696  1.0853
17214TIP3    H273134   1.420   1.850  15.998  1.4669  1.3833  0.3042
17215TIP3   OH273135   0.892   6.132  13.822 -0.6364  0.3898  0.5340
17215TIP3    H173136   0.921   6.156  13.910  0.5814 -0.1596  0.3005
17215TIP3    H273137   0.886   6.036  13.824 -2.2049  0.4492  0.4786
17216TIP3   OH273138   5.451   5.914   3.399  0.0098 -0.1411 -0.1785
17216TIP3    H173139   5.507   5.992   3.398  0.4884 -0.4896 -0.3318
17216TIP3    H273140   5.381   5.937   3.461 -0.2520  0.6816 -0.7491
17217TIP3   OH273141   6.691   6.506  14.332 -0.0551  0.1727 -0.1460
17217TIP3    H173142   6.704   6.567  14.404  0.5121 -0.3962  0.2418
17217TIP3    H273143   6.690   6.419  14.373 -3.1502 -0.0218 -0.3587
17218TIP3   OH273144   2.125   6.429   3.513  0.4147  0.4023  0.5898
17218TIP3    H173145   2.150   6.434   3.605  0.0287  0.5668  0.6860
17218TIP3    H273146   2.077   6.347   3.505  0.5792  0.3142  0.5033
17219TIP3   OH273147   6.562   1.422   0.212 -0.0572 -0.1383  0.6127
17219TIP3    H173148   6.547   1.451   0.302 -1.0758  0.8876  0.1381
17219TIP3    H273149   6.517   1.339   0.205  1.4300 -1.0679  1.5020
17220TIP3   OH273150   3.851   5.248  16.134 -0.5713  0.1676  0.5963
17220TIP3    H173151   3.791   5.185  16.092  0.1164  0.0879 -0.2956
17220TIP3    H273152   3.920   5.262  16.070 -0.2442  1.1720  1.1431
17221TIP3   OH273153   4.090   4.025   4.275  1.1117  0.5852 -0.8712
17221TIP3    H173154   4.062   4.060   4.359  1.9426 -0.1580 -0.2685
17221TIP3    H273155   4.185   4.036   4.275  1.0553  1.3138 -2.0670
17222TIP3   OH273156   2.653   4.113   3.984 -0.2590 -0.8031  0.4615
17222TIP3    H173157   2.730   4.060   4.009  1.0154  0.3169 -0.9019
17222TIP3    H273158   2.608   4.059   3.919  0.7428 -0.5039 -0.5281
17223TIP3   OH273159   0.658   6.807   4.545  0.5014 -0.0733  0.0625
17223TIP3    H173160   0.584   6.776   4.598  0.8731  0.1923  0.7510
17223TIP3    H273161   0.664   6.744   4.473 -1.2270  0.6359 -0.7529
17224TIP3   OH273162   0.470   5.989  11.231 -0.0899 -0.2738 -0.3969
17224TIP3    H173163   0.561   5.986  11.204  0.0959  0.7828  0.0888
17224TIP3    H273164   0.420   5.996  11.149  0.2446 -0.8639 -0.6607
17225TIP3   OH273165   5.264   0.802   2.712  0.0067 -0.6594 -0.0170
17225TIP3    H173166   5.240   0.895   2.712  0.3727 -0.5356 -2.1010
17225TIP3    H273167   5.216   0.766   2.787 -0.4216  1.1188  0.6249
17226TIP3   OH273168   2.802   1.845   5.606  0.2217  0.4228  0.1398
17226TIP3    H173169   2.863   1.771   5.610  0.4794  0.5186 -1.3083
17226TIP3    H273170   2.786   1.868   5.697 -0.6071 -2.0023  0.6884
17227TIP3   OH273171   3.090   5.289   6.071 -0.4306 -0.0779  0.5698
17227TIP3    H173172   3.177   5.259   6.043 -0.8354  0.5089 -1.4685
17227TIP3    H273173   3.065   5.227   6.139  0.9113 -1.2397  0.0752
17228TIP3   OH273174   2.893   0.831  14.249  0.3911 -0.2248 -0.1989
17228TIP3    H173175   2.904   0.915  14.203  1.4702  0.1473  0.7049
17228TIP3    H273176   2.978   0.788  14.241 -0.0480 -1.0748 -0.3293
17229TIP3   OH273177   4.323   3.781   0.174  0.0085  0.8921 -0.3699
17229TIP3    H173178   4.229   3.765   0.173  0.4597 -2.5215 -0.1828
17229TIP3    H273179   4.354   3.744   0.091  1.4376 -0.4373  0.7012
17230TIP3   OH273180   5.893   3.112   5.778 -0.5601  0.1480  0.7811
17230TIP3    H173181   5.916   3.020   5.791 -0.3267  0.2607  1.1867
17230TIP3    H273182   5.820   3.128   5.837  0.7913  0.7791  2.3606
17231TIP3   OH273183   4.687   4.959   4.851 -0.1077 -0.2857  0.0153
17231TIP3    H173184   4.782   4.951   4.842 -0.0390 -1.1760  1.3203
17231TIP3    H273185   4.669   4.939   4.943 -1.5491  0.0117 -0.1750
17232TIP3   OH273186   1.057   1.517   5.589  0.3824 -0.4556 -0.3295
17232TIP3    H173187   1.113   1.481   5.521  0.5459 -1.4961  0.3306
17232TIP3    H273188   1.094   1.485   5.671  1.9560  3.1166  0.5569
17233TIP3   OH273189   5.178   1.237  14.892  0.2968  0.0120 -0.1536
17233TIP3    H173190   5.193   1.278  14.977  0.5087  0.4369 -0.3926
17233TIP3    H273191   5.233   1.159  14.894  1.1740  0.6055 -0.3198
17234TIP3   OH273192   1.092   5.700  15.721  0.0285 -0.3104  0.1617
17234TIP3    H173193   1.186   5.686  15.714 -0.0761 -1.3560  0.6713
17234TIP3    H273194   1.064   5.644  15.793 -1.2437 -1.3537 -1.0726
17235TIP3   OH273195   1.610   0.469  13.598 -0.3476  0.1759  0.5294
17235TIP3    H173196   1.675   0.400  13.582  1.3396  1.6554  0.6084
17235TIP3    H273197   1.583   0.497  13.510  0.3198  0.5874  0.4436
17236TIP3   OH273198   5.467   3.616  16.070 -0.2668  0.1597 -0.4656
17236TIP3    H173199   5.450   3.660  15.987  1.1432 -1.2810 -1.5789
17236TIP3    H273200   5.553   3.576  16.059  0.2996  0.5480  1.9903
17237TIP3   OH273201   4.293   6.026  15.049  0.6740 -0.2238 -0.1522
17237TIP3    H173202   4.203   6.050  15.025  1.2595 -0.1874 -2.6535
17237TIP3    H273203   4.338   6.110  15.058  0.6986 -0.2610  0.0838
17238TIP3   OH273204   4.138   0.773  16.469  0.8307  0.4939 -0.2003
17238TIP3    H173205   4.176   0.778  16.557 -0.5932  3.3763  0.3486
17238TIP3    H273206   4.119   0.864  16.446 -1.2028 -0.4150 -2.4516
17239TIP3   OH273207   6.581   2.890   4.380 -0.1515  0.5380 -0.3923
17239TIP3    H173208   6.539   2.846   4.454  0.6408  1.1416  0.4281
17239TIP3    H273209   6.579   2.825   4.309 -0.4472 -0.2341  0.3079
17240TIP3   OH273210   2.573   6.218  14.087  0.1299 -0.0964 -0.0603
17240TIP3    H173211   2.564   6.132  14.047  0.6562 -0.1034 -0.1747
17240TIP3    H273212   2.484   6.245  14.107 -0.0178 -0.8058  0.2701
17241TIP3   OH273213   4.699   5.746  15.878 -0.1427  0.1623  0.2253
17241TIP3    H173214   4.620   5.724  15.928 -0.7696  1.8722  0.0339
17241TIP3    H273215   4.768   5.754  15.944 -0.3650 -0.2669  0.5153
17242TIP3   OH273216   4.758   6.577   1.232  0.0728 -0.2034  0.1617
17242TIP3    H173217   4.788   6.657   1.275  1.8452 -0.6312 -0.2092
17242TIP3    H273218   4.730   6.605   1.145 -1.6414  0.3555  0.8481
17243TIP3   OH273219   4.305   0.970   5.941  0.3106  0.2958 -0.4243
17243TIP3    H173220   4.242   0.921   5.889 -0.1036  0.4959 -0.1135
17243TIP3    H273221   4.252   1.018   6.006  0.6592  1.5116 -1.0013
17244TIP3   OH273222   2.778   0.197  15.705  0.0809 -0.4242  0.5097
17244TIP3    H173223   2.747   0.148  15.782  1.2790 -0.8868  0.7343
17244TIP3    H273224   2.732   0.280  15.709  0.3931 -0.2891  1.9633
17245TIP3   OH273225   4.596   6.624  14.903 -0.4077  0.1762 -0.1620
17245TIP3    H173226   4.567   6.561  14.837  0.9240  1.0820 -1.7015
17245TIP3    H273227   4.676   6.586  14.940 -1.1319 -0.3121  0.9461
17246TIP3   OH273228   2.816   5.237  12.532 -0.0292 -0.6059  0.8518
17246TIP3    H173229   2.889   5.197  12.581  0.6853 -0.6155 -0.1966
17246TIP3    H273230   2.833   5.215  12.441 -0.6864  0.4360  0.4551
17247TIP3   OH273231   4.133   2.767  11.598 -0.1581 -0.4041  0.0665
17247TIP3    H173232   4.120   2.837  11.533  0.5667 -1.5358 -1.3415
17247TIP3    H273233   4.057   2.774  11.656 -1.0399  0.3683 -1.1427
17248TIP3   OH273234   0.988   3.114   1.958 -0.3980 -0.3388  0.1195
17248TIP3    H173235   0.994   3.137   1.865 -1.7170 -1.1021 -0.1780
17248TIP3    H273236   0.914   3.165   1.991  1.3801  1.6409  1.3509
17249TIP3   OH273237   2.555   3.536  15.349 -0.2554 -0.1061  0.2813
17249TIP3    H173238   2.637   3.584  15.337  0.2143 -0.6575  1.1820
17249TIP3    H273239   2.488   3.603  15.346  0.2264  0.3700 -0.3568
17250TIP3   OH273240   3.365   2.411  13.560  0.0924  0.1428  0.1222
17250TIP3    H173241   3.370   2.398  13.655 -1.5568 -0.4023  0.1501
17250TIP3    H273242   3.412   2.336  13.523  0.3571  0.1237  0.4881
17251TIP3   OH273243   2.086   6.826   1.002  0.6587  0.3569  0.3753
17251TIP3    H173244   2.042   6.813   1.086 -0.1838 -0.8998 -0.2311
17251TIP3    H273245   2.016   6.854   0.943  1.0909  0.4118 -0.1194
17252TIP3   OH273246   5.578   6.617   1.220 -0.2753  0.2616  0.7620
17252TIP3    H173247   5.601   6.626   1.128  2.0139 -0.1001  1.2362
17252TIP3    H273248   5.484   6.634   1.223 -0.5110 -0.2350 -1.6958
17253TIP3   OH273249   6.020   2.932   1.520  0.6260 -0.1932 -0.0005
17253TIP3    H173250   5.999   2.973   1.436 -0.3046  1.4096  0.9497
17253TIP3    H273251   6.072   2.997   1.566  0.2661 -0.6224  1.0523
17254TIP3   OH273252   4.757   0.822  13.514 -0.4543  0.3912  0.7298
17254TIP3    H173253   4.687   0.793  13.456 -0.1977  1.1720  0.0175
17254TIP3    H273254   4.779   0.910  13.484 -0.4807  0.9175  2.1655
17255TIP3   OH273255   0.370   3.047   2.252 -0.2345 -0.4552  1.0774
17255TIP3    H173256   0.460   3.075   2.268  0.2914 -2.7794  2.5152
17255TIP3    H273257   0.378   2.959   2.216 -1.9177 -0.0654 -0.3977
17256TIP3   OH273258   1.309   5.560   1.131  0.1016  0.0866 -0.0296
17256TIP3    H173259   1.352   5.518   1.057  1.8745  0.4559  0.7341
17256TIP3    H273260   1.313   5.494   1.201 -0.0064  0.3581  0.2342
17257TIP3   OH273261   1.815   3.475  13.135 -0.1284 -0.1591 -0.4168
17257TIP3    H173262   1.779   3.564  13.133 -1.8235 -0.7813  0.4933
17257TIP3    H273263   1.740   3.418  13.113 -0.2227 -1.6297  3.0984
17258TIP3   OH273264   5.494   0.435   4.756 -0.3798  0.1367 -0.0209
17258TIP3    H173265   5.463   0.505   4.699  4.2550  3.2177  0.6924
17258TIP3    H273266   5.539   0.374   4.697 -3.2964 -1.8491 -0.4616
17259TIP3   OH273267   1.363   1.520   4.550 -0.6437  0.1826  0.1049
17259TIP3    H173268   1.392   1.611   4.562  1.7469 -0.5919  0.7770
17259TIP3    H273269   1.323   1.497   4.634  2.4119 -0.5335  1.5170
17260TIP3   OH273270   3.992   1.636  16.058 -0.4508 -0.2825  0.3674
17260TIP3    H173271   4.004   1.601  15.970  2.0850  1.0044  0.1142
17260TIP3    H273272   4.018   1.566  16.116 -0.4239 -0.5449  0.0423
17261TIP3   OH273273   1.567   0.456   0.945  0.0711 -0.1238 -0.1997
17261TIP3    H173274   1.629   0.392   0.979 -1.5023 -1.4554  0.3013
17261TIP3    H273275   1.508   0.406   0.889 -1.1169  0.8899  0.0845
17262TIP3   OH273276   6.681   1.533   1.400  0.6102  0.0166  0.5107
17262TIP3    H173277   6.736   1.546   1.323  0.9918 -0.2817  0.7301
17262TIP3    H273278   6.592   1.548   1.368  0.5700 -1.8967 -0.4418
17263TIP3   OH273279   1.968   5.633  13.495 -0.1541 -0.1760 -0.6172
17263TIP3    H173280   1.960   5.538  13.508 -0.3241 -0.2271 -1.0882
17263TIP3    H273281   1.899   5.670  13.550  0.5946 -0.2600  0.4073
17264TIP3   OH273282   0.708   5.312   2.266  0.3267  0.2220 -0.0223
17264TIP3    H173283   0.644   5.382   2.280 -0.3228 -0.2979 -0.3529
17264TIP3    H273284   0.783   5.337   2.321  0.8738  2.1362 -1.5219
17265TIP3   OH273285   1.071   2.379   0.637  0.3006 -0.5331  0.0722
17265TIP3    H173286   1.111   2.300   0.673  1.9071  0.2527  0.0978
17265TIP3    H273287   0.991   2.390   0.688 -0.1550 -2.3089 -0.1663
17266TIP3   OH273288   0.450   6.647   4.664  0.4600 -0.4340  0.5855
17266TIP3    H173289   0.392   6.722   4.663  1.5755  0.4610  0.0388
17266TIP3    H273290   0.423   6.595   4.588  0.5615  0.1380  0.1455
17267TIP3   OH273291   5.268   4.711  14.693  0.5373 -0.1987  0.1040
17267TIP3    H173292   5.300   4.624  14.719 -1.8106 -0.9993  0.4846
17267TIP3    H273293   5.314   4.730  14.611 -0.0542 -2.5316 -0.8371
17268TIP3   OH273294   2.893   4.582   6.072  0.0461  0.9437  0.1699
17268TIP3    H173295   2.882   4.674   6.048  0.5507  1.1773  0.8109
17268TIP3    H273296   2.930   4.540   5.994  1.0296  1.5538  0.2960
17269TIP3   OH273297   4.479   5.119   0.607  0.1480 -0.7893  0.4048
17269TIP3    H173298   4.524   5.040   0.639 -1.1313 -1.2328  1.1511
17269TIP3    H273299   4.402   5.128   0.663 -1.5929 -0.9436 -1.8231
17270TIP3   OH273300   5.262   6.082   4.671 -0.1260  0.7053 -0.0346
17270TIP3    H173301   5.182   6.117   4.710 -0.6230 -0.7458  0.3405
17270TIP3    H273302   5.324   6.078   4.744 -0.0768  0.7957 -0.0718
17271TIP3   OH273303   0.630   5.134  11.353 -0.2598 -0.1663  0.0438
17271TIP3    H173304   0.694   5.088  11.406  0.0860 -0.0281 -0.2467
17271TIP3    H273305   0.608   5.213  11.404 -1.2296 -0.8787  0.7764
17272TIP3   OH273306   0.934   3.335  15.284 -0.2490  0.0818  0.5312
17272TIP3    H173307   0.885   3.362  15.362 -0.0055  3.3034 -0.3018
17272TIP3    H273308   1.026   3.340  15.311 -0.2014 -0.8352  0.5822
17273TIP3   OH273309   3.139   5.483  11.462 -0.4093  0.1206 -0.2741
17273TIP3    H173310   3.225   5.458  11.493 -0.4972 -0.3087 -0.3750
17273TIP3    H273311   3.130   5.575  11.488  0.1174  0.2000 -0.3608
17274TIP3   OH273312   3.086   4.133  15.836  0.5318 -0.9165 -0.6817
17274TIP3    H173313   3.159   4.120  15.776  1.1767 -0.3782 -0.0277
17274TIP3    H273314   3.113   4.091  15.917  0.5724  0.1844 -0.1018
17275TIP3   OH273315   1.892   1.995  16.491  0.2052  0.6463  0.0773
17275TIP3    H173316   1.946   1.945  16.553 -0.9909 -0.8332  0.0037
17275TIP3    H273317   1.821   1.934  16.469 -3.0760  3.3325  2.2200
17276TIP3   OH273318   2.248   4.846  13.968  0.8247  0.0617 -0.5928
17276TIP3    H173319   2.271   4.777  14.029  0.7115 -0.1072 -0.7407
17276TIP3    H273320   2.246   4.926  14.022 -0.8562 -0.3099 -0.0167
17277TIP3   OH273321   3.239   1.405  13.795 -0.1622 -0.1622 -0.0630
17277TIP3    H173322   3.242   1.448  13.880  1.4321 -0.7664  0.2145
17277TIP3    H273323   3.181   1.460  13.742 -0.7178  0.5299  1.2280
17278TIP3   OH273324   5.780   4.581  11.654  0.0349  0.4582 -0.3643
17278TIP3    H173325   5.820   4.588  11.740 -1.0548 -0.2998  0.2196
17278TIP3    H273326   5.848   4.540  11.600  1.0786  1.8348 -0.1403
17279TIP3   OH273327   3.826   4.524   0.454  0.5391  0.1852  0.3287
17279TIP3    H173328   3.871   4.606   0.432  1.3018 -0.6465 -1.4425
17279TIP3    H273329   3.848   4.465   0.382 -1.9357 -0.8374  0.3123
17280TIP3   OH273330   5.263   4.119   3.500 -0.1921  0.3552  0.4146
17280TIP3    H173331   5.173   4.149   3.491  0.1666  1.1647 -0.7160
17280TIP3    H273332   5.295   4.161   3.579 -0.2483  1.5985 -0.1934
17281TIP3   OH273333   2.807   5.435   3.910  0.0721  0.4726  0.0536
17281TIP3    H173334   2.784   5.360   3.855  0.6227  0.3063  0.0404
17281TIP3    H273335   2.723   5.472   3.937 -0.2202  1.0368 -1.5387
17282TIP3   OH273336   4.400   0.423   3.147 -0.0772  0.7467 -0.0957
17282TIP3    H173337   4.386   0.453   3.237 -1.6510  1.3554 -0.5173
17282TIP3    H273338   4.320   0.446   3.101  0.6292  0.2723 -1.6301
17283TIP3   OH273339   6.564   1.065  16.894 -0.4580 -0.1242  0.4718
17283TIP3    H173340   6.509   1.124  16.842  2.2848  2.6165  0.3691
17283TIP3    H273341   6.564   1.103  16.982 -0.0241 -1.0305  0.8759
17284TIP3   OH273342   5.160   6.008  11.656 -0.1549 -0.3095 -0.1096
17284TIP3    H173343   5.090   5.961  11.703 -0.5865  0.6467  0.2363
17284TIP3    H273344   5.114   6.059  11.589  0.1233  0.8062  0.5168
17285TIP3   OH273345   0.734   3.213  17.156 -0.4023  0.1108  0.4101
17285TIP3    H173346   0.744   3.308  17.151  1.0381 -0.0066  0.6994
17285TIP3    H273347   0.798   3.186  17.222 -1.2019 -1.0082  0.7602
17286TIP3   OH273348   3.482   6.488  16.451 -0.4966 -0.3712  0.4284
17286TIP3    H173349   3.427   6.563  16.473  0.0875  0.7332 -1.6089
17286TIP3    H273350   3.432   6.412  16.480 -1.3964  0.7584  1.9728
17287TIP3   OH273351   1.313   5.494  12.531  0.4561 -0.5223 -1.3373
17287TIP3    H173352   1.279   5.493  12.621  1.2251 -0.9705 -1.0374
17287TIP3    H273353   1.243   5.532  12.479  0.3831  0.6699 -0.3980
17288TIP3   OH273354   5.450   0.511   3.523 -0.8513 -0.1676 -0.0258
17288TIP3    H173355   5.363   0.551   3.520 -1.6547 -1.8500 -0.1788
17288TIP3    H273356   5.452   0.451   3.449 -0.1728 -1.3091  0.8711
17289TIP3   OH273357   2.665   1.694  15.750 -0.4150 -0.1582 -0.8932
17289TIP3    H173358   2.703   1.639  15.681 -3.0344 -0.4777 -2.1916
17289TIP3    H273359   2.694   1.783  15.730  1.0418 -0.5770 -0.7735
17290TIP3   OH273360   1.723   0.040  16.743  0.1940 -0.1100 -0.3455
17290TIP3    H173361   1.787  -0.030  16.729  0.7123  0.4049 -0.5687
17290TIP3    H273362   1.775   0.117  16.764 -0.3980  0.0617  0.5746
17291TIP3   OH273363   1.796   1.282  16.551 -0.1325 -0.2452 -0.2991
17291TIP3    H173364   1.761   1.322  16.631 -2.8176  1.9534 -2.3348
17291TIP3    H273365   1.727   1.222  16.522 -0.2839  0.7186 -2.0842
17292TIP3   OH273366   0.594   5.810  11.514  0.0929 -0.1760  0.0118
17292TIP3    H173367   0.541   5.780  11.588 -0.5327  0.4539 -0.1658
17292TIP3    H273368   0.658   5.870  11.552 -0.9985  1.1006 -0.0806
17293TIP3   OH273369   2.251   1.228  11.210  0.1575  0.2407  0.2694
17293TIP3    H173370   2.157   1.245  11.200  0.3908  1.1941 -0.3376
17293TIP3    H273371   2.284   1.224  11.121  0.2341 -2.9590  0.3263
17294TIP3   OH273372   1.484   0.447  16.609  0.5668 -0.2164  0.0059
17294TIP3    H173373   1.488   0.526  16.555 -0.7091 -0.4396 -0.4631
17294TIP3    H273374   1.463   0.478  16.697 -1.6417 -0.0763 -0.4993
17295TIP3   OH273375   0.594   5.724   2.749  0.1973  0.4141 -0.5095
17295TIP3    H173376   0.633   5.793   2.803  0.2185  0.7850 -0.9909
17295TIP3    H273377   0.509   5.760   2.723 -0.5555 -0.4558  0.6671
17296TIP3   OH273378   3.609   6.182   2.972 -0.1655  0.4604  0.0138
17296TIP3    H173379   3.551   6.118   3.013 -0.3745  0.3537 -0.4387
17296TIP3    H273380   3.656   6.222   3.045  1.1778 -1.3710  0.2189
17297TIP3   OH273381   6.267   4.300   2.413 -0.5136  0.4277 -0.0877
17297TIP3    H173382   6.320   4.356   2.356  1.4210 -0.4360  0.7772
17297TIP3    H273383   6.223   4.239   2.354  0.2716  0.5036 -0.7601
17298TIP3   OH273384   6.757   2.178   4.955  0.4822 -0.0632 -0.1300
17298TIP3    H173385   6.693   2.209   4.890  0.5276 -1.0460 -0.6526
17298TIP3    H273386   6.771   2.086   4.933 -1.3640 -1.1911  2.7758
17299TIP3   OH273387   5.910   4.397  12.712 -0.2149 -0.1742  0.4626
17299TIP3    H173388   5.871   4.443  12.787 -1.4144 -0.8803  0.3055
17299TIP3    H273389   5.949   4.319  12.751  1.0833  0.5372  0.6201
17300TIP3   OH273390   3.078   4.806  11.783 -0.1781 -0.6609  0.4129
17300TIP3    H173391   3.038   4.856  11.712  1.9165  1.8810  0.8718
17300TIP3    H273392   3.120   4.732  11.740  0.0793  0.1974 -0.8743
17301TIP3   OH273393   6.185   0.580  13.688 -0.2282 -0.3208 -0.0179
17301TIP3    H173394   6.212   0.509  13.630  0.2460  0.0380 -0.2446
17301TIP3    H273395   6.243   0.575  13.763 -1.8198 -1.7421  1.1950
17302TIP3   OH273396   0.975   5.223  16.220 -0.3432 -0.3029 -0.2962
17302TIP3    H173397   1.045   5.173  16.177 -0.8937 -0.0858 -1.4703
17302TIP3    H273398   1.004   5.314  16.217 -0.5645 -0.2408 -0.5639
17303TIP3   OH273399   3.289   1.616  11.716  0.3491  0.2753 -0.4275
17303TIP3    H173400   3.284   1.555  11.641 -1.1799  1.0033 -0.9609
17303TIP3    H273401   3.306   1.560  11.791  4.7186 -0.2669 -1.5531
17304TIP3   OH273402   0.981   0.503   2.295  0.0808 -0.3437 -0.7011
17304TIP3    H173403   0.911   0.566   2.274 -0.6218 -1.1134 -0.7388
17304TIP3    H273404   1.062   0.550   2.277 -0.4094  0.7884 -0.0658
17305TIP3   OH273405   4.788   3.874   2.894  0.3678  0.2048 -0.2834
17305TIP3    H173406   4.751   3.956   2.861  0.6366  0.1499 -0.7305
17305TIP3    H273407   4.719   3.838   2.951 -0.5001 -0.1731 -1.5312
17306TIP3   OH273408   4.484   0.955   6.143 -0.1829 -0.2503  0.0117
17306TIP3    H173409   4.445   0.966   6.229 -1.3835 -0.3961 -0.4953
17306TIP3    H273410   4.417   0.987   6.082  0.8660  0.3957 -0.8421
17307TIP3   OH273411   2.222   0.533   0.539  0.1567  0.1373 -0.4870
17307TIP3    H173412   2.173   0.504   0.462 -0.3886 -0.0523 -0.0760
17307TIP3    H273413   2.309   0.494   0.529 -0.1092 -0.4091 -0.6870
17308TIP3   OH273414   4.888   0.629  14.115 -0.0906 -0.1000 -0.2900
17308TIP3    H173415   4.903   0.594  14.026  1.0129 -1.4165  0.3581
17308TIP3    H273416   4.970   0.672  14.137  0.1123 -0.8827  0.5457
17309TIP3   OH273417   1.681   3.028  15.980 -0.0936  0.0292 -0.3037
17309TIP3    H173418   1.660   2.937  15.957 -2.0158  0.3850 -0.1304
17309TIP3    H273419   1.678   3.029  16.076  0.2639  0.2078 -0.2944
17310TIP3   OH273420   0.398   2.763   5.919 -0.4217 -0.5627 -0.3365
17310TIP3    H173421   0.443   2.847   5.908 -1.1870  0.1919  1.7954
17310TIP3    H273422   0.464   2.697   5.898  1.0613  0.5453  0.6783
17311TIP3   OH273423   0.362   0.949   3.501  0.2189  1.0132  0.0973
17311TIP3    H173424   0.417   1.022   3.472  0.8317  0.7199  0.5087
17311TIP3    H273425   0.278   0.990   3.521  0.3994  1.5267 -0.1663
17312TIP3   OH273426   1.011   3.194  10.976  0.1630 -0.4709  0.7188
17312TIP3    H173427   1.046   3.165  10.892  1.3924  0.6395  0.8121
17312TIP3    H273428   0.931   3.242  10.954  0.8804  0.4746  0.0819
17313TIP3   OH273429   0.349   4.647  16.803  0.3756 -0.1220  0.3050
17313TIP3    H173430   0.310   4.566  16.835  0.2120 -0.4253 -0.6264
17313TIP3    H273431   0.431   4.655  16.852 -0.3428 -0.0240  1.5195
17314TIP3   OH273432   4.577   4.164  12.368  0.3551 -0.2539 -0.0419
17314TIP3    H173433   4.500   4.122  12.407  0.1671 -0.2304 -0.3900
17314TIP3    H273434   4.625   4.093  12.326  1.4064 -0.5594  1.5944
17315TIP3   OH273435   0.827   5.932   0.192  0.5364 -0.3683 -0.8872
17315TIP3    H173436   0.815   6.026   0.182  0.8521 -0.4616 -2.3529
17315TIP3    H273437   0.922   5.921   0.205  0.5762 -0.5130 -1.2763
17316TIP3   OH273438   0.708   1.664  16.727  0.4876  0.1757  0.1562
17316TIP3    H173439   0.682   1.752  16.753  0.5889  0.1315  0.4066
17316TIP3    H273440   0.781   1.642  16.785  0.4344 -0.0881  0.1245
17317TIP3   OH273441   2.631   2.175   0.749 -0.3306 -0.2938  0.1832
17317TIP3    H173442   2.679   2.149   0.827  2.0519 -0.3891 -1.2391
17317TIP3    H273443   2.654   2.110   0.683 -0.4716  1.0409 -1.2464
17318TIP3   OH273444   3.528   4.505  11.078 -0.0211 -0.3691  0.6748
17318TIP3    H173445   3.569   4.588  11.102 -1.2193  0.0624  1.3117
17318TIP3    H273446   3.571   4.480  10.996  0.1111  1.0758  0.2719
17319TIP3   OH273447   6.598   6.055   2.830 -0.0280 -0.3068 -0.5344
17319TIP3    H173448   6.631   6.003   2.756  1.0224  0.5933 -0.7167
17319TIP3    H273449   6.504   6.060   2.814  0.1259 -0.4516 -1.6161
17320TIP3   OH273450   6.333   4.565   3.361  0.2230 -0.3444 -0.2327
17320TIP3    H173451   6.323   4.471   3.343  0.5438 -0.4473  0.1017
17320TIP3    H273452   6.420   4.572   3.401  0.0913  0.0609 -0.0142
17321TIP3   OH273453   1.641   2.153   2.651  0.1060  0.0992 -0.4131
17321TIP3    H173454   1.598   2.068   2.656  0.2057  0.0304 -0.7272
17321TIP3    H273455   1.576   2.211   2.610  0.9763 -0.4595 -2.7465
17322TIP3   OH273456   2.993   1.726  14.548 -0.8974 -0.4764 -0.3455
17322TIP3    H173457   3.061   1.725  14.480 -0.7226 -1.2233 -0.1764
17322TIP3    H273458   2.943   1.646  14.532 -0.8173 -0.6957  0.4361
17323TIP3   OH273459   1.147   5.193   5.917 -0.7025  0.3690  0.1388
17323TIP3    H173460   1.184   5.119   5.967 -0.0617  0.2094 -0.5574
17323TIP3    H273461   1.155   5.267   5.977 -2.3253 -0.3015  1.2574
17324TIP3   OH273462   4.075   5.267   5.105  0.3869  0.0474 -0.3617
17324TIP3    H173463   4.160   5.296   5.138  0.4039 -0.5109  0.1032
17324TIP3    H273464   4.034   5.223   5.179 -0.1949  0.0644 -0.6639
17325TIP3   OH273465   2.167   6.466   4.922 -0.5571 -0.5575 -0.3252
17325TIP3    H173466   2.087   6.431   4.881 -1.0228  2.7935 -2.7788
17325TIP3    H273467   2.235   6.452   4.856 -0.0040 -0.0110  0.1232
17326TIP3   OH273468   1.966   5.144  14.575  0.2523 -0.1748 -0.5747
17326TIP3    H173469   1.905   5.128  14.647 -1.3192  2.7667 -1.0771
17326TIP3    H273470   2.044   5.179  14.618 -1.6353  4.2305 -0.1264
17327TIP3   OH273471   5.494   2.642  14.344  0.4427  0.1146  0.1425
17327TIP3    H173472   5.465   2.709  14.281  0.1321 -0.7139 -0.6241
17327TIP3    H273473   5.462   2.560  14.307  0.2741 -0.3995  1.3930
17328TIP3   OH273474   0.896   2.467   4.566  0.2872 -0.3632  0.8198
17328TIP3    H173475   0.989   2.459   4.543  0.3771 -1.6023  1.4975
17328TIP3    H273476   0.889   2.425   4.651 -0.9101 -0.3393  0.7508
17329TIP3   OH273477   1.793   3.090   0.957 -0.4565 -0.5910 -0.3582
17329TIP3    H173478   1.875   3.053   0.989  0.1490  1.8558  1.1433
17329TIP3    H273479   1.815   3.125   0.871  0.2306  0.4301  0.2111
17330TIP3   OH273480   3.996   0.756  12.301 -0.5470 -0.6924  0.7617
17330TIP3    H173481   3.941   0.679  12.314 -0.1643 -1.4672 -1.7170
17330TIP3    H273482   3.959   0.798  12.223  1.5041 -0.4805 -0.1404
17331TIP3   OH273483   3.066   5.519   6.293 -0.3314  0.4450 -0.0749
17331TIP3    H173484   3.091   5.465   6.218 -0.7817 -0.5400  0.4629
17331TIP3    H273485   3.045   5.456   6.362  0.1226  1.3383  0.8998
17332TIP3   OH273486   0.964   4.942  13.393  0.3113 -0.0113  0.1181
17332TIP3    H173487   1.017   4.910  13.466  0.2614 -1.3457 -0.3982
17332TIP3    H273488   1.026   4.988  13.336  1.1566 -2.3369 -0.9449
17333TIP3   OH273489   5.316   0.659   0.760  0.2719  0.0036  0.4043
17333TIP3    H173490   5.236   0.640   0.810  0.2707 -1.1773 -0.0052
17333TIP3    H273491   5.386   0.614   0.809  0.6602  0.8249  0.6278
17334TIP3   OH273492   1.837   0.913   3.780  0.1258 -0.7795 -0.2977
17334TIP3    H173493   1.909   0.952   3.829  0.2349 -0.1343 -0.9628
17334TIP3    H273494   1.766   0.906   3.844  0.0651  0.6257 -0.1857
17335TIP3   OH273495   0.058   5.560  15.369 -0.2868 -0.0473  0.1911
17335TIP3    H173496   0.061   5.652  15.342  0.1897  0.0428  0.5366
17335TIP3    H273497   0.076   5.511  15.289 -1.7751  0.1016 -0.2661
17336TIP3   OH273498   2.596   4.007   1.916 -0.7499 -0.3805  0.4897
17336TIP3    H173499   2.652   4.010   1.839  1.9719 -0.5025  2.3091
17336TIP3    H273500   2.529   3.941   1.895 -1.0046  0.6385 -2.2412
17337TIP3   OH273501   6.043   4.065   4.555 -0.1087  0.1158  0.3966
17337TIP3    H173502   5.975   4.078   4.488 -1.0001  1.0923  1.4585
17337TIP3    H273503   6.094   4.145   4.553 -0.1357  0.1449  0.8868
17338TIP3   OH273504   5.640   2.834   3.951 -0.2708 -0.2117  0.2468
17338TIP3    H173505   5.609   2.908   3.900  0.1987  0.5711  1.0485
17338TIP3    H273506   5.597   2.843   4.036  0.8220 -0.0579  0.8110
17339TIP3   OH273507   5.611   0.111  16.902 -0.6129 -0.3285 -0.0428
17339TIP3    H173508   5.554   0.036  16.890 -0.1086 -0.8097  0.4892
17339TIP3    H273509   5.639   0.106  16.994 -1.0537  0.8572  0.1818
17340TIP3   OH273510   3.595   1.925   1.833  0.5880 -0.6616  0.2691
17340TIP3    H173511   3.584   2.012   1.870  0.4192 -0.2727 -0.6656
17340TIP3    H273512   3.677   1.931   1.782  1.5126 -1.5528  1.5995
17341TIP3   OH273513   6.791   4.051   3.586 -0.6546  0.2857  0.2839
17341TIP3    H173514   6.869   4.106   3.585  0.0315 -0.5256  2.6305
17341TIP3    H273515   6.802   3.992   3.511  0.1572  1.2178 -0.3672
17342TIP3   OH273516   4.850   3.794   3.274 -0.2972 -0.4579 -0.4899
17342TIP3    H173517   4.891   3.757   3.196 -1.0092  0.1660 -1.1821
17342TIP3    H273518   4.788   3.859   3.240 -1.4331 -0.9570  0.5520
17343TIP3   OH273519   3.913   1.299   6.762  0.9381 -0.7019  0.0375
17343TIP3    H173520   3.824   1.329   6.782  1.7298  1.2595  0.8482
17343TIP3    H273521   3.944   1.358   6.695  1.7786 -1.1286  0.0390
17344TIP3   OH273522   5.470   2.877   5.496  0.3563 -0.6696 -0.2809
17344TIP3    H173523   5.401   2.942   5.484 -0.0473 -1.2694 -1.3866
17344TIP3    H273524   5.541   2.924   5.540 -0.7725 -0.0651  0.9501
17345TIP3   OH273525   3.001   5.500   4.381  0.2057 -0.3833 -0.3493
17345TIP3    H173526   3.012   5.481   4.288 -0.4926 -0.2525 -0.4674
17345TIP3    H273527   3.030   5.421   4.426  2.6083  0.2996 -0.5498
17346TIP3   OH273528   3.669   2.932  11.088  0.3736  0.2714 -0.3269
17346TIP3    H173529   3.638   3.022  11.098 -1.2424 -0.3778  0.8115
17346TIP3    H273530   3.636   2.905  11.002 -0.6503  0.2268  0.0596
17347TIP3   OH273531   2.716   5.510   3.025  0.1398  0.0949 -0.1878
17347TIP3    H173532   2.656   5.517   3.100  0.9732 -0.5990  0.5681
17347TIP3    H273533   2.686   5.578   2.964 -1.9428 -0.7784 -0.2190
17348TIP3   OH273534   4.835   4.732   3.990 -0.4991 -0.5014  0.3733
17348TIP3    H173535   4.812   4.666   4.056 -0.9447 -1.1267 -0.3815
17348TIP3    H273536   4.811   4.815   4.030 -3.0272 -1.0101  0.1437
17349TIP3   OH273537   1.362   0.906   4.597 -0.0073 -0.3975  0.1669
17349TIP3    H173538   1.413   0.926   4.675  0.0900 -0.2146  0.0594
17349TIP3    H273539   1.374   0.812   4.583 -1.2880 -0.7382  1.2602
17350TIP3   OH273540   1.396   6.200   0.719 -0.6519  0.3734  0.6087
17350TIP3    H173541   1.337   6.257   0.669 -1.1124 -0.0661  0.6407
17350TIP3    H273542   1.431   6.140   0.653  0.6038  1.3041  0.3938
17351TIP3   OH273543   6.604   5.037  11.143  0.2022  0.5515 -0.0246
17351TIP3    H173544   6.673   5.103  11.144  0.0023  0.7760 -0.4771
17351TIP3    H273545   6.602   5.007  11.052 -0.1703  0.4141  0.0293
17352TIP3   OH273546   2.264   3.036  12.467 -0.0193  0.0738  0.1407
17352TIP3    H173547   2.297   2.985  12.541  0.0565  0.1071  0.1300
17352TIP3    H273548   2.246   2.972  12.398 -2.4781 -0.2978  1.0144
17353TIP3   OH273549   2.805   2.471   1.447  0.0932 -0.2155  0.0312
17353TIP3    H173550   2.783   2.394   1.500  1.0599 -0.0910  0.6353
17353TIP3    H273551   2.748   2.540   1.480  0.1009 -0.3592  0.3505
17354TIP3   OH273552   4.582   1.499  12.429  0.6030 -0.1231 -0.1740
17354TIP3    H173553   4.557   1.502  12.337 -0.8560 -0.8353  0.1629
17354TIP3    H273554   4.618   1.411  12.441  1.2711  0.1460 -0.1692
17355TIP3   OH273555   2.415   4.876   5.830 -0.5017  0.6728 -0.1083
17355TIP3    H173556   2.391   4.848   5.742 -0.7698 -1.7575  0.6423
17355TIP3    H273557   2.337   4.918   5.865 -1.1930 -0.4007 -0.2972
17356TIP3   OH273558   4.493   4.898  16.997 -0.1182  0.1405 -0.3587
17356TIP3    H173559   4.432   4.963  17.033 -0.4349  0.3066 -1.1858
17356TIP3    H273560   4.577   4.944  16.991 -0.3240  0.4578 -0.8709
17357TIP3   OH273561   0.027   2.274  15.291 -0.3022  0.7187 -0.2418
17357TIP3    H173562   0.099   2.282  15.353  1.3499  0.5644 -2.0271
17357TIP3    H273563   0.045   2.341  15.225 -0.4292 -0.8680 -1.9733
17358TIP3   OH273564   4.552   3.906  11.289 -0.1666  0.2228  0.2839
17358TIP3    H173565   4.582   3.933  11.202  0.2734  0.9864  0.6697
17358TIP3    H273566   4.618   3.940  11.349  0.8623 -2.3766  0.7486
17359TIP3   OH273567   6.705   1.818  11.692  0.1576  0.1131  0.3493
17359TIP3    H173568   6.705   1.730  11.655 -0.2965  0.6921 -1.0878
17359TIP3    H273569   6.622   1.825  11.740  0.8630 -0.7278  1.7743
17360TIP3   OH273570   4.799   1.670  16.473  0.3319 -0.4536 -0.3068
17360TIP3    H173571   4.804   1.727  16.396  1.0220  0.6738  0.5270
17360TIP3    H273572   4.735   1.713  16.530  1.7388  0.1855  0.8535
17361TIP3   OH273573   1.080   4.096   5.339 -0.7013  0.0012 -0.3202
17361TIP3    H173574   1.136   4.145   5.399 -0.3149  1.5198 -1.8428
17361TIP3    H273575   1.010   4.158   5.316 -0.0486  0.0016 -2.5082
17362TIP3   OH273576   6.024   5.673  16.969 -0.2944 -0.2383  0.2780
17362TIP3    H173577   6.098   5.732  16.962  1.4924 -2.4735 -1.4116
17362TIP3    H273578   6.017   5.633  16.882 -2.6111 -1.1151  0.7870
17363TIP3   OH273579   4.148   2.387   3.565 -0.7884  0.6338 -0.8120
17363TIP3    H173580   4.095   2.454   3.609  1.0650  2.2732 -0.9468
17363TIP3    H273581   4.113   2.304   3.598 -3.1739  1.6224 -0.6412
17364TIP3   OH273582   1.629   5.105  15.438  0.2703  0.4601 -0.6014
17364TIP3    H173583   1.702   5.048  15.413  0.4500 -0.1226  1.1089
17364TIP3    H273584   1.575   5.111  15.359  1.3329 -0.3912 -1.4294
17365TIP3   OH273585   1.272   6.318   3.945  0.1347 -0.6061  0.6467
17365TIP3    H173586   1.367   6.317   3.957  0.7688  1.2031 -2.7642
17365TIP3    H273587   1.256   6.259   3.872 -1.2206 -0.0632  0.4725
17366TIP3   OH273588   2.010   0.782   5.343 -0.7211 -0.4128  0.2253
17366TIP3    H173589   2.069   0.712   5.313 -0.9791 -0.9765  1.0094
17366TIP3    H273590   1.923   0.742   5.343 -1.1889  0.5249 -1.2764
17367TIP3   OH273591   0.025   4.229  15.586  0.2395 -0.3864 -0.7537
17367TIP3    H173592   0.077   4.307  15.572 -2.1502  1.1041 -2.0543
17367TIP3    H273593   0.040   4.206  15.678  0.0650  2.3819  0.0561
17368TIP3   OH273594   6.139   2.219   6.300 -0.0387 -0.2855  0.4045
17368TIP3    H173595   6.057   2.170   6.306 -0.5681  0.7130  1.8884
17368TIP3    H273596   6.115   2.300   6.254  0.6238 -0.9300 -1.1616
17369TIP3   OH273597   4.057   0.574  13.898  0.4442 -0.2711 -0.8994
17369TIP3    H173598   4.030   0.540  13.813 -0.0786  0.1353 -0.8960
17369TIP3    H273599   3.979   0.568  13.953  0.5630  0.2179 -0.6732
17370TIP3   OH273600   5.302   5.362  14.476 -0.0366  0.1909  0.1076
17370TIP3    H173601   5.355   5.420  14.421 -0.4090 -0.7200 -1.2660
17370TIP3    H273602   5.308   5.277  14.433  0.0756 -0.6920  1.7865
17371TIP3   OH273603   1.571   4.244  15.817 -0.0569  0.4410 -0.0511
17371TIP3    H173604   1.553   4.338  15.807  0.5058  0.5430 -0.1381
17371TIP3    H273605   1.519   4.202  15.749 -0.0853  0.7195 -0.2041
17372TIP3   OH273606   5.253   3.265  13.206 -0.6301 -0.1157  0.5238
17372TIP3    H173607   5.227   3.330  13.142  0.5138  0.0221  0.1670
17372TIP3    H273608   5.176   3.210  13.218 -0.8079 -0.2639 -1.1085
17373TIP3   OH273609   0.863   0.500   0.839  0.4935  0.0644 -0.0927
17373TIP3    H173610   0.790   0.441   0.858 -0.2167  0.7784 -0.5628
17373TIP3    H273611   0.930   0.444   0.799  0.7873 -0.8708  1.6171
17374TIP3   OH273612   3.671   6.541  16.269  0.2170 -0.2645  0.2360
17374TIP3    H173613   3.596   6.510  16.320 -0.2701 -1.6378 -1.2355
17374TIP3    H273614   3.646   6.628  16.239 -1.5859 -1.3964 -1.7120
17375TIP3   OH273615   4.524   3.657  13.128  0.5895 -0.0991  0.9219
17375TIP3    H173616   4.579   3.580  13.145  1.7088  0.1233 -1.2828
17375TIP3    H273617   4.542   3.679  13.037 -3.1060  0.1197  0.0900
17376TIP3   OH273618   0.205   4.448  15.603 -0.0816 -0.0753 -0.1385
17376TIP3    H173619   0.242   4.414  15.522 -0.5259 -3.0699  0.7892
17376TIP3    H273620   0.147   4.519  15.575  1.9074  0.8608 -2.1224
17377TIP3   OH273621   6.742   6.536   4.574 -1.2141 -0.7698 -0.3897
17377TIP3    H173622   6.827   6.502   4.548 -0.4909 -0.8104  1.8426
17377TIP3    H273623   6.740   6.625   4.540 -0.4835 -0.9185 -0.8356
17378TIP3   OH273624   2.908   5.073   4.904 -0.5920 -0.2293 -0.2169
17378TIP3    H173625   2.909   5.143   4.970  0.9291  0.1935 -0.6324
17378TIP3    H273626   2.833   5.093   4.849 -0.1500  1.1514 -0.3703
17379TIP3   OH273627   0.629   4.390  13.604 -0.5564 -0.5800 -0.5017
17379TIP3    H173628   0.697   4.345  13.554 -1.5678 -0.7749 -1.7553
17379TIP3    H273629   0.548   4.346  13.579 -1.0791 -0.8619  1.5570
17380TIP3   OH273630   2.911   5.883  16.057  0.2890 -0.1680  0.4593
17380TIP3    H173631   2.911   5.817  15.987 -0.0534 -0.1549  0.4448
17380TIP3    H273632   2.974   5.949  16.028  0.2950 -0.2614  0.2559
17381TIP3   OH273633   3.175   0.160  16.520  0.4285  0.0138 -0.4277
17381TIP3    H173634   3.115   0.115  16.579 -1.3746 -1.5295 -3.2259
17381TIP3    H273635   3.244   0.096  16.502  0.9891  0.4892 -0.0129
17382TIP3   OH273636   6.520   2.382   1.867  0.2426  0.7061 -0.0125
17382TIP3    H173637   6.424   2.381   1.871  0.2067  2.0334 -0.2432
17382TIP3    H273638   6.543   2.474   1.864  1.5407  0.3997 -0.0139
17383TIP3   OH273639   5.865   4.325  14.259  0.0056  0.1540  0.0824
17383TIP3    H173640   5.923   4.389  14.217  2.2278 -1.6606  0.1651
17383TIP3    H273641   5.815   4.287  14.187 -2.2451  2.6999  0.1617
17384TIP3   OH273642   0.747   2.321   1.120  0.1960 -0.1722  0.3164
17384TIP3    H173643   0.690   2.396   1.105 -2.2523 -1.5100  2.2009
17384TIP3    H273644   0.688   2.246   1.122  2.2646 -1.8942  0.6829
17385TIP3   OH273645   0.595   2.795   2.870  0.5920  0.1362 -0.2932
17385TIP3    H173646   0.675   2.847   2.869  0.2537  0.6705 -0.0856
17385TIP3    H273647   0.567   2.795   2.961  0.0808  0.3850 -0.4457
17386TIP3   OH273648   0.415   5.115   2.558  0.2050  0.4614 -0.0666
17386TIP3    H173649   0.454   5.047   2.614 -1.8190 -0.0427  0.8044
17386TIP3    H273650   0.378   5.178   2.619 -0.0244  1.1113 -0.8640
17387TIP3   OH273651   1.442   5.822   6.732 -0.0043  0.4848  0.1764
17387TIP3    H173652   1.489   5.741   6.711  0.1825  0.0916  1.9523
17387TIP3    H273653   1.484   5.889   6.678 -0.4046 -0.6358 -1.5900
17388TIP3   OH273654   5.695   4.286   6.630  0.2708  0.2322 -0.1412
17388TIP3    H173655   5.711   4.225   6.558 -4.2725 -1.8422  0.2274
17388TIP3    H273656   5.671   4.368   6.586 -2.1236 -0.9129 -1.1569
17389TIP3   OH273657   3.756   0.470   1.325  0.4413 -0.6728  0.3447
17389TIP3    H173658   3.667   0.504   1.323  0.7747  0.3026  1.2013
17389TIP3    H273659   3.785   0.472   1.233 -0.3748 -0.9042  0.0776
17390TIP3   OH273660   5.464   5.592   3.499  0.8421  0.7768 -0.0203
17390TIP3    H173661   5.473   5.658   3.568 -0.2739  0.4666  0.4439
17390TIP3    H273662   5.420   5.519   3.542 -0.5756  0.8790 -1.2276
17391TIP3   OH273663   3.522   4.426  12.787 -0.2474  0.2320 -0.8149
17391TIP3    H173664   3.525   4.336  12.754  0.9463  0.1396 -0.4889
17391TIP3    H273665   3.613   4.450  12.800 -0.6099  0.9092  0.6963
17392TIP3   OH273666   4.224   6.231   4.543 -0.3460  0.0258  1.1305
17392TIP3    H173667   4.154   6.209   4.481  1.0085  1.8297 -1.2165
17392TIP3    H273668   4.268   6.147   4.561 -0.1615 -0.4587 -1.2286
17393TIP3   OH273669   4.037   3.660   2.022  0.3131  0.8302 -0.4183
17393TIP3    H173670   4.130   3.678   2.040  0.3526  0.4643 -0.2588
17393TIP3    H273671   4.037   3.576   1.976  0.0465  0.7320 -0.2413
17394TIP3   OH273672   0.149   1.308  11.840 -0.2720  0.3252  0.1646
17394TIP3    H173673   0.192   1.342  11.918  0.5559 -0.5130  0.0895
17394TIP3    H273674   0.055   1.320  11.856 -0.0689  1.0069  0.8766
17395TIP3   OH273675   3.255   0.974   1.704 -0.1299  0.4535  0.1486
17395TIP3    H173676   3.287   0.997   1.617  0.2320  0.5106  0.2941
17395TIP3    H273677   3.329   0.992   1.762 -0.2445  0.0580  0.4195
17396TIP3   OH273678   4.144   5.647  15.662 -0.3913 -0.3393 -0.5895
17396TIP3    H173679   4.080   5.717  15.675  0.1054  0.2349 -1.1739
17396TIP3    H273680   4.091   5.568  15.652 -0.9511 -0.0936  0.2947
17397TIP3   OH273681   5.059   0.334   2.361 -0.3418 -0.2710 -0.9124
17397TIP3    H173682   4.967   0.307   2.368 -0.0431 -1.6173 -1.7155
17397TIP3    H273683   5.080   0.321   2.268  1.4139 -2.7636 -0.2802
17398TIP3   OH273684   4.890   4.729  12.614 -0.2247 -0.3700 -0.0597
17398TIP3    H173685   4.834   4.720  12.537  0.2564 -0.5115 -0.3976
17398TIP3    H273686   4.979   4.718  12.580  0.1094  1.1601  0.2468
17399TIP3   OH273687   6.557   1.669  13.280  0.6019  0.2119  0.0864
17399TIP3    H173688   6.581   1.646  13.370 -1.2601 -0.2960  0.4952
17399TIP3    H273689   6.489   1.736  13.290 -1.7898 -1.9318 -0.8091
17400TIP3   OH273690   1.373   1.023  12.949 -0.3166  0.0433  0.1133
17400TIP3    H173691   1.401   1.054  13.036 -1.3270 -1.9406  1.1967
17400TIP3    H273692   1.448   0.975  12.916  0.8684  2.5254 -1.1260
17401TIP3   OH273693   5.375   5.600  16.032 -0.3916 -0.1476  0.1268
17401TIP3    H173694   5.455   5.556  16.061  1.6355  2.3208 -1.2407
17401TIP3    H273695   5.387   5.612  15.938 -2.6604 -0.1665 -0.2101
17402TIP3   OH273696   4.347   2.781   2.261 -0.3200  0.9307 -0.6797
17402TIP3    H173697   4.349   2.875   2.243  0.1792  1.0791  0.1008
17402TIP3    H273698   4.378   2.773   2.351  0.7009 -0.0669 -1.0956
17403TIP3   OH273699   2.268   5.031   6.433 -0.2702  0.3305 -0.3416
17403TIP3    H173700   2.239   5.103   6.489  0.1109 -0.5207  1.0048
17403TIP3    H273701   2.277   4.957   6.493  0.3344 -0.5729 -1.5185
17404TIP3   OH273702   5.187   3.116  12.298 -0.8399 -0.4754  0.2701
17404TIP3    H173703   5.220   3.042  12.248 -0.5833  0.1639 -0.5308
17404TIP3    H273704   5.191   3.087  12.390  1.3650 -0.6626  0.1772
17405TIP3   OH273705   1.972   3.018  17.022  0.2069 -0.4071  0.4026
17405TIP3    H173706   2.048   3.006  16.965  0.2860  1.4528  0.0521
17405TIP3    H273707   1.897   3.020  16.963 -0.0475 -1.4302  0.6735
17406TIP3   OH273708   5.858   6.428  12.872  0.1913  0.6845 -0.2087
17406TIP3    H173709   5.863   6.340  12.908 -0.6650 -0.2658 -2.3065
17406TIP3    H273710   5.935   6.436  12.816  0.3902  1.3868  0.1419
17407TIP3   OH273711   0.131   1.417  14.085 -0.3151 -0.0664 -0.1797
17407TIP3    H173712   0.123   1.352  14.154  3.6061 -1.0174 -0.3759
17407TIP3    H273713   0.057   1.401  14.027 -2.1034 -1.1255  2.2324
17408TIP3   OH273714   6.724   6.534  14.692  0.3704 -0.2409  0.5627
17408TIP3    H173715   6.668   6.457  14.684  0.1982  0.0415 -1.3242
17408TIP3    H273716   6.765   6.525  14.778 -2.0199 -0.8135  1.7144
17409TIP3   OH273717   0.141   4.867  12.735  0.0161  0.9623 -0.1729
17409TIP3    H173718   0.064   4.908  12.697  0.0921 -1.5171 -3.4444
17409TIP3    H273719   0.108   4.786  12.774  0.6689  1.0204  0.5227
17410TIP3   OH273720   6.413   1.013   3.386 -0.2169  0.2996  0.6131
17410TIP3    H173721   6.356   0.955   3.336 -2.4477  0.9800  2.1927
17410TIP3    H273722   6.371   1.099   3.380  2.1378  1.4676 -0.3682
17411TIP3   OH273723   2.971   0.807  16.905  0.4139  0.1812  0.2990
17411TIP3    H173724   3.035   0.844  16.966  1.2873 -0.9418  0.1114
17411TIP3    H273725   2.929   0.882  16.865 -0.1239  0.9541  2.2245
17412TIP3   OH273726   5.119   1.200   6.104  0.4742  0.5738 -0.2510
17412TIP3    H173727   5.173   1.242   6.170 -0.2443  0.4438  0.4254
17412TIP3    H273728   5.059   1.268   6.075 -0.3823  0.1526  0.5107
17413TIP3   OH273729   5.656   3.925   0.188 -0.0861  0.4694 -0.0812
17413TIP3    H173730   5.665   3.880   0.104 -0.4205  0.6614 -0.2217
17413TIP3    H273731   5.564   3.912   0.213 -0.3492  1.5967 -0.4241
17414TIP3   OH273732   0.128   3.012   1.718  0.1906 -0.0750  0.0106
17414TIP3    H173733   0.081   3.035   1.799 -0.4034 -2.7118  0.5265
17414TIP3    H273734   0.069   3.037   1.648  0.0987  0.9682  0.4464
17415TIP3   OH273735   4.605   2.119  15.487 -0.4388  0.3052 -0.0787
17415TIP3    H173736   4.660   2.179  15.537  1.7464 -0.2937 -1.6125
17415TIP3    H273737   4.589   2.046  15.547  1.0196  0.2066  0.2381
17416TIP3   OH273738   3.291   4.065  12.520  0.1950 -0.0099 -0.0339
17416TIP3    H173739   3.287   4.023  12.606 -2.1117  1.1766  0.5235
17416TIP3    H273740   3.263   3.997  12.458  0.5431 -0.4687  0.3024
17417TIP3   OH273741   4.138   2.707  12.337  0.1484 -0.4507  0.0900
17417TIP3    H173742   4.159   2.636  12.398 -1.0503 -0.6595  0.2680
17417TIP3    H273743   4.048   2.731  12.357  0.9223  2.0793  1.0040
17418TIP3   OH273744   0.895   6.674   2.268 -0.0124  0.4103 -0.7734
17418TIP3    H173745   0.830   6.723   2.319  2.6164  1.0108  2.3991
17418TIP3    H273746   0.871   6.582   2.282 -0.1228  0.6112  0.5527
17419TIP3   OH273747   0.948   2.583   2.993 -0.6835 -0.0706  0.2531
17419TIP3    H173748   0.936   2.488   2.985  0.1196 -0.0691 -1.3083
17419TIP3    H273749   0.890   2.620   2.927 -0.5468  0.5005  0.4496
17420TIP3   OH273750   0.895   2.472  16.505 -0.3019 -0.1723 -0.4658
17420TIP3    H173751   0.842   2.438  16.578 -3.0803  0.0838 -2.2060
17420TIP3    H273752   0.897   2.400  16.442  0.5768  0.2068 -0.8787
17421TIP3   OH273753   1.430   0.456   0.153  0.3269  0.9876 -0.1375
17421TIP3    H173754   1.418   0.530   0.093  1.9016  2.2864  1.0849
17421TIP3    H273755   1.462   0.495   0.234 -2.2697 -0.6421  1.8415
17422TIP3   OH273756   4.440   2.175   5.859 -0.0543  0.3534 -0.2294
17422TIP3    H173757   4.485   2.106   5.810  0.1620 -0.2681  0.7973
17422TIP3    H273758   4.503   2.247   5.863  0.5888 -0.2207  0.5293
17423TIP3   OH273759   3.824   1.904   0.398  0.0360 -0.2862 -0.3713
17423TIP3    H173760   3.825   1.962   0.474  0.8806 -2.1496  1.1244
17423TIP3    H273761   3.859   1.958   0.327  2.6580  0.5397  1.3819
17424TIP3   OH273762   6.444   3.709   4.578  0.2517 -0.2627 -0.1673
17424TIP3    H173763   6.528   3.717   4.532  0.3211 -0.1774 -0.0240
17424TIP3    H273764   6.460   3.744   4.665  0.3216 -1.1510  0.1800
17425TIP3   OH273765   3.895   5.892   0.565  0.2211 -0.1794 -0.6117
17425TIP3    H173766   3.989   5.887   0.546  0.1656  0.6994 -1.1367
17425TIP3    H273767   3.889   5.952   0.639  0.2119 -1.6476  0.6350
17426TIP3   OH273768   1.812   6.788   2.339 -0.0033 -0.0258 -0.0906
17426TIP3    H173769   1.796   6.817   2.249 -0.7294  1.8017  0.5699
17426TIP3    H273770   1.769   6.855   2.393  0.5622 -0.9921  1.6196
17427TIP3   OH273771   6.795   6.651   0.976  0.0067  0.0021  0.4514
17427TIP3    H173772   6.763   6.563   0.957 -0.5381 -0.0490  1.5412
17427TIP3    H273773   6.802   6.692   0.890  0.6829 -1.2333 -0.1130
17428TIP3   OH273774   0.620   6.041  13.748 -0.2825  0.2888 -0.3810
17428TIP3    H173775   0.699   6.074  13.706  0.5267 -1.9203 -0.7152
17428TIP3    H273776   0.579   6.119  13.787  3.0665  1.2464  1.5914
17429TIP3   OH273777   2.829   4.247   3.808  0.2821 -0.2028  0.0947
17429TIP3    H173778   2.757   4.236   3.870  0.3283  2.3201  0.6996
17429TIP3    H273779   2.856   4.338   3.818  2.1917 -0.5001 -1.6250
17430TIP3   OH273780   0.829   5.679  14.102 -0.0912 -0.1714  0.0071
17430TIP3    H173781   0.782   5.600  14.074 -1.4334  1.2034 -1.8340
17430TIP3    H273782   0.905   5.645  14.151  0.5833 -2.6948 -2.5001
17431TIP3   OH273783   0.197   2.264  14.873 -0.2341 -0.8393 -0.1177
17431TIP3    H173784   0.240   2.342  14.907 -1.1086 -0.0617 -0.7768
17431TIP3    H273785   0.256   2.232  14.805 -0.0675 -0.5265 -0.1219
17432TIP3   OH273786   0.223   1.544  16.109  0.3845  0.3265 -0.6478
17432TIP3    H173787   0.252   1.478  16.171  2.5426  1.5495 -0.2632
17432TIP3    H273788   0.134   1.566  16.137  0.6743 -0.3981  0.9341
17433TIP3   OH273789   3.180   4.059  13.358 -0.1725 -0.3853 -0.2683
17433TIP3    H173790   3.113   4.035  13.294  1.1987 -1.8890 -1.2173
17433TIP3    H273791   3.162   4.003  13.433  0.0661 -0.8628 -0.5613
17434TIP3   OH273792   6.572   5.527  15.646  0.2004 -0.7773 -0.5218
17434TIP3    H173793   6.582   5.553  15.554 -0.1741 -0.5755 -0.5071
17434TIP3    H273794   6.660   5.536  15.683 -0.1291  1.9206 -0.1484
17435TIP3   OH273795   0.492   2.843   3.104 -0.6973 -0.6358 -0.5809
17435TIP3    H173796   0.450   2.758   3.104  1.0923 -1.5805  0.2326
17435TIP3    H273797   0.439   2.896   3.163  0.5287 -2.5411  2.4644
17436TIP3   OH273798   4.770   5.595  16.301  0.0542  0.2408  0.4102
17436TIP3    H173799   4.694   5.579  16.358 -0.4285 -2.2473 -0.7761
17436TIP3    H273800   4.755   5.683  16.266 -1.5293  0.3888  1.3280
17437TIP3   OH273801   6.459   2.651   4.428  0.1444 -0.4713  0.0651
17437TIP3    H173802   6.384   2.624   4.480 -0.4206  1.2605  0.2204
17437TIP3    H273803   6.438   2.623   4.339 -0.5009 -0.3764  0.1804
17438TIP3   OH273804   0.285   6.284   0.440  0.1014  0.0429  0.1221
17438TIP3    H173805   0.332   6.208   0.475  0.8269  0.8879  1.0182
17438TIP3    H273806   0.301   6.280   0.345  1.0606 -0.2975  0.2907
17439TIP3   OH273807   3.572   3.630   5.877 -0.0813 -0.2853 -0.5057
17439TIP3    H173808   3.537   3.571   5.944 -3.5284  0.6364 -1.3002
17439TIP3    H273809   3.577   3.715   5.921 -0.4351 -0.0797 -0.8574
17440TIP3   OH273810   1.391   2.110   2.736 -0.0300  0.2911  0.4229
17440TIP3    H173811   1.377   2.173   2.665  2.2988  1.0001  0.5225
17440TIP3    H273812   1.405   2.163   2.814 -0.1775 -0.4338  0.9582
17441TIP3   OH273813   2.945   1.227  13.244  1.0054  0.1076 -0.0131
17441TIP3    H173814   3.029   1.186  13.226  0.9403 -1.5483  2.7972
17441TIP3    H273815   2.967   1.309  13.288  1.1616 -0.1959  0.4799
17442TIP3   OH273816   2.002   3.825  15.735 -0.2866 -0.2197 -0.1451
17442TIP3    H173817   1.934   3.891  15.749  1.4687  2.2452 -2.2366
17442TIP3    H273818   2.062   3.835  15.809  0.1532  0.8512 -0.6278
17443TIP3   OH273819   0.540   5.625   0.014  0.6070  0.0538  0.4096
17443TIP3    H173820   0.482   5.622  -0.062 -0.4830 -0.9067  1.2303
17443TIP3    H273821   0.482   5.607   0.088  1.2946  2.5558  1.6827
17444TIP3   OH273822   5.837   5.722  15.472 -0.2482  0.2350  0.4048
17444TIP3    H173823   5.877   5.782  15.410 -2.9326  0.8678 -0.8562
17444TIP3    H273824   5.815   5.645  15.420 -0.6298 -0.1150  1.0686
17445TIP3   OH273825   6.384   3.126  16.992  0.0219 -0.0195  0.4732
17445TIP3    H173826   6.299   3.084  17.003  0.1354 -0.9097 -1.6693
17445TIP3    H273827   6.380   3.167  16.906  1.2848  1.1438  0.9252
17446TIP3   OH273828   0.004   1.290   3.389 -0.5094 -0.1324 -0.8336
17446TIP3    H173829  -0.034   1.364   3.438 -1.9450 -1.6787  0.5613
17446TIP3    H273830   0.097   1.293   3.409 -0.9253 -0.1902  1.4280
17447TIP3   OH273831   5.766   3.062  11.726 -0.8697  0.2941 -0.3110
17447TIP3    H173832   5.757   3.099  11.638  1.1445  0.7245 -0.3878
17447TIP3    H273833   5.764   2.967  11.711 -1.8977  0.3522 -0.6304
17448TIP3   OH273834   4.308   3.951  14.579 -0.1325  0.4326 -0.3752
17448TIP3    H173835   4.315   4.026  14.520  1.2301  2.1902  1.8205
17448TIP3    H273836   4.216   3.926  14.575 -0.4608  1.7257 -1.7752
17449TIP3   OH273837   4.952   1.964   4.149  0.1670  0.5178  0.3694
17449TIP3    H173838   4.945   1.890   4.209 -3.1457  0.7768  0.4840
17449TIP3    H273839   4.891   1.945   4.079  1.5548  1.7509 -1.2799
17450TIP3   OH273840   1.320   5.796   4.153  0.2362  0.4376  0.7281
17450TIP3    H173841   1.344   5.852   4.226 -3.0107  1.2133  1.3631
17450TIP3    H273842   1.339   5.849   4.075  0.5013  0.9931  1.1631
17451TIP3   OH273843   2.256   4.200  12.589 -0.2473  0.3618  0.5824
17451TIP3    H173844   2.343   4.234  12.607  0.1594  1.0831 -2.2806
17451TIP3    H273845   2.267   4.105  12.589  0.8942  0.4610 -1.0554
17452TIP3   OH273846   0.797   5.708  15.004 -0.2138 -0.1158 -0.0205
17452TIP3    H173847   0.709   5.714  14.968 -0.1271 -0.2753 -0.2595
17452TIP3    H273848   0.803   5.781  15.066  0.0658  0.9237 -1.2416
17453TIP3   OH273849   5.449   6.233   3.484 -0.2414 -0.1578 -0.3046
17453TIP3    H173850   5.455   6.179   3.563 -1.3307  0.0139 -0.0886
17453TIP3    H273851   5.395   6.307   3.509  2.4250  1.8952 -0.1558
17454TIP3   OH273852   1.661   6.121   2.717 -0.2782  0.2717 -0.3812
17454TIP3    H173853   1.618   6.174   2.650 -1.0951 -0.0549 -0.1375
17454TIP3    H273854   1.588   6.085   2.769  0.3274  0.5004  0.6613
17455TIP3   OH273855   3.986   4.830  13.621 -0.0783  0.5596  0.7789
17455TIP3    H173856   3.976   4.922  13.645 -1.9549  0.4462  0.5328
17455TIP3    H273857   3.912   4.786  13.661 -2.0201 -0.0455 -3.0169
17456TIP3   OH273858   0.321   4.389   0.015 -0.2254 -0.1204  0.0736
17456TIP3    H173859   0.389   4.368   0.079 -0.3118  1.8787  0.9168
17456TIP3    H273860   0.238   4.376   0.062 -0.3534 -0.4459 -0.2392
17457TIP3   OH273861   2.345   5.965   3.387 -0.6579 -0.3389  0.2407
17457TIP3    H173862   2.269   5.932   3.337 -0.0720 -0.9417 -0.2716
17457TIP3    H273863   2.406   5.891   3.389 -0.8618 -0.5060  2.2944
17458TIP3   OH273864   2.340   3.502   2.737  0.8363  0.0885 -0.0089
17458TIP3    H173865   2.435   3.508   2.741  0.7971  2.3430 -1.1697
17458TIP3    H273866   2.318   3.530   2.648 -0.9113 -0.3912  0.2445
17459TIP3   OH273867   5.476   3.872   6.302 -0.0247  0.0073 -0.2910
17459TIP3    H173868   5.380   3.878   6.306  0.0437  0.4363  3.0890
17459TIP3    H273869   5.495   3.778   6.305 -0.3299 -0.0541 -0.2804
17460TIP3   OH273870   2.024   3.039   1.086  0.0441 -0.4415  0.4021
17460TIP3    H173871   2.113   3.028   1.052 -1.3424  0.7966 -4.3362
17460TIP3    H273872   2.026   3.123   1.132  1.0486  0.3439 -0.9980
17461TIP3   OH273873   2.924   6.325   3.533  0.2502  0.0252  0.5522
17461TIP3    H173874   2.890   6.373   3.608 -1.5144 -0.7320  0.2807
17461TIP3    H273875   2.906   6.233   3.554  2.0980 -0.4330  0.3380
17462TIP3   OH273876   4.928   4.502  13.778 -0.1318 -0.3129  0.0530
17462TIP3    H173877   5.019   4.502  13.807  0.0483 -1.8426 -0.4641
17462TIP3    H273878   4.877   4.488  13.858  0.0031  1.2734  0.4609
17463TIP3   OH273879   1.184   5.103   3.082 -0.7625 -0.2296 -0.3101
17463TIP3    H173880   1.237   5.151   3.146  0.8176  0.6575 -2.1754
17463TIP3    H273881   1.141   5.034   3.133  2.6912 -1.4495  1.3028
17464TIP3   OH273882   4.619   4.974  14.178  0.2054  0.0756 -0.3578
17464TIP3    H173883   4.673   5.023  14.116  1.2301  0.4794  0.7991
17464TIP3    H273884   4.625   4.883  14.148 -2.0014  0.6047 -2.7415
17465TIP3   OH273885   1.210   6.316   5.356  0.1001  0.0593  0.3923
17465TIP3    H173886   1.126   6.285   5.324  0.1835 -0.3151  0.5268
17465TIP3    H273887   1.189   6.367   5.434 -0.0709  0.6729 -0.0438
17466TIP3   OH273888   4.925   1.095  14.817  0.5560  0.0503  0.6127
17466TIP3    H173889   5.008   1.134  14.845  1.4308 -0.1143 -1.5335
17466TIP3    H273890   4.913   1.127  14.727 -1.0827 -0.9138  0.4574
17467TIP3   OH273891   6.240   1.533   6.493  0.0558 -0.2066 -0.2289
17467TIP3    H173892   6.149   1.547   6.468 -0.2889 -2.2205 -0.2684
17467TIP3    H273893   6.276   1.480   6.422  0.5124 -1.5985  1.0127
17468TIP3   OH273894   2.167   3.950   1.289 -0.4559  0.2966 -0.3365
17468TIP3    H173895   2.103   4.012   1.255 -1.4112 -0.7260 -0.4850
17468TIP3    H273896   2.175   3.883   1.221 -0.1758 -0.2411  0.2082
17469TIP3   OH273897   5.576   0.758   2.125 -0.5500  0.5421  0.6345
17469TIP3    H173898   5.483   0.747   2.106 -0.5759  0.6638  0.6891
17469TIP3    H273899   5.611   0.669   2.129 -0.1786  0.4822 -1.8099
17470TIP3   OH273900   4.239   6.497  11.271 -0.0673  0.1563  0.4132
17470TIP3    H173901   4.228   6.514  11.364  1.5621 -3.4274  1.4466
17470TIP3    H273902   4.327   6.529  11.251  0.3735 -0.8333  0.6799
17471TIP3   OH273903   6.500   1.950   0.596 -0.1558  0.3930 -0.3061
17471TIP3    H173904   6.484   1.876   0.537  2.5323  0.7218 -1.6636
17471TIP3    H273905   6.538   1.911   0.674 -1.4294  0.1529  0.2146
17472TIP3   OH273906   1.255   4.034  13.929 -0.2146  0.1509  0.4120
17472TIP3    H173907   1.180   3.976  13.917  0.4467 -0.6399 -0.1139
17472TIP3    H273908   1.252   4.093  13.854 -1.1467  1.1025  1.1902
17473TIP3   OH273909   0.025   2.495  15.950  0.0539  0.1620 -0.1870
17473TIP3    H173910   0.067   2.547  16.018  1.4933 -0.1454 -0.8036
17473TIP3    H273911  -0.059   2.538  15.935  0.7636  1.6859  0.0585
17474TIP3   OH273912   1.567   3.821  10.565 -0.3888 -0.5809  0.0419
17474TIP3    H173913   1.537   3.907  10.596 -2.0607 -0.5457 -1.5346
17474TIP3    H273914   1.560   3.765  10.642  0.9533  0.7130  1.1636
17475TIP3   OH273915   1.123   1.969   1.887 -0.1721  0.7266  0.0042
17475TIP3    H173916   1.161   1.974   1.800  1.5001  0.0126  0.6440
17475TIP3    H273917   1.148   2.050   1.930 -1.6839  1.4469 -0.3983
17476TIP3   OH273918   2.107   2.108  13.468 -0.2672 -0.3322 -0.2523
17476TIP3    H173919   2.024   2.120  13.421 -0.6337 -1.4163  0.1157
17476TIP3    H273920   2.148   2.195  13.465 -0.7544 -0.1243 -1.6801
17477TIP3   OH273921   5.882   2.792   3.830 -0.6407 -0.4043 -0.1365
17477TIP3    H173922   5.860   2.711   3.784 -1.7898  0.5097 -1.2966
17477TIP3    H273923   5.805   2.808   3.885  0.0900 -0.7015  0.9852
17478TIP3   OH273924   3.706   2.006  11.369  0.1332 -0.2879  0.5715
17478TIP3    H173925   3.618   1.970  11.381 -0.4352  0.8042 -0.1412
17478TIP3    H273926   3.727   2.046  11.453 -1.3342  2.0634 -0.0747
17479TIP3   OH273927   2.474   3.944  11.808 -0.0434  0.8164  0.9320
17479TIP3    H173928   2.488   4.037  11.790 -0.5625  0.3374 -2.6402
17479TIP3    H273929   2.553   3.901  11.777 -1.3826 -0.1950 -1.3642
17480TIP3   OH273930   0.033   2.467   1.368 -0.1906 -0.5947 -0.3078
17480TIP3    H173931   0.088   2.492   1.294 -1.2975  1.7014 -0.4354
17480TIP3    H273932   0.091   2.419   1.427  1.6390  0.7303 -0.9674
17481TIP3   OH273933   4.509   3.056   1.717  0.5556 -0.4160  0.9461
17481TIP3    H173934   4.514   2.978   1.662  2.7909 -0.0892  0.6239
17481TIP3    H273935   4.599   3.086   1.726 -0.0593  1.1597  2.4956
17482TIP3   OH273936   3.287   6.234  16.326 -0.2115  0.3967  0.3008
17482TIP3    H173937   3.197   6.202  16.334 -0.0112 -0.1162  0.5641
17482TIP3    H273938   3.297   6.254  16.233 -0.2797 -0.5042  0.0913
17483TIP3   OH273939   3.127   4.321  11.726  0.5286 -0.4188 -0.0464
17483TIP3    H173940   3.046   4.371  11.730  0.9213  0.2373 -0.1287
17483TIP3    H273941   3.153   4.325  11.634  1.2292  0.3183  0.1724
17484TIP3   OH273942   0.540   3.617   3.978 -0.0531  0.4213  0.4926
17484TIP3    H173943   0.624   3.576   4.001  1.0023  0.8990 -2.1107
17484TIP3    H273944   0.561   3.709   3.966 -0.8922  0.5296 -0.3062
17485TIP3   OH273945   1.224   5.812   3.387 -0.0704 -0.3456  0.0561
17485TIP3    H173946   1.265   5.737   3.431  0.1175 -0.8719 -0.9777
17485TIP3    H273947   1.163   5.847   3.452  1.2632 -0.1786  1.2516
17486TIP3   OH273948   3.051   1.356   0.382 -0.3816  0.4179  0.2014
17486TIP3    H173949   3.143   1.335   0.365 -0.1940  0.6275  0.9156
17486TIP3    H273950   3.050   1.452   0.388 -0.4657  0.3727  1.1330
17487TIP3   OH273951   2.609   3.453   2.210 -0.4039  0.1155  0.7200
17487TIP3    H173952   2.702   3.439   2.196 -0.2460  0.2689  1.5637
17487TIP3    H273953   2.569   3.367   2.198 -0.2874  0.2160 -0.5501
17488TIP3   OH273954   3.906   5.094   0.708 -0.3044  0.1776 -0.5067
17488TIP3    H173955   3.925   5.173   0.658  0.1396  0.4039  0.0054
17488TIP3    H273956   3.887   5.028   0.642 -2.6722  1.1635 -0.9440
17489TIP3   OH273957   6.575   2.253  16.761  1.1821  0.0297  0.2281
17489TIP3    H173958   6.504   2.318  16.763  0.8877 -0.3041  0.6063
17489TIP3    H273959   6.644   2.292  16.814  1.5052  0.6021 -0.5814
17490TIP3   OH273960   1.707   1.159  13.273 -0.1380 -0.3769 -0.2517
17490TIP3    H173961   1.727   1.202  13.356 -0.2705  1.7080 -1.2232
17490TIP3    H273962   1.745   1.071  13.281  0.1871 -0.0998  1.8372
17491TIP3   OH273963   6.070   3.188   3.575 -0.8736 -0.0434 -0.4490
17491TIP3    H173964   6.126   3.159   3.647 -1.3362  0.0331 -0.0549
17491TIP3    H273965   6.106   3.144   3.498 -1.0167 -0.9649 -0.0042
17492TIP3   OH273966   1.899   4.640  11.956 -0.2517 -0.0065  0.5241
17492TIP3    H173967   1.819   4.590  11.944  0.3902 -1.0735  0.5157
17492TIP3    H273968   1.911   4.646  12.050 -1.4438  2.0383  0.6145
17493TIP3   OH273969   3.302   0.500  16.403  0.2935 -0.8379  0.5959
17493TIP3    H173970   3.259   0.511  16.318 -0.8047  1.2770  1.3527
17493TIP3    H273971   3.247   0.438  16.450  0.9065 -2.0198 -0.1848
17494TIP3   OH273972   4.431   2.620   2.879 -0.1770 -0.2511  0.7835
17494TIP3    H173973   4.516   2.606   2.921  0.5862  1.3566 -0.1228
17494TIP3    H273974   4.373   2.556   2.921  1.5847 -1.7820  1.0391
17495TIP3   OH273975   5.400   0.133   0.280 -0.5019  0.2451 -0.7755
17495TIP3    H173976   5.491   0.144   0.255 -0.2036  0.5014  0.3568
17495TIP3    H273977   5.368   0.059   0.228  0.7003 -0.6443 -0.2790
17496TIP3   OH273978   0.915   0.314  16.744 -0.2609  0.1304 -0.0282
17496TIP3    H173979   0.931   0.253  16.672 -1.1150  1.7565 -1.6763
17496TIP3    H273980   0.822   0.305  16.764 -0.8569  2.0824 -1.5509
17497TIP3   OH273981   1.907   0.068   1.241  0.0809  0.3395 -0.7039
17497TIP3    H173982   1.858   0.146   1.266 -2.3717 -0.6978 -1.8610
17497TIP3    H273983   1.947   0.038   1.322 -0.0188  2.0523  0.0193
17498TIP3   OH273984   0.150   3.090  11.474  0.6068  0.0195 -0.1188
17498TIP3    H173985   0.233   3.104  11.519 -0.0842 -0.7380  1.4817
17498TIP3    H273986   0.173   3.041  11.395  1.8017  0.9579 -0.3826
17499TIP3   OH273987   3.822   4.394   3.002  0.6640  0.4209 -0.2333
17499TIP3    H173988   3.790   4.329   2.940  1.7068  0.7309 -1.1295
17499TIP3    H273989   3.916   4.400   2.985  0.6594  1.8788  0.0887
17500TIP3   OH273990   4.857   4.692   3.690  0.1505  0.4934 -0.1801
17500TIP3    H173991   4.945   4.713   3.722  0.1637  1.3342 -0.7216
17500TIP3    H273992   4.799   4.751   3.739 -0.1410 -0.2104  0.3330
17501TIP3   OH273993   4.753   2.582   4.080  0.1466 -0.1400  0.4628
17501TIP3    H173994   4.701   2.653   4.043  1.1668  0.7127  0.6156
17501TIP3    H273995   4.825   2.626   4.126  0.7576 -1.2658  0.6265
17502TIP3   OH273996   1.642   3.772   2.859  0.0674  0.3860 -0.2535
17502TIP3    H173997   1.653   3.866   2.845  1.3309  0.5960  1.7819
17502TIP3    H273998   1.548   3.757   2.846  0.2035  1.3562 -3.2679
17503TIP3   OH273999   1.739   3.220   1.563 -0.7296  0.1375  0.0428
17503TIP3    H174000   1.757   3.263   1.648  0.6591 -0.5392  0.1154
17503TIP3    H274001   1.714   3.131   1.586  1.3884 -0.5913 -0.2916
17504TIP3   OH274002   4.569   6.095   2.901  0.5127  0.2100  0.5355
17504TIP3    H174003   4.556   6.010   2.859  0.1097  0.5310  0.0067
17504TIP3    H274004   4.609   6.074   2.986 -0.7356 -0.6118  0.9544
17505TIP3   OH274005   1.817   5.737  14.666 -0.1307  0.5266  0.3833
17505TIP3    H174006   1.809   5.675  14.593 -0.2784 -1.5711  2.0904
17505TIP3    H274007   1.907   5.726  14.697 -0.2373  0.9745  0.8619
17506TIP3   OH274008   3.250   1.510  12.911  0.8432 -0.1252 -0.2204
17506TIP3    H174009   3.317   1.570  12.878  0.2001 -0.6010 -2.6396
17506TIP3    H274010   3.246   1.441  12.844 -1.2703 -0.6768  0.4177
17507TIP3   OH274011   5.811   5.170  16.607  0.2976  0.2993  0.0318
17507TIP3    H174012   5.813   5.236  16.676 -0.4990 -0.9344  1.2913
17507TIP3    H274013   5.857   5.210  16.533  0.0053  2.1665  0.8186
17508TIP3   OH274014   0.897   2.852  14.919 -0.0914  0.0050 -0.6149
17508TIP3    H174015   0.824   2.872  14.978  0.7530  0.7351  0.2191
17508TIP3    H274016   0.919   2.937  14.880  1.6921  0.2393  0.7813
17509TIP3   OH274017   1.306   2.345   2.598 -0.1543  0.4904 -0.0895
17509TIP3    H174018   1.359   2.378   2.527  0.6297 -1.3645 -0.4220
17509TIP3    H274019   1.289   2.421   2.654  3.5336  1.0433  0.4731
17510TIP3   OH274020   5.107   5.522   1.941 -0.7376 -0.2556  0.1691
17510TIP3    H174021   5.129   5.495   2.031 -2.0485  0.8665  0.8718
17510TIP3    H274022   5.176   5.484   1.887  0.5763 -0.2472  1.7529
17511TIP3   OH274023   1.477   4.367  13.051  0.3272 -0.3342  0.0722
17511TIP3    H174024   1.551   4.322  13.091  1.1684  0.3228 -0.6925
17511TIP3    H274025   1.514   4.450  13.020 -0.9145  0.3638  0.3923
17512TIP3   OH274026   1.151   4.554   6.124  0.0963  0.1768  0.2940
17512TIP3    H174027   1.199   4.609   6.062  0.1769 -0.0926  0.1160
17512TIP3    H274028   1.067   4.599   6.136 -0.4136 -0.4022 -0.9595
17513TIP3   OH274029   4.290   6.483  16.580 -0.1370  0.2321 -0.3513
17513TIP3    H174030   4.327   6.504  16.666 -1.8896  0.2076  0.4392
17513TIP3    H274031   4.196   6.495  16.590 -0.4386 -0.3524 -2.1117
17514TIP3   OH274032   0.134   4.425  10.955  0.2615  0.1234 -0.3437
17514TIP3    H174033   0.143   4.360  10.885  1.5200  1.5344 -1.5751
17514TIP3    H274034   0.202   4.401  11.018 -0.0191 -0.4072 -0.2439
17515TIP3   OH274035   3.282   4.536   4.108  0.1266  0.0966  0.1249
17515TIP3    H174036   3.336   4.465   4.074  0.0887 -1.0972  2.3788
17515TIP3    H274037   3.204   4.493   4.144 -1.0549  1.5344 -0.5933
17516TIP3   OH274038   3.232   2.025   4.481 -0.2090 -0.5513  0.4103
17516TIP3    H174039   3.304   2.081   4.510  0.1137 -0.3444 -0.7401
17516TIP3    H274040   3.205   1.977   4.560  1.0353 -0.4638  0.9030
17517TIP3   OH274041   1.515   3.553  15.742 -0.6857  0.3442  0.5206
17517TIP3    H174042   1.576   3.534  15.671 -0.0259  1.7552  0.6837
17517TIP3    H274043   1.530   3.482  15.805  0.2258  0.2501  0.2055
17518TIP3   OH274044   0.971   5.897  12.676  0.2850  0.1930  0.6145
17518TIP3    H174045   0.901   5.962  12.675 -0.1950 -0.3245 -0.0166
17518TIP3    H274046   1.014   5.907  12.591  2.8180  2.4343  2.0056
17519TIP3   OH274047   4.500   4.652   2.497  0.0327 -0.2812  0.3056
17519TIP3    H174048   4.573   4.699   2.457 -0.0543 -0.9343 -0.6653
17519TIP3    H274049   4.522   4.559   2.484 -0.5396 -0.4892  0.8045
17520TIP3   OH274050   3.831   2.486  16.626  0.2611  0.4892 -0.7356
17520TIP3    H174051   3.912   2.439  16.610 -1.5790 -2.6402 -1.7906
17520TIP3    H274052   3.815   2.534  16.544 -0.9206 -2.3325 -2.3268
17521TIP3   OH274053   6.539   6.317   1.724 -0.3276 -0.0562  0.3642
17521TIP3    H174054   6.465   6.376   1.710 -1.3245 -1.0405  1.2361
17521TIP3    H274055   6.556   6.321   1.818  1.8728  1.4118 -0.0178
17522TIP3   OH274056   1.698   3.201  11.929  0.6900 -0.6308  0.1599
17522TIP3    H174057   1.793   3.198  11.939  1.0814 -1.6657 -2.8416
17522TIP3    H274058   1.671   3.110  11.917 -0.9291 -0.4999  2.0420
17523TIP3   OH274059   1.317   3.083  16.364 -0.5185 -0.2540 -0.2489
17523TIP3    H174060   1.267   3.063  16.285 -0.2666  1.7157 -0.9652
17523TIP3    H274061   1.344   3.175  16.353  2.3840 -0.8965  0.5667
17524TIP3   OH274062   2.566   0.762  16.148 -1.0019 -0.2055 -0.2790
17524TIP3    H174063   2.554   0.854  16.174 -1.3295  0.0187 -1.1550
17524TIP3    H274064   2.602   0.719  16.225  1.6233  1.2057 -0.6045
17525TIP3   OH274065   3.655   5.461   5.095  0.2749 -0.3005  0.2555
17525TIP3    H174066   3.695   5.512   5.165  0.6346  0.7347 -0.6682
17525TIP3    H274067   3.667   5.370   5.121 -1.1808  0.0405  2.4024
17526TIP3   OH274068   2.516   2.307  16.056 -0.7798  0.6791  0.3426
17526TIP3    H174069   2.463   2.385  16.075 -1.5159  0.0723  0.8358
17526TIP3    H274070   2.582   2.306  16.124 -0.3729  1.2095 -0.0303
17527TIP3   OH274071   0.663   0.062  15.169  0.0473 -0.5997  0.4879
17527TIP3    H174072   0.742   0.088  15.122  1.3243 -0.4781  2.5930
17527TIP3    H274073   0.611   0.015  15.103  0.7217  1.3975 -1.5883
17528TIP3   OH274074   5.102   4.876  16.099  0.0530 -0.3377  0.1936
17528TIP3    H174075   5.017   4.855  16.060 -0.3188  0.9040  0.3136
17528TIP3    H274076   5.082   4.911  16.185  0.8147 -1.8676  1.0392
17529TIP3   OH274077   5.466   3.333   0.254  0.1444  0.1176 -0.2428
17529TIP3    H174078   5.426   3.251   0.282 -2.0795  1.1744 -0.1042
17529TIP3    H274079   5.488   3.318   0.162 -0.2774 -0.6085 -0.2359
17530TIP3   OH274080   5.717   0.500  16.642 -0.1786  0.1904 -0.0733
17530TIP3    H174081   5.770   0.577  16.663  0.1868  0.0546 -0.4725
17530TIP3    H274082   5.746   0.434  16.705 -1.4016  0.7463  1.1156
17531TIP3   OH274083   5.832   1.875  11.687  0.1009  0.4592 -0.2957
17531TIP3    H174084   5.768   1.941  11.715 -0.0475  0.0872  0.2473
17531TIP3    H274085   5.805   1.795  11.732  1.2968  0.4385  0.4081
17532TIP3   OH274086   3.629   0.890   3.851  0.3923 -0.3035 -1.5441
17532TIP3    H174087   3.688   0.823   3.885  0.9391  0.3987 -1.0668
17532TIP3    H274088   3.574   0.913   3.926 -0.2194 -0.6771 -1.8818
17533TIP3   OH274089   5.110   5.791  15.268  0.1148 -0.0443 -0.0374
17533TIP3    H174090   5.105   5.815  15.176  0.2391 -0.2804 -0.1061
17533TIP3    H274091   5.122   5.874  15.314 -1.5015  0.2689 -0.1023
17534TIP3   OH274092   2.428   3.437  10.667  0.1699 -0.0291 -0.5574
17534TIP3    H174093   2.406   3.530  10.665 -0.4316 -0.1424  0.3599
17534TIP3    H274094   2.352   3.393  10.629  0.8944 -0.0907 -2.0016
17535TIP3   OH274095   1.350   0.005   4.197  0.3039  0.3341  0.4099
17535TIP3    H174096   1.304  -0.004   4.280 -0.2394 -0.1274  0.0668
17535TIP3    H274097   1.443   0.009   4.221  0.0807  2.0762  1.1803
17536TIP3   OH274098   5.385   1.405   2.738  0.0773  0.3980  0.5793
17536TIP3    H174099   5.453   1.375   2.678 -1.3262 -0.1337 -0.8452
17536TIP3    H274100   5.416   1.380   2.825  0.1604 -3.1183 -0.2908
17537TIP3   OH274101   2.013   0.733  12.516  0.8931 -0.2866  0.0037
17537TIP3    H174102   2.014   0.648  12.560 -1.1676 -0.7266 -0.6904
17537TIP3    H274103   2.105   0.759  12.513  1.6623 -2.7598 -0.2586
17538TIP3   OH274104   3.751   0.316   3.657 -0.2101  0.4956 -0.1307
17538TIP3    H174105   3.842   0.305   3.629 -0.7846 -1.1083 -1.5635
17538TIP3    H274106   3.700   0.273   3.588 -1.9199 -0.8651  1.8570
17539TIP3   OH274107   5.946   2.685   2.408 -0.2957 -0.2588 -0.2263
17539TIP3    H174108   5.856   2.693   2.377  0.3198 -1.2927 -2.4983
17539TIP3    H274109   6.000   2.703   2.331  1.4112 -1.0956  0.7141
17540TIP3   OH274110   3.588   1.442   6.196 -0.2222  0.3675 -0.1014
17540TIP3    H174111   3.647   1.406   6.130 -1.5656 -1.4063 -0.4345
17540TIP3    H274112   3.638   1.439   6.277  0.4262 -0.3662 -0.5113
17541TIP3   OH274113   2.958   5.255   2.767  0.4262  0.3886 -0.2405
17541TIP3    H174114   3.034   5.199   2.751 -2.0649 -2.4826 -3.5558
17541TIP3    H274115   2.946   5.303   2.685 -0.8842  1.3793  0.4950
17542TIP3   OH274116   1.991   5.518   2.379  0.2286  0.0374 -0.2687
17542TIP3    H174117   1.972   5.443   2.435  0.1969 -0.0302 -0.3700
17542TIP3    H274118   2.018   5.480   2.296 -1.3234  0.1359 -0.8568
17543TIP3   OH274119   1.003   0.727  16.912 -0.4764 -0.3397  0.0010
17543TIP3    H174120   1.060   0.772  16.974 -2.0622  1.6296  0.1613
17543TIP3    H274121   1.060   0.701  16.840  0.3389  4.2307 -1.3200
17544TIP3   OH274122   5.612   1.248   5.076  0.4785  0.3161  0.2250
17544TIP3    H174123   5.591   1.155   5.067 -2.1158  0.6959  1.3665
17544TIP3    H274124   5.671   1.252   5.151  0.8435 -0.4280 -0.0150
17545TIP3   OH274125   2.747   0.848   3.609  0.7797 -0.2715  0.3340
17545TIP3    H174126   2.767   0.910   3.679  1.1900 -0.9751  0.8536
17545TIP3    H274127   2.658   0.870   3.581  1.0108  0.7076  0.3283
17546TIP3   OH274128   6.145   5.844  14.997 -0.1054 -0.1978 -0.2609
17546TIP3    H174129   6.101   5.907  14.940  0.6099 -0.5263 -1.2182
17546TIP3    H274130   6.079   5.779  15.017 -0.6780  0.5234  0.2164
17547TIP3   OH274131   3.888   2.733  14.003  0.0996 -0.2205  0.2861
17547TIP3    H174132   3.979   2.739  13.974  1.0393 -0.0603  2.9565
17547TIP3    H274133   3.837   2.766  13.930  2.1018 -1.0916 -1.6331
17548TIP3   OH274134   1.892   6.152  16.885 -0.1692 -0.1663 -0.4105
17548TIP3    H174135   1.814   6.121  16.931 -0.1909 -1.4439 -1.2556
17548TIP3    H274136   1.965   6.126  16.941 -0.3315  1.3394  0.5554
17549TIP3   OH274137   0.102   5.404  15.129 -0.0878  0.1341  0.1462
17549TIP3    H174138   0.038   5.464  15.091  0.5527 -0.2395 -1.6148
17549TIP3    H274139   0.126   5.345  15.058  0.9282 -0.8396  1.2318
17550TIP3   OH274140   4.019   3.379  13.467 -0.0956 -0.3671 -0.3467
17550TIP3    H174141   4.043   3.301  13.418  0.8948 -1.3939  1.6693
17550TIP3    H274142   3.942   3.353  13.517 -1.3995  0.8241 -1.6165
17551TIP3   OH274143   6.424   1.128   5.785  0.0498 -0.2057  0.0316
17551TIP3    H174144   6.333   1.118   5.813  0.2182 -0.9570  0.3158
17551TIP3    H274145   6.418   1.163   5.696 -0.5917 -2.9168 -1.0961
17552TIP3   OH274146   6.061   4.947   6.066  0.1867 -0.1846  0.0810
17552TIP3    H174147   6.057   4.888   6.142  1.1299  0.3853  0.5799
17552TIP3    H274148   6.137   5.002   6.082  0.4441 -0.1079 -1.3294
17553TIP3   OH274149   6.317   3.339  13.694 -0.7138  0.8834 -0.5596
17553TIP3    H174150   6.310   3.269  13.629 -3.7136 -0.5595  1.1116
17553TIP3    H274151   6.366   3.300  13.766 -1.5801  0.7828 -0.0106
17554TIP3   OH274152   5.124   5.352  14.030  0.2054 -0.5446  0.4415
17554TIP3    H174153   5.048   5.295  14.015  1.7803 -2.9812  1.1233
17554TIP3    H274154   5.134   5.400  13.948 -0.9626 -1.5664 -0.3358
17555TIP3   OH274155   5.803   5.880  15.237 -0.3966 -0.3976  0.3867
17555TIP3    H174156   5.865   5.889  15.165 -1.1987 -0.1060 -0.2864
17555TIP3    H274157   5.756   5.799  15.218 -0.7735 -0.1976  0.4558
17556TIP3   OH274158   4.793   1.510  14.461 -0.4620 -0.1711  0.0368
17556TIP3    H174159   4.814   1.601  14.479  0.5647 -0.3542 -0.1983
17556TIP3    H274160   4.867   1.460  14.496 -1.5726 -1.0211  1.2892
17557TIP3   OH274161   2.700   1.237   0.824  0.6285  0.8422  0.3606
17557TIP3    H174162   2.768   1.299   0.797  1.3583 -0.5449 -1.1524
17557TIP3    H274163   2.747   1.172   0.877  0.3999  0.2032 -0.2017
17558TIP3   OH274164   5.704   6.491  12.039  0.2790 -0.0294 -0.5602
17558TIP3    H174165   5.680   6.409  11.996  2.9728 -0.8612 -0.6730
17558TIP3    H274166   5.760   6.536  11.975  0.7328  0.8169  0.3966
17559TIP3   OH274167   2.258   4.785  14.962  0.0702  0.6091 -0.0365
17559TIP3    H174168   2.182   4.728  14.970  0.4037  0.2474  0.7052
17559TIP3    H274169   2.329   4.737  15.004  0.4360  1.4405  0.3326
17560TIP3   OH274170   6.088   0.548   5.559  0.7121  0.2449  0.4976
17560TIP3    H174171   6.131   0.577   5.639 -1.2489  0.8499  1.3786
17560TIP3    H274172   6.024   0.483   5.588  0.2808  0.1360 -0.6388
17561TIP3   OH274173   1.223   5.354  14.908  0.0915 -0.6486  0.4573
17561TIP3    H174174   1.253   5.443  14.891  1.0611 -0.8444  1.0259
17561TIP3    H274175   1.148   5.342  14.851 -0.5373  0.8031  0.9323
17562TIP3   OH274176   3.622   1.522  12.424 -0.4528 -0.6350 -0.1812
17562TIP3    H174177   3.541   1.553  12.465  1.4193  0.5665  2.9660
17562TIP3    H274178   3.657   1.458  12.486  1.0748 -1.0203 -1.3859
17563TIP3   OH274179   0.814   4.490  16.106  1.0965 -0.6240 -0.2805
17563TIP3    H174180   0.837   4.477  16.014  2.1748  1.5339 -0.3774
17563TIP3    H274181   0.735   4.544  16.104  0.7953 -1.0500  0.0554
17564TIP3   OH274182   6.613   5.014  12.106  0.1455 -0.1158 -0.5038
17564TIP3    H174183   6.684   4.951  12.095 -0.1359 -0.6961  0.9090
17564TIP3    H274184   6.657   5.096  12.129  0.3646 -0.4442  0.2461
17565TIP3   OH274185   6.293   0.455   0.577 -0.4336  0.2450 -0.0138
17565TIP3    H174186   6.307   0.493   0.491  0.3464 -1.8432 -0.8728
17565TIP3    H274187   6.378   0.421   0.603 -1.4649 -3.0443 -0.4502
17566TIP3   OH274188   5.849   4.814  11.976  0.3489 -0.1869  0.0092
17566TIP3    H174189   5.920   4.860  11.932 -0.1242  1.2899  0.6838
17566TIP3    H274190   5.890   4.774  12.053  0.6054 -0.0335 -0.0466
17567TIP3   OH274191   0.041   4.807   6.602  0.2771 -0.2168  0.0969
17567TIP3    H174192  -0.053   4.799   6.586  0.1640 -2.7651  1.5417
17567TIP3    H274193   0.071   4.867   6.534 -2.3052  0.3506 -0.6811
17568TIP3   OH274194   5.786   4.240   2.433  0.1093 -0.1435 -0.6143
17568TIP3    H174195   5.835   4.254   2.353 -0.0987  0.9897 -0.5532
17568TIP3    H274196   5.695   4.233   2.404  0.1370 -0.7735 -0.5728
17569TIP3   OH274197   4.371   2.094  12.363 -0.6610 -0.1021 -0.1979
17569TIP3    H174198   4.332   2.164  12.415 -0.5023 -0.4394  0.3867
17569TIP3    H274199   4.396   2.028  12.427  1.0212  0.1754 -0.5125
17570TIP3   OH274200   0.752   5.845   4.440  0.1333  0.1469 -0.7038
17570TIP3    H174201   0.733   5.907   4.371  2.4361  0.9810 -0.6527
17570TIP3    H274202   0.838   5.810   4.419  0.0554 -1.0298  0.7213
17571TIP3   OH274203   3.214   4.498   2.930  0.2347 -0.6383  0.1175
17571TIP3    H174204   3.253   4.586   2.926 -0.4278 -0.2242  1.9517
17571TIP3    H274205   3.274   4.443   2.879  2.4209  0.2651  1.5490
17572TIP3   OH274206   0.299   2.281   0.807 -0.3300  0.2005  0.6474
17572TIP3    H174207   0.309   2.288   0.712  0.0337 -0.0087  0.6696
17572TIP3    H274208   0.270   2.369   0.834  0.9521  0.6792  0.5123
17573TIP3   OH274209   1.433   2.642   6.251  0.2390  0.1744 -0.0957
17573TIP3    H174210   1.450   2.551   6.227  0.2994  0.2696 -0.4187
17573TIP3    H274211   1.482   2.655   6.332  1.0014  0.1882 -0.5421
17574TIP3   OH274212   1.654   4.081  16.615 -0.8310  0.1909 -0.4162
17574TIP3    H174213   1.596   4.100  16.541  0.0164  0.2621 -1.0791
17574TIP3    H274214   1.660   3.985  16.617  1.0115  0.1929 -1.9843
17575TIP3   OH274215   6.668   3.383  16.712 -0.6530 -0.0428  0.2032
17575TIP3    H174216   6.609   3.388  16.637  0.4070 -2.0449 -0.8495
17575TIP3    H274217   6.751   3.418  16.680 -0.8350  1.4671  1.2582
17576TIP3   OH274218   1.906   5.264   5.814 -0.7365 -0.3585  0.4563
17576TIP3    H174219   1.908   5.360   5.818 -0.2734 -0.3597  0.3388
17576TIP3    H274220   1.819   5.240   5.847 -0.8498  0.1011  0.4972
17577TIP3   OH274221   5.103   0.957   4.868  0.0591  0.2567 -0.4948
17577TIP3    H174222   5.022   0.918   4.903  0.5469 -0.0415  0.3236
17577TIP3    H274223   5.077   1.043   4.837 -0.4116  0.5062  0.5524
17578TIP3   OH274224   1.836   6.479  11.404 -0.0327 -0.2393 -0.6789
17578TIP3    H174225   1.837   6.383  11.408  0.1193 -0.2022  0.5658
17578TIP3    H274226   1.867   6.500  11.316 -0.6507 -1.3424 -1.1800
17579TIP3   OH274227   4.517   0.987   3.149 -0.0825 -0.2632 -0.1508
17579TIP3    H174228   4.605   0.997   3.185  1.1159 -3.6680 -1.7101
17579TIP3    H274229   4.530   0.978   3.055 -2.2416  0.0329 -0.5411
17580TIP3   OH274230   6.441   4.593  13.848 -0.4134  0.3506 -0.1211
17580TIP3    H174231   6.514   4.643  13.885 -0.1174  1.1805 -1.7416
17580TIP3    H274232   6.366   4.652  13.856  0.0330  1.3524 -2.4790
17581TIP3   OH274233   1.059   4.786   0.059 -0.0415 -0.0916  0.1693
17581TIP3    H174234   1.023   4.697   0.062  0.1018 -0.1275  0.9244
17581TIP3    H274235   1.048   4.813  -0.032 -1.5955 -0.2545  0.2867
17582TIP3   OH274236   3.014   1.474  15.258 -0.2738 -0.1785  0.3271
17582TIP3    H174237   3.099   1.433  15.275  0.4112  1.1867  0.3137
17582TIP3    H274238   3.009   1.480  15.163 -0.0921  0.3032  0.3431
17583TIP3   OH274239   6.169   1.195  15.292  0.1943  1.0809 -0.3176
17583TIP3    H174240   6.261   1.209  15.271  0.6751  0.8978  1.4358
17583TIP3    H274241   6.135   1.143  15.220  1.5191  0.9780 -0.8921
17584TIP3   OH274242   0.571   5.493   3.452  0.7057 -0.1135  0.7775
17584TIP3    H174243   0.531   5.469   3.536  1.9255  3.8178  2.6958
17584TIP3    H274244   0.534   5.579   3.431  2.8696  0.4689 -1.0239
17585TIP3   OH274245   0.423   4.616  12.805 -0.0697  0.1874 -0.0298
17585TIP3    H174246   0.403   4.579  12.891  1.2904 -0.9522 -0.1655
17585TIP3    H274247   0.497   4.675  12.820 -2.3152  3.1493  0.2063
17586TIP3   OH274248   5.488   2.026   5.032  0.2121  0.3903  0.0603
17586TIP3    H174249   5.487   2.037   5.127 -1.0578 -2.0521  0.4088
17586TIP3    H274250   5.562   1.967   5.016  0.2201  0.5316 -0.4225
17587TIP3   OH274251   6.092   4.159  13.167  0.4268  0.1590 -0.2206
17587TIP3    H174252   6.133   4.073  13.159 -0.8708 -0.4857 -0.2628
17587TIP3    H274253   6.042   4.169  13.086  1.9871  1.7844 -1.0588
17588TIP3   OH274254   1.357   3.009  17.063 -0.3722 -0.1161  0.2088
17588TIP3    H174255   1.310   2.927  17.052  0.8783 -0.6686 -1.2767
17588TIP3    H274256   1.296   3.076  17.030 -0.4857 -0.7126 -0.8288
17589TIP3   OH274257   6.489   2.377   5.962  0.2032 -0.0114  0.0644
17589TIP3    H174258   6.470   2.311   6.028 -0.0826  1.2889  1.3402
17589TIP3    H274259   6.414   2.372   5.902  0.6137 -1.4104 -0.3776
17590TIP3   OH274260   4.631   3.774  15.892  0.2247  0.1437 -0.7236
17590TIP3    H174261   4.622   3.785  15.797 -3.3071  1.7284 -0.3569
17590TIP3    H274262   4.582   3.694  15.912  0.2420  0.2743 -0.1486
17591TIP3   OH274263   4.021   6.685   2.884 -0.2748 -0.2636 -0.2921
17591TIP3    H174264   3.937   6.661   2.846  0.0156  0.5909 -1.5177
17591TIP3    H274265   3.999   6.715   2.972 -1.3904  0.8628 -0.9177
17592TIP3   OH274266   2.411   4.757  16.939 -0.0549 -0.3103  0.3335
17592TIP3    H174267   2.443   4.667  16.943  0.6009 -0.2231 -1.8790
17592TIP3    H274268   2.486   4.808  16.909  0.1019  1.3294  3.1538
17593TIP3   OH274269   3.527   0.234   2.489  0.4704  0.0298  0.1955
17593TIP3    H174270   3.471   0.225   2.412 -1.0248 -0.0226  1.2400
17593TIP3    H274271   3.601   0.176   2.473  0.8291  0.9669 -1.7344
17594TIP3   OH274272   5.574   3.490  13.122  0.0796 -0.5709  0.4705
17594TIP3    H174273   5.598   3.401  13.095  0.7886 -0.2328 -0.0451
17594TIP3    H274274   5.482   3.499  13.097 -0.0377 -1.2034  0.6512
17595TIP3   OH274275   5.892   2.278  14.324  0.3401 -0.4394  0.2600
17595TIP3    H174276   5.800   2.300  14.336  0.5787  0.1078  1.2120
17595TIP3    H274277   5.938   2.326  14.393  1.3434 -0.6901 -0.2048
17596TIP3   OH274278   0.643   3.347  12.201  0.6788  0.2474  0.0177
17596TIP3    H174279   0.686   3.384  12.279  0.4787 -0.9767  0.7306
17596TIP3    H274280   0.715   3.323  12.143  0.8482  0.6073  0.0711
17597TIP3   OH274281   6.075   5.568   3.572 -0.2423 -0.3362  0.3155
17597TIP3    H174282   5.986   5.533   3.569 -0.4366  0.1759 -1.4061
17597TIP3    H274283   6.113   5.531   3.651 -2.3034  0.2206  1.6681
17598TIP3   OH274284   6.133   4.556  13.218 -0.2922 -0.5306 -0.1706
17598TIP3    H174285   6.210   4.552  13.274 -1.2688 -0.0648  1.2617
17598TIP3    H274286   6.143   4.482  13.158  0.7593 -1.0743  0.6413
17599TIP3   OH274287   6.013   3.480  14.767 -0.3319  0.2459 -0.3546
17599TIP3    H174288   6.023   3.575  14.776 -1.6551  0.2463  2.3877
17599TIP3    H274289   5.952   3.469  14.695  0.5456  1.4013 -1.3184
17600TIP3   OH274290   5.490   2.902  11.287 -0.1332  0.0716 -0.0050
17600TIP3    H174291   5.456   2.821  11.323  1.5644 -0.1868  1.1362
17600TIP3    H274292   5.413   2.948  11.254 -1.3035 -1.3208  0.6844
17601TIP3   OH274293   3.352   5.475  14.700  0.1975 -0.1735  0.3112
17601TIP3    H174294   3.360   5.381  14.683 -0.2665 -0.2342  0.4161
17601TIP3    H274295   3.442   5.506  14.708  0.4088 -0.3218 -1.2751
17602TIP3   OH274296   6.613   3.662  16.482 -0.3187 -0.3309  0.0399
17602TIP3    H174297   6.548   3.674  16.550  1.1736  0.5736  1.3610
17602TIP3    H274298   6.688   3.715  16.509  1.2323 -1.8050 -1.0745
17603TIP3   OH274299   2.628   5.419  16.816  0.5594 -0.4906 -0.5239
17603TIP3    H174300   2.611   5.495  16.761  2.0111  0.2972  0.0735
17603TIP3    H274301   2.557   5.358  16.795 -0.9485  1.2231 -0.6323
17604TIP3   OH274302   1.386   2.645  14.778 -0.2257  0.2378  0.0949
17604TIP3    H174303   1.352   2.734  14.771  0.4531  0.5501  0.6509
17604TIP3    H274304   1.386   2.627  14.872 -0.5133 -0.4108 -0.0237
17605TIP3   OH274305   0.134   2.539   3.448  0.2855  0.4197  0.4242
17605TIP3    H174306   0.103   2.449   3.461 -2.7067  1.2734 -0.0924
17605TIP3    H274307   0.056   2.587   3.419  2.3103  2.7196 -1.5762
17606TIP3   OH274308   6.821   1.898   0.416  0.0726  0.4672 -0.3538
17606TIP3    H174309   6.726   1.884   0.412 -0.0793  0.1425  2.4671
17606TIP3    H274310   6.830   1.993   0.417 -0.4378  0.5410  1.4263
17607TIP3   OH274311   5.075   4.722  16.816 -0.0111  0.9709  0.1021
17607TIP3    H174312   5.010   4.759  16.875 -0.8990  2.0452 -1.4536
17607TIP3    H274313   5.136   4.794  16.800  0.8742  0.3376  0.6047
17608TIP3   OH274314   5.594   4.659   5.204 -0.3257 -0.7351  0.5086
17608TIP3    H174315   5.569   4.745   5.172 -0.9722 -0.2192  2.2913
17608TIP3    H274316   5.511   4.614   5.219 -0.0041 -2.2959 -1.8504
17609TIP3   OH274317   5.279   5.078   5.655 -0.4262  0.3827 -0.6371
17609TIP3    H174318   5.331   5.156   5.676  1.8699 -1.7328  2.1879
17609TIP3    H274319   5.194   5.113   5.630  0.4594  3.8113  0.5835
17610TIP3   OH274320   2.265   2.906   5.023 -0.4004 -0.1039  0.0312
17610TIP3    H174321   2.226   2.993   5.015 -1.1061 -0.3988  0.1838
17610TIP3    H274322   2.247   2.880   5.113  1.8953  0.5500  0.7559
17611TIP3   OH274323   6.357   5.353  12.642  0.0685 -0.4525 -0.0411
17611TIP3    H174324   6.282   5.321  12.693 -1.4258 -0.3445 -2.0484
17611TIP3    H274325   6.375   5.284  12.579 -1.3460  1.3110 -2.5559
17612TIP3   OH274326   5.093   5.605  12.663  0.1896  0.0538 -0.0787
17612TIP3    H174327   5.007   5.636  12.695 -0.2089 -1.9779  0.9844
17612TIP3    H274328   5.074   5.523  12.618  1.6309 -0.7717  0.7368
17613TIP3   OH274329   1.205   6.818  15.527  0.4342  0.4703  0.7674
17613TIP3    H174330   1.184   6.873  15.603  1.1651  3.3825 -0.9548
17613TIP3    H274331   1.301   6.816  15.525  0.4127 -0.3941  0.4558
17614TIP3   OH274332   6.623   2.526   5.354 -0.2231  0.2286  0.3161
17614TIP3    H174333   6.678   2.596   5.391  2.6162 -0.9527 -1.3482
17614TIP3    H274334   6.665   2.445   5.383 -2.3562 -0.8177  0.6532
17615TIP3   OH274335   5.461   0.077   5.116  0.3576 -0.0229  0.2744
17615TIP3    H174336   5.504   0.057   5.033 -0.2343  0.5779 -0.1856
17615TIP3    H274337   5.375   0.109   5.092 -0.0854 -0.5075  1.1590
17616TIP3   OH274338   2.354   0.989  16.192 -0.6283 -0.3970  0.1616
17616TIP3    H174339   2.320   0.912  16.147  0.1554 -0.9213  0.4483
17616TIP3    H274340   2.365   0.961  16.283 -0.4160  0.0789  0.2890
17617TIP3   OH274341   4.971   5.197  13.134 -0.1537  0.2631  0.2386
17617TIP3    H174342   4.878   5.221  13.128 -0.1452  0.0036 -1.7072
17617TIP3    H274343   4.978   5.115  13.085  1.2029  0.6397 -0.2595
17618TIP3   OH274344   0.927   6.152  14.578 -0.1354  0.0870 -0.1378
17618TIP3    H174345   1.017   6.179  14.557  0.4022 -0.4851  1.2639
17618TIP3    H274346   0.938   6.086  14.646 -1.7153  2.1121  2.2592
17619TIP3   OH274347   2.224   5.045   4.385 -0.1016 -0.2831 -0.2032
17619TIP3    H174348   2.233   5.083   4.297 -0.5981  1.7385  0.5694
17619TIP3    H274349   2.166   5.104   4.431  0.4627 -1.0938  1.6327
17620TIP3   OH274350   4.310   3.609  11.643 -0.1485 -0.2081  0.0829
17620TIP3    H174351   4.217   3.588  11.634  0.3403 -2.6099  0.1765
17620TIP3    H274352   4.322   3.687  11.588 -2.4470  1.0056  1.1235
17621TIP3   OH274353   4.977   3.209  16.798 -0.4917 -0.5290  0.2744
17621TIP3    H174354   4.887   3.235  16.781 -0.3567 -1.0364 -1.3791
17621TIP3    H274355   4.992   3.233  16.889 -1.9804  0.4539  0.2915
17622TIP3   OH274356   6.777   6.522   4.237 -0.1088  0.1388 -0.6983
17622TIP3    H174357   6.819   6.503   4.320 -0.0218  0.0435 -0.7638
17622TIP3    H274358   6.828   6.593   4.200 -0.0081  0.0274 -0.7748
17623TIP3   OH274359   6.697   1.838   5.689  1.0345 -0.6356 -0.6796
17623TIP3    H174360   6.625   1.778   5.710  0.1891 -0.0755 -1.8607
17623TIP3    H274361   6.678   1.917   5.740  1.5127 -0.9401 -0.0205
17624TIP3   OH274362   1.243   6.403  11.130 -0.4823 -0.0416 -0.0067
17624TIP3    H174363   1.287   6.363  11.204 -5.8025 -2.5141  2.3663
17624TIP3    H274364   1.251   6.497  11.144 -0.8275 -0.4256  3.5359
17625TIP3   OH274365   2.070   1.673   0.689 -0.1974  1.1729 -0.3048
17625TIP3    H174366   2.038   1.583   0.696 -0.5251  1.2179 -1.1295
17625TIP3    H274367   2.038   1.716   0.768  1.0938  0.2383  0.7667
17626TIP3   OH274368   0.916   0.200   3.813 -0.3741  0.0211 -0.3410
17626TIP3    H174369   0.905   0.156   3.729 -0.9934  0.0031 -0.2553
17626TIP3    H274370   0.919   0.293   3.792  1.1387 -0.0418 -0.5443
17627TIP3   OH274371   5.256   5.497   4.822  0.5338 -0.3953  0.5763
17627TIP3    H174372   5.328   5.523   4.764 -0.7357  0.3450 -0.7403
17627TIP3    H274373   5.205   5.578   4.834 -0.8948 -1.2191  0.2466
17628TIP3   OH274374   4.491   1.027   2.138  0.5586 -0.6516  0.1768
17628TIP3    H174375   4.478   1.017   2.044 -2.2551  0.4171  0.3663
17628TIP3    H274376   4.465   0.942   2.175  2.1142 -1.2325  0.0150
17629TIP3   OH274377   1.812   6.130   1.075  0.3676 -0.1183  0.0817
17629TIP3    H174378   1.778   6.062   1.133 -0.8997  1.6750  1.5420
17629TIP3    H274379   1.743   6.143   1.010  0.1077  0.5582  0.4891
17630TIP3   OH274380   4.950   0.310  11.829  0.1248 -0.3202 -0.3001
17630TIP3    H174381   4.870   0.344  11.789 -0.2084 -1.7448 -0.9087
17630TIP3    H274382   5.021   0.360  11.788 -0.3495 -0.3713 -1.2061
17631TIP3   OH274383   3.947   3.245   1.165  0.0867  0.4325  0.0297
17631TIP3    H174384   3.894   3.179   1.120  0.3369  1.8284 -2.4768
17631TIP3    H274385   4.029   3.248   1.116  0.3505  2.0976  0.5088
17632TIP3   OH274386   6.176   4.853  12.931  0.4739 -0.5594 -0.2738
17632TIP3    H174387   6.125   4.790  12.881  0.0241 -0.6900  0.3373
17632TIP3    H274388   6.129   4.862  13.014  1.0320 -0.1109  0.0051
17633TIP3   OH274389   4.545   4.111   0.699 -0.3726 -0.2467  0.2412
17633TIP3    H174390   4.563   4.142   0.787  1.5596 -0.0543 -0.1736
17633TIP3    H274391   4.514   4.188   0.652 -0.8531 -0.2213  0.5956
17634TIP3   OH274392   5.175   3.523   0.342 -0.0736  0.1306  0.2128
17634TIP3    H174393   5.188   3.492   0.432  0.6040 -0.8597 -0.2107
17634TIP3    H274394   5.260   3.557   0.316 -0.2251  0.2682 -0.1033
17635TIP3   OH274395   2.931   4.431   2.265 -0.5539 -0.0438  0.1391
17635TIP3    H174396   2.947   4.477   2.182 -1.0601  0.0471  0.0903
17635TIP3    H274397   2.932   4.339   2.241 -0.2083 -0.0352  0.1180
17636TIP3   OH274398   3.249   3.212   4.004  0.1581 -0.4736 -0.0380
17636TIP3    H174399   3.335   3.237   3.969  0.4707  0.1683  1.1299
17636TIP3    H274400   3.187   3.246   3.940  0.7407  0.0220 -0.3595
17637TIP3   OH274401   4.761   2.395   3.101 -0.3179  0.1602 -0.0681
17637TIP3    H174402   4.684   2.354   3.141  1.5629 -0.1024  3.6523
17637TIP3    H274403   4.808   2.322   3.061  0.4193 -0.6130  2.0529
17638TIP3   OH274404   1.704   1.753  16.411 -0.4697  0.0891 -0.4008
17638TIP3    H174405   1.727   1.690  16.478  0.4089 -0.2986 -1.0457
17638TIP3    H274406   1.636   1.808  16.451  0.1582 -0.0141  0.8482
17639TIP3   OH274407   4.415   1.992  17.043  0.3822 -0.2851 -0.1816
17639TIP3    H174408   4.466   1.916  17.015 -0.1207 -1.2019  1.2765
17639TIP3    H274409   4.332   1.955  17.073  0.5410  0.7010  1.6047
17640TIP3   OH274410   0.836   4.129   3.435 -0.7816  1.0677  0.2797
17640TIP3    H174411   0.907   4.066   3.449 -1.2323  0.0099 -1.9017
17640TIP3    H274412   0.779   4.118   3.512  0.9472  1.3882  1.6804
17641TIP3   OH274413   5.557   5.197  10.758  0.2649  0.2970 -0.5539
17641TIP3    H174414   5.629   5.221  10.700  1.1938 -2.9078 -0.9162
17641TIP3    H274415   5.492   5.157  10.700  0.7054 -1.9016  0.3701
17642TIP3   OH274416   1.422   6.451   1.306 -0.0235  1.1391 -0.4305
17642TIP3    H174417   1.374   6.409   1.377 -1.5637 -1.7490 -2.9385
17642TIP3    H274418   1.507   6.407   1.304  0.7367  2.4789  0.6414
17643TIP3   OH274419   5.893   2.400   1.874 -0.2270  0.4162 -0.1236
17643TIP3    H174420   5.813   2.448   1.856 -1.0546 -1.0932 -0.6070
17643TIP3    H274421   5.934   2.386   1.789 -2.0036 -3.0407 -0.6130
17644TIP3   OH274422   2.211   5.038   4.727  0.4586  0.5618 -0.3325
17644TIP3    H174423   2.128   5.080   4.747 -0.0905 -0.6937  0.1334
17644TIP3    H274424   2.187   4.954   4.688  1.5215  0.6035 -1.1198
17645TIP3   OH274425   2.739   2.449   2.170 -0.0865 -0.2512  0.5478
17645TIP3    H174426   2.677   2.463   2.099 -0.6958 -1.4737  0.8295
17645TIP3    H274427   2.686   2.422   2.245  0.6202  0.3123  1.2806
17646TIP3   OH274428   4.299   0.506  15.340  0.6338  0.7230  0.2639
17646TIP3    H174429   4.238   0.529  15.269  1.4523 -0.0228 -0.7199
17646TIP3    H274430   4.310   0.411  15.331  0.5334  0.5737  1.5901
17647TIP3   OH274431   4.334   5.537  16.649  0.0304 -0.0274 -0.2174
17647TIP3    H174432   4.245   5.556  16.619  0.7413  1.4655 -1.4948
17647TIP3    H274433   4.333   5.559  16.742 -1.3019 -1.4625  0.1597
17648TIP3   OH274434   0.950   5.288  16.884 -0.1551  0.7045  0.6787
17648TIP3    H174435   1.019   5.315  16.944 -1.1116 -1.9101  3.1501
17648TIP3    H274436   0.876   5.345  16.905 -0.2623  0.2643  1.5349
17649TIP3   OH274437   3.953   3.483  15.057 -0.1799 -0.0188  0.3945
17649TIP3    H174438   3.907   3.516  14.980 -0.6026  0.1629  0.7133
17649TIP3    H274439   3.890   3.425  15.100 -0.6027  1.2038  1.5119
17650TIP3   OH274440   4.834   2.169  15.660  0.2673 -0.2422 -0.6947
17650TIP3    H174441   4.818   2.137  15.749  0.4691 -0.6049 -0.7860
17650TIP3    H274442   4.922   2.138  15.639  0.9943  1.4434 -0.3204
17651TIP3   OH274443   1.907   1.301  17.144 -0.0678  0.5986 -0.2025
17651TIP3    H174444   1.876   1.369  17.203 -0.5646  1.5462 -1.5051
17651TIP3    H274445   1.843   1.299  17.073  0.3914 -0.6467 -0.6068
17652TIP3   OH274446   2.893   0.365   0.242  0.2107  0.4925  0.2729
17652TIP3    H174447   2.923   0.445   0.284  1.1038 -0.9278  2.5225
17652TIP3    H274448   2.916   0.295   0.303 -1.0062 -1.4561 -1.3466
17653TIP3   OH274449   6.578   5.043  15.002  0.2060 -0.2319  0.0127
17653TIP3    H174450   6.541   4.984  14.937 -2.9553  0.9602  0.5554
17653TIP3    H274451   6.545   5.012  15.086 -0.6439  1.6187  0.4186
17654TIP3   OH274452   1.311   5.495  10.960 -0.4409 -0.2980  0.1883
17654TIP3    H174453   1.381   5.560  10.966  0.2695 -1.0094 -0.2333
17654TIP3    H274454   1.267   5.517  10.877  0.4052 -0.9352 -0.4441
17655TIP3   OH274455   4.657   0.582   1.633  0.3929  0.1150 -0.4597
17655TIP3    H174456   4.687   0.637   1.560  2.0138 -0.3149 -0.1577
17655TIP3    H274457   4.708   0.613   1.708 -0.4245 -0.2179  0.2399
17656TIP3   OH274458   6.790   5.192  11.646  0.2053  0.6107  0.0735
17656TIP3    H174459   6.828   5.224  11.564 -0.9345  3.1607  0.4317
17656TIP3    H274460   6.847   5.226  11.714  1.0616 -1.3736  0.3889
17657TIP3   OH274461   3.313   4.036   0.423 -0.3610  0.0000 -0.3756
17657TIP3    H174462   3.401   4.003   0.440  0.0100  0.6144 -1.0471
17657TIP3    H274463   3.300   4.104   0.489 -0.4954 -0.3635 -0.0220
17658TIP3   OH274464   2.843   3.652  13.443 -0.1596 -0.1072  0.5487
17658TIP3    H174465   2.774   3.587  13.436  0.5778 -0.8750  0.1532
17658TIP3    H274466   2.857   3.662  13.537 -1.3288  0.6401  0.6544
17659TIP3   OH274467   0.034   4.961  14.350  0.4665  0.0750 -0.5820
17659TIP3    H174468   0.006   4.881  14.394 -0.2598  0.0707 -1.0194
17659TIP3    H274469   0.006   4.949  14.259 -0.4588  1.1891 -0.4738
17660TIP3   OH274470   0.059   0.184  16.643  0.3098 -0.4192 -0.1256
17660TIP3    H174471   0.055   0.089  16.636 -0.7525 -0.2521 -3.2635
17660TIP3    H274472  -0.004   0.206  16.712 -1.1918 -1.8734 -0.9872
17661TIP3   OH274473   3.144   4.337   1.750  0.5513 -0.3711 -0.0270
17661TIP3    H174474   3.184   4.322   1.664  0.8211  0.5464 -0.0782
17661TIP3    H274475   3.218   4.350   1.809  0.3564 -0.3558  0.2158
17662TIP3   OH274476   5.404   5.145   3.595  0.5133 -0.4501 -0.1363
17662TIP3    H174477   5.318   5.184   3.581 -0.4374 -2.4726 -0.2886
17662TIP3    H274478   5.419   5.153   3.689  1.4483  2.3124 -0.4167
17663TIP3   OH274479   3.814   3.077  16.378 -0.1340 -0.1494  0.5419
17663TIP3    H174480   3.819   3.027  16.459 -1.0956 -1.4525 -0.1689
17663TIP3    H274481   3.886   3.044  16.325 -0.4628 -0.4229  0.2634
17664TIP3   OH274482   5.147   0.655   4.000 -0.1238  0.6956  0.3706
17664TIP3    H174483   5.080   0.605   3.953 -0.0523  0.7925  0.1640
17664TIP3    H274484   5.167   0.728   3.942 -0.1049  0.8706  0.5970
17665TIP3   OH274485   6.463   6.541  11.044  0.3144  0.5572 -0.2013
17665TIP3    H174486   6.536   6.526  10.983 -0.9871  0.0809 -1.7274
17665TIP3    H274487   6.473   6.473  11.110  1.5121  0.7937 -0.1151
17666TIP3   OH274488   5.754   3.333  13.580  0.2514 -0.0948 -0.4719
17666TIP3    H174489   5.797   3.361  13.500  0.5601 -0.5568 -0.4731
17666TIP3    H274490   5.795   3.384  13.650  0.2679  0.0098 -0.5578
17667TIP3   OH274491   2.399   5.458  10.112 -0.0556  0.2588  0.3175
17667TIP3    H174492   2.440   5.544  10.126  1.3814 -0.1207 -1.2863
17667TIP3    H274493   2.306   5.478  10.102  0.2834  1.6619 -0.2855
17668TIP3   OH274494   2.540   6.554  12.126 -0.2520  0.4317 -0.3226
17668TIP3    H174495   2.502   6.473  12.091  1.0906  0.0076 -0.8777
17668TIP3    H274496   2.536   6.616  12.053  0.1095  0.3881 -0.3794
17669TIP3   OH274497   5.000   4.845  15.131 -0.0262  0.0980 -0.1032
17669TIP3    H174498   5.039   4.914  15.077 -0.5833  0.7460  0.3005
17669TIP3    H274499   4.942   4.892  15.192  1.4414 -0.4952  1.8449
17670TIP3   OH274500   4.810   4.805   5.353  0.7699  0.1190 -0.0528
17670TIP3    H174501   4.884   4.820   5.294  1.8532  0.3831  1.3187
17670TIP3    H274502   4.781   4.716   5.334  2.3610 -0.5174  0.3264
17671TIP3   OH274503   0.157   0.064  13.876 -0.1142 -0.5278  0.2619
17671TIP3    H174504   0.132  -0.022  13.843  0.9064  0.3577 -3.2265
17671TIP3    H274505   0.074   0.111  13.884 -0.5040 -1.1791  0.1021
17672TIP3   OH274506   1.512   2.144   4.783  0.1663 -0.4639  0.3056
17672TIP3    H174507   1.452   2.071   4.769 -0.5399  0.4083 -1.5288
17672TIP3    H274508   1.594   2.116   4.742 -0.0555 -0.3231 -0.2513
17673TIP3   OH274509   0.773   6.666   4.072 -0.1909  0.4428  0.5154
17673TIP3    H174510   0.812   6.742   4.114 -0.7140  0.6502  0.6400
17673TIP3    H274511   0.828   6.592   4.099  0.9099  0.9001 -0.4021
17674TIP3   OH274512   2.410   4.153   5.028  0.1053 -0.4694 -0.1805
17674TIP3    H174513   2.473   4.099   5.076  0.8425  1.4917  1.1945
17674TIP3    H274514   2.367   4.205   5.096 -1.8438 -0.5700 -1.2799
17675TIP3   OH274515   1.012   5.544   2.742  0.4037 -0.9582 -0.6420
17675TIP3    H174516   1.108   5.545   2.748  0.4755 -0.4463 -1.6790
17675TIP3    H274517   0.993   5.574   2.653 -0.8212  2.0199  0.4919
17676TIP3   OH274518   6.385   5.577   2.642 -0.1483 -0.0668  0.3373
17676TIP3    H174519   6.476   5.582   2.672 -0.2479 -0.8616  0.8052
17676TIP3    H274520   6.352   5.666   2.649  0.1783 -0.0172  1.5104
17677TIP3   OH274521   5.528   6.780  16.361  0.0736 -0.4652  0.4370
17677TIP3    H174522   5.610   6.754  16.318  0.7993  1.4961  0.5587
17677TIP3    H274523   5.475   6.816  16.290 -0.0467 -0.2657  0.6286
17678TIP3   OH274524   4.891   4.308   3.299  0.6771  0.1227 -0.4067
17678TIP3    H174525   4.927   4.395   3.281 -0.4526  0.6431 -0.2299
17678TIP3    H274526   4.801   4.324   3.327  0.3004 -1.1299 -0.8002
17679TIP3   OH274527   3.985   4.622   1.758 -0.3670  0.3994  0.0781
17679TIP3    H174528   3.992   4.710   1.721 -2.2993 -0.2283 -2.0002
17679TIP3    H274529   4.072   4.605   1.794  0.8952  2.1231 -1.8761
17680TIP3   OH274530   0.883   1.680  14.191  0.3576  0.7500 -0.3231
17680TIP3    H174531   0.864   1.608  14.130  0.7094 -2.1531  2.6974
17680TIP3    H274532   0.796   1.709  14.220  0.2159 -0.6772  0.7571
17681TIP3   OH274533   3.918   1.447  15.552  0.5410 -0.1190 -0.1707
17681TIP3    H174534   3.826   1.439  15.579  1.0302 -0.1457  1.5754
17681TIP3    H274535   3.968   1.417  15.628  1.9932 -1.2589 -1.5184
17682TIP3   OH274536   1.114   1.150  12.170 -0.4671 -0.0044 -0.1521
17682TIP3    H174537   1.066   1.104  12.102 -0.5576  0.3021 -0.3004
17682TIP3    H274538   1.111   1.242  12.143  2.4718 -0.2268 -1.6298
17683TIP3   OH274539   5.217   5.365   1.111  0.2514  0.2655 -0.0074
17683TIP3    H174540   5.129   5.340   1.084  0.1430  0.8278 -0.2039
17683TIP3    H274541   5.218   5.461   1.102  0.2002  0.5052  2.0026
17684TIP3   OH274542   6.539   6.267  14.644 -0.5490  0.2249  0.2052
17684TIP3    H174543   6.626   6.241  14.614 -1.4042 -0.4396 -1.8779
17684TIP3    H274544   6.513   6.199  14.705 -1.0794 -1.6941 -2.0430
17685TIP3   OH274545   2.109   3.680   5.180 -0.3865 -0.0467  0.0784
17685TIP3    H174546   2.194   3.723   5.166 -0.8166  1.3673  1.4561
17685TIP3    H274547   2.113   3.600   5.128  1.3457  0.5636 -0.7971
17686TIP3   OH274548   6.767   2.830  14.502 -0.1550  0.4707 -0.4426
17686TIP3    H174549   6.789   2.750  14.550  1.5487  1.0247 -0.2452
17686TIP3    H274550   6.726   2.887  14.567  0.8477  0.6748  0.0227
17687TIP3   OH274551   6.511   3.942   4.250  0.0410 -0.0242  0.4773
17687TIP3    H174552   6.515   4.029   4.210  0.4884  0.4068  1.4261
17687TIP3    H274553   6.535   3.883   4.179 -1.4214  0.4992 -0.5039
17688TIP3   OH274554   2.992   0.200  12.065 -0.6536  0.1571  0.2895
17688TIP3    H174555   2.933   0.178  11.992 -1.0747 -0.9144  0.9212
17688TIP3    H274556   3.054   0.127  12.068  1.3044  1.7000 -0.9214
17689TIP3   OH274557   3.373   0.149  14.763 -0.1242  0.4878 -0.6954
17689TIP3    H174558   3.330   0.074  14.722 -1.4396  0.9606 -0.2273
17689TIP3    H274559   3.344   0.224  14.712 -1.7459  1.0809  0.9829
17690TIP3   OH274560   0.486   3.268   4.700  0.6694  0.2417 -0.4250
17690TIP3    H174561   0.514   3.267   4.609  1.1896  1.9582 -0.3137
17690TIP3    H274562   0.485   3.175   4.726  0.2754 -0.2954 -2.2180
17691TIP3   OH274563   0.042   1.605   0.941  0.4687  0.1506  0.4435
17691TIP3    H174564  -0.010   1.613   0.861 -0.3455 -1.6734  0.7458
17691TIP3    H274565   0.104   1.678   0.936 -0.8887  1.2809 -0.8350
17692TIP3   OH274566   0.824   4.365  15.878 -0.1705 -0.3845  0.1556
17692TIP3    H174567   0.750   4.351  15.937  1.8974 -0.0157  3.0954
17692TIP3    H274568   0.866   4.279  15.873  0.4818 -0.0873  0.4373
17693TIP3   OH274569   0.588   0.429  11.889  0.4606  0.3106 -0.8242
17693TIP3    H174570   0.678   0.397  11.883  0.7819  1.1267 -0.6069
17693TIP3    H274571   0.591   0.515  11.847  0.1583  1.0592  0.6205
17694TIP3   OH274572   0.779   6.670   1.274 -0.4564  0.5095  0.0352
17694TIP3    H174573   0.768   6.762   1.251 -0.0685  0.4293 -0.5039
17694TIP3    H274574   0.828   6.671   1.356 -1.4585  0.7960  0.6453
17695TIP3   OH274575   1.546   6.148   4.324  0.7421  0.0771  0.1068
17695TIP3    H174576   1.493   6.191   4.392 -1.0382  0.0905 -1.2109
17695TIP3    H274577   1.525   6.196   4.244  1.0916 -1.3063 -0.8435
17696TIP3   OH274578   0.760   4.891   2.960  0.0256  0.3203 -0.4147
17696TIP3    H174579   0.745   4.962   2.898  1.4769 -1.4971 -3.0498
17696TIP3    H274580   0.679   4.840   2.958 -0.2906  0.7981 -0.0273
17697TIP3   OH274581   2.786   0.463   6.482  0.1665  0.0246 -0.4027
17697TIP3    H174582   2.713   0.525   6.476 -0.7702 -1.0853 -0.9280
17697TIP3    H274583   2.832   0.488   6.562 -1.1037  0.4294  0.2313
17698TIP3   OH274584   5.800   5.263   5.696  0.3501 -0.4486  0.8975
17698TIP3    H174585   5.839   5.270   5.608 -0.7990  2.8215  0.5237
17698TIP3    H274586   5.873   5.234   5.751  1.5185 -1.0189 -0.8299
17699TIP3   OH274587   4.791   3.206  16.506  0.5474  0.2110 -0.0020
17699TIP3    H174588   4.883   3.189  16.487  0.2865  1.3732 -2.6354
17699TIP3    H274589   4.750   3.217  16.421 -2.0654 -0.2220  1.1005
17700TIP3   OH274590   4.269   5.413   2.258  0.5024  0.5632  0.4463
17700TIP3    H174591   4.288   5.475   2.187 -0.0962 -1.9371 -2.0768
17700TIP3    H274592   4.351   5.366   2.271 -0.1082 -0.9633 -0.7876
17701TIP3   OH274593   4.638   2.769  16.511 -0.6980 -0.1117  0.4604
17701TIP3    H174594   4.676   2.850  16.546 -0.5348 -0.5359  1.3061
17701TIP3    H274595   4.550   2.792  16.485  0.3608  1.1309 -2.4038
17702TIP3   OH274596   2.054   6.029  17.073  0.0438 -0.2138  0.1727
17702TIP3    H174597   2.024   6.070  17.154  2.0230  0.2921  0.6825
17702TIP3    H274598   2.142   5.997  17.092  0.2200 -0.8656 -1.5243
17703TIP3   OH274599   2.877   2.022  16.330  0.2166  0.4849 -0.9176
17703TIP3    H174600   2.860   2.060  16.243  1.4882  0.2354 -1.2913
17703TIP3    H274601   2.965   1.986  16.324 -0.4224 -1.3346 -0.1405
17704TIP3   OH274602   5.246   4.255   2.998  0.0769 -0.2531  0.4199
17704TIP3    H174603   5.324   4.208   2.968 -2.0263 -1.7232 -3.3441
17704TIP3    H274604   5.208   4.198   3.065  0.3280 -1.3726 -0.3577
17705TIP3   OH274605   5.512   0.949  13.620  0.2019  0.2617 -0.2011
17705TIP3    H174606   5.537   0.920  13.532 -0.7852 -1.6432  0.0918
17705TIP3    H274607   5.548   0.882  13.678 -0.5088  0.6483  0.7012
17706TIP3   OH274608   6.338   0.683  11.201 -0.2356 -0.0903  0.0174
17706TIP3    H174609   6.276   0.682  11.128 -0.5791 -1.2578  0.3028
17706TIP3    H274610   6.321   0.602  11.249  2.2519 -1.0525 -0.5315
17707TIP3   OH274611   0.153   6.208  13.223  0.6357  0.3040 -0.6841
17707TIP3    H174612   0.235   6.169  13.252  1.0930  0.7723 -1.3480
17707TIP3    H274613   0.085   6.149  13.258  1.1721  0.6693  1.0751
17708TIP3   OH274614   5.083   2.388   3.156 -0.1447  0.6544  0.1678
17708TIP3    H174615   5.040   2.351   3.079 -0.2698  1.0580  0.0391
17708TIP3    H274616   5.027   2.363   3.229 -0.2378  0.6040  0.0797
17709TIP3   OH274617   2.843   6.778   2.347 -0.0698  0.2767  0.2425
17709TIP3    H174618   2.864   6.685   2.341 -1.3450  0.0673 -1.7029
17709TIP3    H274619   2.748   6.782   2.353 -0.4386  1.4618 -3.7364
17710TIP3   OH274620   0.737   3.432   5.664 -0.1075 -0.2195  0.1466
17710TIP3    H174621   0.682   3.440   5.585 -0.7757  0.8612  0.6920
17710TIP3    H274622   0.826   3.441   5.632 -0.4094  0.9389 -0.4213
17711TIP3   OH274623   0.526   1.447   3.499  0.3435 -0.3648  0.0358
17711TIP3    H174624   0.558   1.531   3.466  0.0214  0.1511  0.9962
17711TIP3    H274625   0.480   1.408   3.424  1.2025 -0.0781 -0.6680
17712TIP3   OH274626   3.234   1.162  16.923 -0.5070 -0.7356 -0.0358
17712TIP3    H174627   3.298   1.102  16.884 -1.3682 -1.9638  0.3769
17712TIP3    H274628   3.187   1.108  16.986 -0.3959  0.7399  1.3505
17713TIP3   OH274629   2.720   3.902  12.567 -0.2745 -0.1401  0.2027
17713TIP3    H174630   2.624   3.911  12.566 -0.3511 -0.6505  1.1876
17713TIP3    H274631   2.744   3.893  12.475 -1.0607  1.0314 -0.1386
17714TIP3   OH274632   5.833   4.079   2.036 -0.1658  0.3694 -0.1661
17714TIP3    H174633   5.842   4.009   1.971 -0.7279 -0.2601  0.4144
17714TIP3    H274634   5.740   4.077   2.060  0.1049  0.3734  0.9060
17715TIP3   OH274635   0.429   1.882   0.744  0.0815 -0.3135 -0.9200
17715TIP3    H174636   0.396   1.972   0.734  2.1610  0.8461  1.4848
17715TIP3    H274637   0.465   1.860   0.658 -0.2301  1.2588 -1.4917
17716TIP3   OH274638   0.422   2.616   2.710  0.2063  0.2765  0.3289
17716TIP3    H174639   0.500   2.655   2.750  0.8179  0.2796 -0.7989
17716TIP3    H274640   0.407   2.669   2.632 -1.1936  0.5266  0.7527
17717TIP3   OH274641   4.835   2.688   2.802  0.2595 -0.1273  0.4215
17717TIP3    H174642   4.929   2.689   2.822  0.1601  0.2425  0.9025
17717TIP3    H274643   4.793   2.692   2.888 -0.1938  0.0415  0.1921
17718TIP3   OH274644   5.926   0.865   5.580  0.6695  0.6427  0.3730
17718TIP3    H174645   5.866   0.807   5.627  1.0265 -0.7680 -0.8309
17718TIP3    H274646   6.012   0.826   5.593  1.1988  1.9474  1.0342
17719TIP3   OH274647   1.036   3.624  12.387  0.5400  0.3523 -0.0169
17719TIP3    H174648   0.963   3.683  12.367  0.0667  0.1242  0.9730
17719TIP3    H274649   1.083   3.615  12.304  1.3717  3.1043  0.0494
17720TIP3   OH274650   3.016   2.311  12.592  0.0278  0.1725 -0.1710
17720TIP3    H174651   3.016   2.295  12.686 -3.4009  1.7940  0.2538
17720TIP3    H274652   3.004   2.224  12.553 -0.6993 -0.3079  1.0575
17721TIP3   OH274653   2.823   5.740   2.205 -0.0510  0.5156 -0.5979
17721TIP3    H174654   2.864   5.654   2.219  0.0791  0.5376 -0.8293
17721TIP3    H274655   2.752   5.722   2.143 -0.8821  0.3453  0.3858
17722TIP3   OH274656   5.501   1.367   3.445 -0.2176 -0.0098 -0.4144
17722TIP3    H174657   5.535   1.393   3.359 -1.6881  1.2383 -0.6715
17722TIP3    H274658   5.502   1.272   3.443 -0.5966 -0.0176 -2.0128
17723TIP3   OH274659   1.248   3.200   5.148  0.0118 -0.1821 -0.3411
17723TIP3    H174660   1.341   3.207   5.168  0.1005 -0.1265 -0.7567
17723TIP3    H274661   1.224   3.289   5.119 -0.8570  0.6317  2.5609
17724TIP3   OH274662   6.625   2.639  15.867  0.1880  0.2255  0.2458
17724TIP3    H174663   6.646   2.707  15.803  0.0626  0.6789  0.6782
17724TIP3    H274664   6.531   2.647  15.881  0.4037  1.0487  1.4819
17725TIP3   OH274665   0.722   0.817  14.542  0.1686  0.2280 -0.6756
17725TIP3    H174666   0.636   0.821  14.499 -0.0895 -1.3198 -0.3718
17725TIP3    H274667   0.763   0.739  14.507 -0.4528 -1.7223  2.4951
17726TIP3   OH274668   4.105   3.257   2.296 -0.4640  0.6124 -0.4295
17726TIP3    H174669   4.041   3.256   2.367  1.0025 -0.6305  0.9538
17726TIP3    H274670   4.161   3.332   2.316 -0.4467  0.6587 -0.6514
17727TIP3   OH274671   5.978   6.264  13.980  0.6400 -0.4284 -0.2005
17727TIP3    H174672   5.991   6.170  13.984  2.1841 -0.2300  0.2144
17727TIP3    H274673   5.946   6.287  14.068  1.3270 -0.4431  0.0622
17728TIP3   OH274674   0.514   3.148   5.303  0.2266  0.6840 -0.5917
17728TIP3    H174675   0.526   3.076   5.365 -2.0882  0.2273 -0.5816
17728TIP3    H274676   0.513   3.106   5.217  1.6470  1.0913 -0.8256
17729TIP3   OH274677   4.530   4.279   4.085  0.0503 -0.3915 -0.0279
17729TIP3    H174678   4.587   4.203   4.071  0.1413 -0.8602  2.4530
17729TIP3    H274679   4.504   4.306   3.996  0.5719 -2.8737 -1.0230
17730TIP3   OH274680   6.243   3.891   4.295 -0.8557  0.1815 -0.1827
17730TIP3    H174681   6.222   3.979   4.266  1.4224 -0.4275 -4.5471
17730TIP3    H274682   6.339   3.890   4.303 -0.8275 -1.8463 -0.1132
17731TIP3   OH274683   0.528   3.133   3.271  0.2396  0.1319  0.7986
17731TIP3    H174684   0.460   3.127   3.339  0.0416 -1.0893  0.5017
17731TIP3    H274685   0.480   3.156   3.192  0.1394 -0.8387  0.5651
17732TIP3   OH274686   2.142   5.801   6.003  0.6295  0.4500  0.1750
17732TIP3    H174687   2.052   5.833   5.994 -0.6091 -2.0475  2.1857
17732TIP3    H274688   2.152   5.737   5.933  0.6396  0.3626  0.2558
17733TIP3   OH274689   0.483   2.068  16.012 -0.2478 -0.0563  1.1007
17733TIP3    H174690   0.442   2.127  16.075 -1.7336 -1.2217  1.2635
17733TIP3    H274691   0.464   1.980  16.044  1.2800 -0.6660  0.4573
17734TIP3   OH274692   0.125   0.282  12.652  0.2859 -0.3729 -0.0579
17734TIP3    H174693   0.075   0.297  12.572  1.9359  1.3308 -0.8596
17734TIP3    H274694   0.196   0.223  12.625 -0.1558 -1.2064  0.5818
17735TIP3   OH274695   4.312   2.835  13.513  0.0827 -0.2590 -0.0595
17735TIP3    H174696   4.293   2.928  13.527  0.5853 -0.3449  1.2808
17735TIP3    H274697   4.392   2.819  13.562 -0.8948 -1.7817  1.1331
17736TIP3   OH274698   4.049   6.426   5.355 -0.4908  0.1456  0.2562
17736TIP3    H174699   4.004   6.355   5.308 -1.5442 -0.2183  1.7308
17736TIP3    H274700   4.107   6.381   5.415  0.0350  0.5792  0.0771
17737TIP3   OH274701   3.634   6.574  14.664  0.0836 -0.1884  0.7184
17737TIP3    H174702   3.713   6.628  14.670 -0.8056  1.1102  1.1105
17737TIP3    H274703   3.590   6.606  14.585  0.5927 -1.8578 -0.3010
17738TIP3   OH274704   1.048   6.017   4.664  0.0220 -0.3723 -0.4996
17738TIP3    H174705   0.955   5.993   4.669  0.0738 -0.7263 -1.0896
17738TIP3    H274706   1.061   6.042   4.572  0.7000 -1.1308 -0.6177
17739TIP3   OH274707   3.107   6.068   5.311  0.1014 -0.0259 -0.0579
17739TIP3    H174708   3.128   6.096   5.400  2.5118  0.7484 -0.7979
17739TIP3    H274709   3.089   5.974   5.320  1.2966 -0.1767  1.1268
17740TIP3   OH274710   4.290   4.943   3.251 -0.3426  0.8978 -0.6582
17740TIP3    H174711   4.330   4.880   3.191 -0.5541 -0.3664  0.4888
17740TIP3    H274712   4.268   5.018   3.196 -2.2214 -0.9282 -2.5622
17741TIP3   OH274713   6.169   0.855  16.621  0.4706  0.3109  0.5442
17741TIP3    H174714   6.202   0.899  16.699  1.0008  0.6281  0.1516
17741TIP3    H274715   6.231   0.783  16.607 -0.0355 -0.1789  0.8279
17742TIP3   OH274716   4.911   4.114   2.551 -0.5556 -0.2423  0.2440
17742TIP3    H174717   4.964   4.125   2.629  0.4812 -1.1096 -0.3198
17742TIP3    H274718   4.871   4.200   2.537  1.4558  0.7274  0.1443
17743TIP3   OH274719   1.803   3.769  14.460 -0.4714  0.0271 -0.5292
17743TIP3    H174720   1.815   3.790  14.552  0.3374  0.8818 -0.8091
17743TIP3    H274721   1.749   3.841  14.426 -1.7254 -0.8636 -0.5003
17744TIP3   OH274722   3.946   5.610   6.318  0.4222 -0.2691 -0.2542
17744TIP3    H174723   3.999   5.690   6.316 -0.0389  0.1927  2.3014
17744TIP3    H274724   3.866   5.636   6.364 -0.6513 -1.7225 -1.2327
17745TIP3   OH274725   1.273   5.842  15.409 -0.3860 -0.5629 -0.3631
17745TIP3    H174726   1.340   5.877  15.467 -1.1596  0.6713 -0.1828
17745TIP3    H274727   1.278   5.747  15.422  0.1820 -0.3848  0.9157
17746TIP3   OH274728   1.094   0.456  14.397  0.7791 -0.0802  0.6652
17746TIP3    H174729   1.021   0.475  14.456 -0.1802 -0.8919 -0.2247
17746TIP3    H274730   1.107   0.536  14.348  1.4648  0.5471  1.8197
17747TIP3   OH274731   0.138   0.311  13.171  0.2027  0.2348  0.1421
17747TIP3    H174732   0.055   0.314  13.122 -0.3888 -0.0230  1.1004
17747TIP3    H274733   0.116   0.265  13.252  1.4604 -0.5247  0.0841
17748TIP3   OH274734   3.121   2.219   5.407 -0.2572  0.3902 -0.2302
17748TIP3    H174735   3.081   2.295   5.449 -0.7892 -0.4619  0.8578
17748TIP3    H274736   3.069   2.145   5.438  1.7724 -0.7048  0.6922
17749TIP3   OH274737   5.730   4.740  14.682  0.5466  0.2475 -0.5870
17749TIP3    H174738   5.780   4.702  14.754  0.8495  1.6322 -0.0465
17749TIP3    H274739   5.797   4.772  14.621  0.2906  0.0288 -0.9919
17750TIP3   OH274740   0.697   0.003   2.439 -0.0178 -0.0544 -0.3137
17750TIP3    H174741   0.758   0.030   2.508  0.0436  1.9406 -1.0739
17750TIP3    H274742   0.619  -0.026   2.487  0.8567 -0.9713  0.6191
17751TIP3   OH274743   2.621   4.514  11.280  0.3882 -0.2452  0.0279
17751TIP3    H174744   2.690   4.507  11.346  0.1130  0.8208  0.4534
17751TIP3    H274745   2.543   4.478  11.324  0.3708 -0.2140  0.0231
17752TIP3   OH274746   4.062   4.999  15.132  0.7391 -0.5443 -0.0148
17752TIP3    H174747   4.151   4.968  15.147  0.7913 -0.4562 -0.1325
17752TIP3    H274748   4.073   5.093  15.113  0.7597 -0.7958 -1.3497
17753TIP3   OH274749   2.130   5.319  13.613 -0.5205 -0.0546  0.0464
17753TIP3    H174750   2.148   5.225  13.624  3.4905  0.7813  2.5780
17753TIP3    H274751   2.202   5.351  13.559 -2.3931  1.4982 -1.6664
17754TIP3   OH274752   5.919   0.769   2.284  0.0821  0.2953 -0.3884
17754TIP3    H174753   6.004   0.778   2.242  1.1925 -0.4749  1.5842
17754TIP3    H274754   5.895   0.858   2.311 -0.0006  0.5851 -1.3775
17755TIP3   OH274755   3.853   5.229   2.766 -0.2843  0.1631  0.4748
17755TIP3    H174756   3.868   5.144   2.807  1.2013  1.2830  2.4777
17755TIP3    H274757   3.937   5.275   2.774 -0.9910  1.7719 -0.6691
17756TIP3   OH274758   4.991   3.690   3.049 -0.5308 -0.1295  0.2776
17756TIP3    H174759   5.032   3.649   2.973  0.3380 -1.2147  1.2972
17756TIP3    H274760   5.062   3.701   3.113 -0.5062  3.6794 -0.1413
17757TIP3   OH274761   4.226   1.630  15.395 -0.3805  0.0137  0.0174
17757TIP3    H174762   4.155   1.574  15.363 -0.9416  1.0075 -0.5227
17757TIP3    H274763   4.304   1.575  15.388 -0.7108 -0.3122 -1.7224
17758TIP3   OH274764   5.516   1.332   2.215  0.5136 -0.1688  0.3740
17758TIP3    H174765   5.562   1.278   2.280  0.7862  0.1498  0.4499
17758TIP3    H274766   5.435   1.357   2.258 -0.1660 -1.4977 -0.0999
17759TIP3   OH274767   0.881   5.342   3.683 -0.3296 -0.4268  0.3432
17759TIP3    H174768   0.865   5.430   3.649  0.3052 -0.6040 -0.4618
17759TIP3    H274769   0.829   5.285   3.626 -0.4111 -0.6040  0.5954
17760TIP3   OH274770   4.673   2.516   0.042 -0.0783 -0.0748 -0.0103
17760TIP3    H174771   4.753   2.502   0.092 -0.2792  0.8447  0.5894
17760TIP3    H274772   4.702   2.561  -0.037  0.1062 -0.5974 -0.2474
17761TIP3   OH274773   0.359   4.289  13.599 -0.5873 -0.1344 -0.2716
17761TIP3    H174774   0.398   4.203  13.584 -0.1752  0.2849 -1.8882
17761TIP3    H274775   0.348   4.295  13.693 -0.1940 -1.7681 -0.0909
17762TIP3   OH274776   6.525   1.189  16.599  0.3182 -0.1983 -0.2681
17762TIP3    H174777   6.443   1.205  16.646  1.0897  0.7518  0.8242
17762TIP3    H274778   6.499   1.177  16.508 -1.0833 -0.5083  0.1508
17763TIP3   OH274779   3.616   1.057   4.478  0.0798 -0.4284 -0.2052
17763TIP3    H174780   3.648   1.061   4.388 -0.0223 -0.6120 -0.2503
17763TIP3    H274781   3.545   0.993   4.476  0.3562 -0.7505  0.0909
17764TIP3   OH274782   3.067   3.619   0.441  0.6443 -0.1343 -0.0872
17764TIP3    H174783   3.149   3.649   0.481  1.1054 -0.0063 -1.0858
17764TIP3    H274784   3.023   3.571   0.510  2.1575 -1.3197  0.1137
17765TIP3   OH274785   5.848   2.228   2.359 -0.0484 -0.0437  0.0297
17765TIP3    H174786   5.769   2.198   2.314 -0.2085  1.4556 -0.7469
17765TIP3    H274787   5.867   2.159   2.423 -0.4744 -1.7001 -1.5471
17766TIP3   OH274788   2.156   4.855  14.673 -0.6690  0.4178 -0.1214
17766TIP3    H174789   2.240   4.888  14.642 -0.6954  0.3293 -0.2868
17766TIP3    H274790   2.166   4.849  14.768 -0.6789  0.9499 -0.0810
17767TIP3   OH274791   1.968   2.170   3.721  0.1206 -0.1016 -0.2299
17767TIP3    H174792   2.019   2.176   3.640 -0.7218 -1.5430 -0.9085
17767TIP3    H274793   1.901   2.238   3.712  1.1754  1.0199  0.1464
17768TIP3   OH274794   2.034   2.821   3.714 -0.4698  0.1377 -0.4122
17768TIP3    H174795   1.953   2.871   3.727 -0.2798  0.9295 -1.9771
17768TIP3    H274796   2.069   2.854   3.631  0.6866 -1.2437 -0.5111
17769TIP3   OH274797   6.049   1.168   3.295  0.4929  0.3192 -0.3666
17769TIP3    H174798   5.966   1.211   3.316  0.1295 -1.3176  1.9011
17769TIP3    H274799   6.028   1.075   3.294  2.0571 -0.0579 -1.1172
17770TIP3   OH274800   2.162   3.457  12.536  0.7000  0.6345 -0.0542
17770TIP3    H174801   2.100   3.530  12.527 -0.3987 -0.3155 -0.5056
17770TIP3    H274802   2.153   3.409  12.453 -0.3318 -1.3091  1.1124
17771TIP3   OH274803   0.479   5.882  16.011 -0.1708  0.1608  0.0217
17771TIP3    H174804   0.541   5.951  15.987 -0.8801  0.6843 -0.3482
17771TIP3    H274805   0.533   5.814  16.050  0.8509 -0.0370 -1.6373
17772TIP3   OH274806   3.996   1.387  13.971 -0.5824 -0.2537 -0.1664
17772TIP3    H174807   3.978   1.443  14.047 -1.2926 -0.3970 -0.2248
17772TIP3    H274808   4.060   1.323  14.004 -0.0058  0.3866 -0.0149
17773TIP3   OH274809   5.241   0.903   1.465 -0.1925  0.6233 -0.2987
17773TIP3    H174810   5.260   0.811   1.452 -1.8113 -0.4091  3.2942
17773TIP3    H274811   5.232   0.939   1.376  0.7938 -2.5361 -1.8124
17774TIP3   OH274812   2.786   3.048   3.992  0.4432 -0.6045 -1.0391
17774TIP3    H174813   2.696   3.041   4.023  1.0456  0.4042  1.0815
17774TIP3    H274814   2.834   2.980   4.039  0.8406 -1.1155 -2.1248
17775TIP3   OH274815   3.377   6.781   4.917 -0.0666 -0.1124 -0.0284
17775TIP3    H174816   3.419   6.700   4.947 -0.6817 -0.1026  0.8594
17775TIP3    H274817   3.284   6.767   4.932 -0.2286  0.5498 -0.3940
17776TIP3   OH274818   4.281   4.656   3.357  1.0530 -0.1124 -0.0118
17776TIP3    H174819   4.304   4.593   3.425 -1.1018 -0.8538  0.1123
17776TIP3    H274820   4.265   4.737   3.404 -2.5640 -1.1250  0.8348
17777TIP3   OH274821   0.429   2.076  16.893 -0.3799 -0.2056 -0.7347
17777TIP3    H174822   0.388   2.079  16.979  2.2040 -2.1512  0.6740
17777TIP3    H274823   0.368   2.026  16.839 -1.3512 -0.2518  0.3742
17778TIP3   OH274824   6.222   4.832  15.390 -0.3969 -0.6589 -0.4928
17778TIP3    H174825   6.299   4.880  15.421 -0.3357 -0.5290 -0.8369
17778TIP3    H274826   6.244   4.740  15.403 -0.2077 -0.6206 -0.5350
17779TIP3   OH274827   6.339   5.277  14.286 -0.1431 -0.3744  0.0151
17779TIP3    H174828   6.404   5.334  14.328  0.4908 -0.2037 -1.1551
17779TIP3    H274829   6.262   5.333  14.277  0.3802  0.2440 -0.8605
17780TIP3   OH274830   1.444   5.502   5.990 -0.0431  0.3277  0.0457
17780TIP3    H174831   1.404   5.480   5.906 -2.3111  1.6383  0.6832
17780TIP3    H274832   1.457   5.418   6.034  0.1676 -0.2914 -1.1670
17781TIP3   OH274833   5.459   5.106   5.345 -0.0832  0.1252  0.5540
17781TIP3    H174834   5.520   5.036   5.321 -1.1707 -0.7511  0.2689
17781TIP3    H274835   5.375   5.062   5.355 -0.9042  1.4662 -0.1402
17782TIP3   OH274836   6.339   5.782  11.359 -0.3534 -0.2427  0.4953
17782TIP3    H174837   6.392   5.850  11.399  1.4129  0.4156 -2.5893
17782TIP3    H274838   6.346   5.707  11.418  3.0282  0.2397  0.8683
17783TIP3   OH274839   2.355   0.888   5.341  0.7747 -0.3955  0.3977
17783TIP3    H174840   2.390   0.976   5.356 -2.2612  0.7621  1.4436
17783TIP3    H274841   2.319   0.862   5.425  0.4858 -2.1243 -0.2205
17784TIP3   OH274842   2.955   1.592  11.772 -0.4422 -0.2519 -0.1207
17784TIP3    H174843   3.003   1.515  11.742 -0.2239 -0.9421  1.8280
17784TIP3    H274844   3.015   1.635  11.833 -0.5695  1.4838 -1.1622
17785TIP3   OH274845   3.556   3.071   3.960  0.0672 -0.3806 -0.5256
17785TIP3    H174846   3.543   3.005   4.028 -0.3634  0.0520 -0.1807
17785TIP3    H274847   3.572   3.153   4.007  1.3780 -0.3616 -0.9475
17786TIP3   OH274848   5.601   5.303   4.648  0.0838  0.5118  0.1995
17786TIP3    H174849   5.538   5.282   4.717 -0.5654  1.3932 -0.0911
17786TIP3    H274850   5.568   5.257   4.571 -0.5005  1.3326 -0.0675
17787TIP3   OH274851   1.972   3.210  14.298  0.1908  0.1618 -0.0641
17787TIP3    H174852   1.880   3.198  14.274 -0.4159  1.6322  1.3217
17787TIP3    H274853   2.004   3.274  14.235  0.0692  0.1570 -0.1324
17788TIP3   OH274854   2.284   3.644  13.292  0.0234  0.4248  0.2758
17788TIP3    H174855   2.206   3.610  13.248  0.9248 -0.0175 -1.0272
17788TIP3    H274856   2.328   3.566  13.326  1.6009  0.2768 -1.8999
17789TIP3   OH274857   1.163   2.367  12.313  0.0274  0.7014  0.1917
17789TIP3    H174858   1.171   2.437  12.378 -0.6991  2.1793 -1.2433
17789TIP3    H274859   1.090   2.393  12.257  0.9952 -0.1964 -1.5990
17790TIP3   OH274860   5.839   5.424   3.601 -0.3534  0.8768 -0.4877
17790TIP3    H174861   5.812   5.338   3.567  2.3969  0.8163 -2.9448
17790TIP3    H274862   5.857   5.408   3.693  0.6242 -1.4023 -0.9801
17791TIP3   OH274863   6.220   1.724  16.195  0.5440 -0.3608 -0.1555
17791TIP3    H174864   6.300   1.734  16.246 -0.7443 -0.3989  2.0068
17791TIP3    H274865   6.179   1.811  16.197  0.3483 -0.4236 -0.9516
17792TIP3   OH274866   5.434   2.284   4.526  0.0903  0.0569  0.1624
17792TIP3    H174867   5.339   2.298   4.536 -0.0743 -1.5620  1.1772
17792TIP3    H274868   5.457   2.335   4.449 -1.3547  1.5710  0.6647
17793TIP3   OH274869   4.011   1.242   5.448 -0.4624 -0.1368 -0.5967
17793TIP3    H174870   4.028   1.154   5.481  0.5558  0.8368  1.7061
17793TIP3    H274871   4.014   1.298   5.526  1.8857  2.3328 -2.2636
17794TIP3   OH274872   6.739   6.670   2.640 -0.2437  0.1041 -0.4796
17794TIP3    H174873   6.649   6.668   2.674 -0.0839  0.7545  0.0106
17794TIP3    H274874   6.765   6.762   2.648  0.4875 -0.0931 -0.5508
17795TIP3   OH274875   4.301   6.827   6.677  0.2901 -0.2231 -0.0218
17795TIP3    H174876   4.269   6.779   6.754  0.8346  1.4362  1.2883
17795TIP3    H274877   4.392   6.849   6.698  0.7273 -0.4861 -1.5304
17796TIP3   OH274878   0.838   3.998   2.672  0.4463 -0.2530 -0.4244
17796TIP3    H174879   0.835   4.020   2.579  1.0656 -0.0152 -0.3953
17796TIP3    H274880   0.757   3.950   2.688 -0.7693  1.6764 -0.5708
17797TIP3   OH274881   2.317   0.646   2.337 -0.2339  0.2447  0.1053
17797TIP3    H174882   2.246   0.710   2.344 -0.9710 -0.3901 -1.0896
17797TIP3    H274883   2.397   0.699   2.339 -0.8404  1.3314 -1.6460
17798TIP3   OH274884   2.794   6.373  15.857 -0.0474 -0.3897 -0.0065
17798TIP3    H174885   2.823   6.407  15.772  0.0436 -1.6792 -0.5091
17798TIP3    H274886   2.732   6.439  15.889 -0.7009 -0.2543 -1.4482
17799TIP3   OH274887   0.765   6.371  15.282  0.0348 -0.3962 -0.3862
17799TIP3    H174888   0.849   6.347  15.243  1.0560  0.8307  0.9740
17799TIP3    H274889   0.745   6.301  15.344  0.8674  0.1026  0.4568
17800TIP3   OH274890   6.690   3.344   2.968 -0.0871  0.1065  0.0855
17800TIP3    H174891   6.643   3.355   3.050  0.6557 -0.7238  0.6382
17800TIP3    H274892   6.774   3.387   2.983  0.2715 -0.5414 -0.0357
17801TIP3   OH274893   1.961   4.335  14.630  0.2144 -0.2356  0.5198
17801TIP3    H174894   1.910   4.411  14.660 -1.2379 -0.2348 -1.7046
17801TIP3    H274895   2.052   4.362  14.639 -0.0021 -0.1345  4.4279
17802TIP3   OH274896   5.574   2.465   0.678 -0.7016  0.0856  0.0691
17802TIP3    H174897   5.507   2.516   0.724  0.2930  1.1467  0.3934
17802TIP3    H274898   5.555   2.480   0.585 -2.0678 -1.2021  0.0999
17803TIP3   OH274899   6.805   4.018   3.058  0.0610  0.1716 -0.0351
17803TIP3    H174900   6.721   3.972   3.055 -0.9763  1.9885 -0.3254
17803TIP3    H274901   6.793   4.086   3.125  0.7130  1.5214 -1.2294
17804TIP3   OH274902   0.292   1.514  11.960 -0.1375 -0.7900 -0.0186
17804TIP3    H174903   0.386   1.530  11.952  0.0986 -1.4498  1.1218
17804TIP3    H274904   0.256   1.536  11.875  1.0387 -0.4288 -0.4414
17805TIP3   OH274905   4.323   6.770  15.355  0.1092  0.7751 -0.2999
17805TIP3    H174906   4.266   6.703  15.393  0.1851  1.0123  0.2347
17805TIP3    H274907   4.409   6.752  15.393  0.3973  0.4329 -1.0864
17806TIP3   OH274908   3.760   5.217   1.768 -0.1369 -0.3936  0.5191
17806TIP3    H174909   3.710   5.181   1.841  1.5852 -2.1686  0.9017
17806TIP3    H274910   3.851   5.196   1.789  0.6777  1.5089 -0.8103
17807TIP3   OH274911   6.334   0.302  14.554 -0.3228 -0.6350  0.6636
17807TIP3    H174912   6.406   0.250  14.519  0.5850  0.4488  0.9083
17807TIP3    H274913   6.344   0.297  14.649  0.4920  0.9454  0.6893
17808TIP3   OH274914   4.865   3.784   5.107  0.0987  0.2102 -0.5310
17808TIP3    H174915   4.939   3.842   5.123  1.0733 -0.4658 -2.3544
17808TIP3    H274916   4.842   3.750   5.193  0.0972  2.5280  0.4735
17809TIP3   OH274917   1.327   4.227   6.285  0.4365 -0.4156 -0.0949
17809TIP3    H174918   1.410   4.213   6.240  0.1830 -1.9124 -0.1449
17809TIP3    H274919   1.312   4.146   6.335 -0.7116  0.0473  0.3654
17810TIP3   OH274920   4.681   6.679  11.682  0.3975 -0.5810  0.1713
17810TIP3    H174921   4.612   6.627  11.723 -0.4776  0.0115 -0.5133
17810TIP3    H274922   4.644   6.768  11.677  0.8877 -0.4257 -0.9368
17811TIP3   OH274923   1.654   3.934   5.623 -0.4018  0.2604 -0.1199
17811TIP3    H174924   1.623   4.006   5.678 -1.0721  0.1370 -0.3235
17811TIP3    H274925   1.743   3.960   5.597 -0.6981  1.1010 -0.3333
17812TIP3   OH274926   2.212   0.974  16.782 -0.6142  0.1161  0.6357
17812TIP3    H174927   2.137   1.029  16.757 -0.5282  0.1328  0.4157
17812TIP3    H274928   2.233   0.925  16.703 -0.7843 -0.3483  0.8749
17813TIP3   OH274929   2.412   3.801   0.980  0.8264  0.4051  0.0142
17813TIP3    H174930   2.429   3.855   1.057  0.0947 -1.6390  1.7149
17813TIP3    H274931   2.483   3.822   0.919  1.3872  2.1385  1.1887
17814TIP3   OH274932   0.010   1.898  12.179  0.3956 -0.7641 -0.0885
17814TIP3    H174933   0.061   1.829  12.222  0.0275 -0.5866  0.6529
17814TIP3    H274934  -0.031   1.855  12.104 -0.3327 -1.5294  0.7160
17815TIP3   OH274935   2.981   5.546  16.352  0.0591  0.4411 -0.2733
17815TIP3    H174936   2.926   5.506  16.420  3.7348 -1.6946  1.8069
17815TIP3    H274937   2.977   5.640  16.370 -1.0507  0.1383  1.3200
17816TIP3   OH274938   0.206   5.282   5.755 -0.4790 -0.0914 -0.0494
17816TIP3    H174939   0.211   5.317   5.844 -1.8002 -0.4711  0.2013
17816TIP3    H274940   0.161   5.351   5.705  0.9258  0.4412 -0.6133
17817TIP3   OH274941   5.284   0.519  15.218 -0.1144  0.3473  0.1445
17817TIP3    H174942   5.331   0.529  15.300 -1.6600 -1.2647  1.3122
17817TIP3    H274943   5.294   0.603  15.173  1.0323  1.1536  1.8283
17818TIP3   OH274944   6.772   3.947  14.414  0.7545  0.1586 -0.3823
17818TIP3    H174945   6.825   3.909  14.344 -0.0367 -1.5377 -0.1296
17818TIP3    H274946   6.684   3.951  14.377  0.3769 -0.5216  0.3932
17819TIP3   OH274947   6.799   1.184   0.293  0.1029 -0.0629  0.3639
17819TIP3    H174948   6.768   1.114   0.237  0.8037  0.1650 -0.3162
17819TIP3    H274949   6.877   1.218   0.250 -1.0805  2.1901 -0.1691
17820TIP3   OH274950   5.927   1.387  17.009 -0.3390  0.0126  0.5789
17820TIP3    H174951   5.855   1.325  17.019 -1.5049  1.0502 -0.9175
17820TIP3    H274952   5.901   1.442  16.935  1.3717  1.2886  0.8702
17821TIP3   OH274953   5.292   1.407   1.397  0.2996 -0.2387  0.1500
17821TIP3    H174954   5.382   1.433   1.411  0.4620 -1.6902  2.4026
17821TIP3    H274955   5.293   1.311   1.402 -1.4979 -0.2511  1.5360
17822TIP3   OH274956   2.347   3.778   2.317  0.4571  0.2463 -0.1527
17822TIP3    H174957   2.386   3.707   2.368  0.3902 -1.2088 -2.0122
17822TIP3    H274958   2.259   3.787   2.353  1.3917  1.4688  2.0500
17823TIP3   OH274959   4.065   0.424   0.033  0.2609 -0.1135  0.1837
17823TIP3    H174960   4.013   0.496  -0.004 -0.9398 -0.8250  0.4424
17823TIP3    H274961   4.088   0.369  -0.041 -0.9018 -0.7521  0.2713
17824TIP3   OH274962   4.161   5.704   5.267  0.1329  0.3710  0.3366
17824TIP3    H174963   4.112   5.770   5.218  0.1426 -0.3328 -0.6499
17824TIP3    H274964   4.097   5.669   5.330 -0.0496  0.8710  0.4308
17825TIP3   OH274965   6.481   5.978   3.495 -0.2564  0.5597 -0.0608
17825TIP3    H174966   6.568   5.937   3.498 -0.2905  0.4829 -0.1438
17825TIP3    H274967   6.499   6.069   3.471 -0.0465  0.9828  1.5361
17826TIP3   OH274968   4.542   5.630   2.163  0.0286  0.1882  0.4151
17826TIP3    H174969   4.449   5.622   2.144 -0.5375  2.0721  2.0906
17826TIP3    H274970   4.552   5.595   2.252  1.1256 -0.8145 -0.0621
17827TIP3   OH274971   3.559   0.173   4.079 -0.4311  0.0515 -0.1459
17827TIP3    H174972   3.563   0.171   4.175 -2.3627  2.0556  0.0346
17827TIP3    H274973   3.484   0.119   4.057 -0.0714 -0.2938 -0.5468
17828TIP3   OH274974   3.531   1.220   4.660  0.0807 -0.0656 -0.3124
17828TIP3    H174975   3.551   1.189   4.571  2.5371 -0.2700  0.2501
17828TIP3    H274976   3.537   1.143   4.715 -0.1383  0.3024  0.2396
17829TIP3   OH274977   1.351   4.453   4.804  0.6295 -0.1171  0.5446
17829TIP3    H174978   1.347   4.542   4.838  2.3560  0.3510 -0.3692
17829TIP3    H274979   1.353   4.398   4.882 -1.1504  0.5569  1.1222
17830TIP3   OH274980   3.123   5.582  13.994 -0.0399 -0.6650 -0.3577
17830TIP3    H174981   3.028   5.578  13.980 -0.5269  0.3781  2.1202
17830TIP3    H274982   3.136   5.543  14.081  1.8240 -0.8473 -0.6797
17831TIP3   OH274983   0.203   0.369   4.029 -0.0560 -0.2654 -0.0746
17831TIP3    H174984   0.280   0.313   4.043 -0.1477  0.1017  2.2285
17831TIP3    H274985   0.129   0.315   4.055 -0.3158  0.3313  0.4242
17832TIP3   OH274986   1.122   1.726   5.837 -0.0777 -0.2890 -0.4190
17832TIP3    H174987   1.208   1.753   5.804  0.1437  1.4787  1.3365
17832TIP3    H274988   1.092   1.659   5.777  1.8592  0.1516 -1.9693
17833TIP3   OH274989   6.821   4.697  10.963 -0.0785 -0.4400 -0.2543
17833TIP3    H174990   6.827   4.617  10.910  0.0629  0.2852 -1.3645
17833TIP3    H274991   6.767   4.756  10.911  0.1410  0.3375  0.3775
17834TIP3   OH274992   4.117   6.270   3.068  0.3467  0.0880 -0.4340
17834TIP3    H174993   4.159   6.296   2.987  0.4150 -0.7390 -0.6742
17834TIP3    H274994   4.088   6.180   3.052  2.8389 -1.1420  1.3845
17835TIP3   OH274995   3.606   4.470  10.830  0.2228  0.0542  0.1828
17835TIP3    H174996   3.526   4.473  10.777  0.9042 -0.6097 -0.9365
17835TIP3    H274997   3.667   4.528  10.784  1.3215 -1.6844 -0.6852
17836TIP3   OH274998   4.735   0.956  14.643  0.3095  0.1722  0.1896
17836TIP3    H174999   4.692   0.875  14.670  0.8512  0.5716  2.4350
17836TIP3    H275000   4.794   0.978  14.715  3.5641  0.2227 -2.2158
17837TIP3   OH275001   4.483   4.836  13.297 -0.3544 -0.2087 -0.4178
17837TIP3    H175002   4.456   4.744  13.299  0.3526 -0.4094  0.2658
17837TIP3    H275003   4.466   4.869  13.385  1.5364 -0.3360  0.0399
17838TIP3   OH275004   2.761   0.792   0.752  0.2233 -0.1213 -0.5626
17838TIP3    H175005   2.772   0.815   0.844 -1.9354  0.2408 -0.3439
17838TIP3    H275006   2.716   0.867   0.713 -0.7856 -1.1297 -1.4089
17839TIP3   OH275007   1.292   0.977   2.715  0.5539  0.1520 -0.0730
17839TIP3    H175008   1.309   0.885   2.736 -0.8885  0.1405  1.2094
17839TIP3    H275009   1.377   1.019   2.721  0.9913 -0.8242  0.9359
17840TIP3   OH275010   2.774   6.705   5.685 -0.6462 -0.0422  0.4437
17840TIP3    H175011   2.831   6.765   5.733 -0.2497 -1.1869  1.4825
17840TIP3    H275012   2.803   6.711   5.594 -0.5524  1.2452  0.5416
17841TIP3   OH275013   3.822   1.471   5.888 -0.3051  0.5184  0.1115
17841TIP3    H175014   3.898   1.416   5.910 -0.3675  0.5924  0.5206
17841TIP3    H275015   3.810   1.459   5.794  1.0895  1.5894 -0.2388
17842TIP3   OH275016   5.076   6.614  15.765  0.1986 -0.3230 -0.6188
17842TIP3    H175017   5.058   6.613  15.671  0.3691  1.3986 -0.6897
17842TIP3    H275018   5.033   6.693  15.797  1.1438 -0.2657  0.5576
17843TIP3   OH275019   0.207   6.595  11.201  0.1742 -1.0506  0.0702
17843TIP3    H175020   0.158   6.541  11.139  0.7740  0.1425 -1.4785
17843TIP3    H275021   0.294   6.603  11.163 -0.1928  1.9128 -0.3272
17844TIP3   OH275022   5.751   1.595  12.807 -0.0038  0.3097  0.2597
17844TIP3    H175023   5.790   1.510  12.788  0.7901  0.8199 -0.4441
17844TIP3    H275024   5.684   1.607  12.740 -0.1172  0.2456  0.3604
17845TIP3   OH275025   2.992   3.839  14.667  0.0301  0.0699 -0.8948
17845TIP3    H175026   3.066   3.795  14.710  0.1643  1.5788  0.5250
17845TIP3    H275027   2.950   3.770  14.616  3.5206 -0.4770 -3.4020
17846TIP3   OH275028   3.811   4.631   0.021  0.4097  0.2302  0.6917
17846TIP3    H175029   3.849   4.543   0.017  1.0852  0.5187  0.6342
17846TIP3    H275030   3.717   4.616   0.029  0.1790 -0.5072 -2.3384
17847TIP3   OH275031   3.293   3.546  14.849  0.3229 -0.0232 -0.6111
17847TIP3    H175032   3.309   3.512  14.761  1.3497  1.6323 -1.1054
17847TIP3    H275033   3.371   3.524  14.898  0.3767  0.3402 -0.5317
17848TIP3   OH275034   2.196   4.210   5.413  0.1822 -0.0822 -0.1634
17848TIP3    H175035   2.290   4.216   5.394  0.6709  0.1462  2.0289
17848TIP3    H275036   2.176   4.293   5.458 -1.0590 -0.1735 -0.5136
17849TIP3   OH275037   0.485   2.901  13.832  0.3035 -0.1162 -0.2780
17849TIP3    H175038   0.447   2.821  13.795  0.4253  0.3522 -1.4527
17849TIP3    H275039   0.451   2.971  13.777 -0.0723  0.6853  0.9548
17850TIP3   OH275040   1.519   5.576  15.145  0.5013  0.0119 -0.5761
17850TIP3    H175041   1.428   5.604  15.141 -0.2494 -2.2948 -1.4299
17850TIP3    H275042   1.550   5.610  15.229 -1.2044  0.6721 -0.1614
17851TIP3   OH275043   4.853   2.388   4.440 -0.1872 -0.1223  0.2997
17851TIP3    H175044   4.758   2.386   4.451 -0.1467  0.0589  0.7241
17851TIP3    H275045   4.872   2.316   4.379 -0.4645 -1.1003  1.3277
17852TIP3   OH275046   0.052   3.653   2.338 -0.0796  0.2210 -0.4573
17852TIP3    H175047   0.024   3.727   2.284 -0.7605 -0.0654 -0.5126
17852TIP3    H275048  -0.028   3.625   2.383 -0.1206 -1.2033 -1.3309
17853TIP3   OH275049   4.515   2.684   0.192 -0.3163 -0.2135  0.8395
17853TIP3    H175050   4.538   2.613   0.132  0.1399 -1.8564  2.8485
17853TIP3    H275051   4.422   2.700   0.176  0.1995  0.7606 -1.5980
17854TIP3   OH275052   2.455   4.874  10.719  0.2762  0.0890  0.1630
17854TIP3    H175053   2.376   4.848  10.671 -0.6319  2.2380  0.3625
17854TIP3    H275054   2.445   4.968  10.731  0.7658 -0.2159  4.0564
17855TIP3   OH275055   0.950   6.735   5.670 -0.6524  0.0726 -0.0821
17855TIP3    H175056   0.955   6.822   5.707 -1.1730  0.2382 -0.3907
17855TIP3    H275057   0.874   6.738   5.611 -0.1162 -0.3076 -0.8134
17856TIP3   OH275058   1.879   5.263   4.145  0.1636  0.1756  0.4766
17856TIP3    H175059   1.953   5.318   4.170 -0.2708  0.8073  0.4064
17856TIP3    H275060   1.894   5.180   4.189  0.3745  0.6500  1.3204
17857TIP3   OH275061   4.606   2.543   1.107  0.0408 -0.1284 -0.3079
17857TIP3    H175062   4.576   2.561   1.018  0.8819  0.1851 -0.5431
17857TIP3    H275063   4.701   2.556   1.103  0.1261 -0.4103  0.5639
17858TIP3   OH275064   4.201   1.710  15.681  0.8399 -0.1975 -0.4463
17858TIP3    H175065   4.205   1.803  15.701 -0.1059 -0.3312  0.4429
17858TIP3    H275066   4.235   1.703  15.591  1.2170  0.9500 -0.4067
17859TIP3   OH275067   0.210   1.020  13.558 -0.3036  0.0880 -0.2489
17859TIP3    H175068   0.257   0.946  13.596  0.9114  1.0135  0.1048
17859TIP3    H275069   0.150   1.048  13.627  0.0278  0.1282  0.0244
17860TIP3   OH275070   2.320   3.534  12.876 -0.5344 -0.7933 -0.4926
17860TIP3    H175071   2.364   3.537  12.791  1.8224 -0.5560  0.6636
17860TIP3    H275072   2.303   3.626  12.897 -0.4742 -0.8063 -0.3896
17861TIP3   OH275073   0.500   6.600   2.978  0.7421  0.3257 -0.0515
17861TIP3    H175074   0.514   6.510   2.949  2.5678 -0.8835  3.9235
17861TIP3    H275075   0.405   6.610   2.981  0.4870 -1.7188  0.0257
17862TIP3   OH275076   4.534   1.660   2.763 -0.3533  0.0311  0.2183
17862TIP3    H175077   4.598   1.601   2.722  1.3085  0.0336  2.5995
17862TIP3    H275078   4.553   1.746   2.724 -0.0016 -0.2563 -0.2664
17863TIP3   OH275079   3.531   0.318  16.375 -0.2438 -0.5386  0.0789
17863TIP3    H175080   3.488   0.398  16.346  0.3391 -0.1063  0.3856
17863TIP3    H275081   3.529   0.261  16.298  1.6150  0.7350 -0.9841
17864TIP3   OH275082   6.709   1.267  11.932 -0.0062 -0.4546 -0.0380
17864TIP3    H175083   6.649   1.223  11.993 -0.6770  1.1548  0.5217
17864TIP3    H275084   6.657   1.277  11.852 -0.6921  1.2955  0.5748
17865TIP3   OH275085   5.906   4.585  13.828  0.3760  0.6979 -0.3255
17865TIP3    H175086   5.903   4.492  13.808  0.6244  1.0887 -2.3547
17865TIP3    H275087   5.896   4.629  13.744 -2.6280  2.5877  0.8377
17866TIP3   OH275088   6.658   1.423   5.229  0.0459 -0.3081 -0.3780
17866TIP3    H175089   6.695   1.511   5.229  0.4029 -0.4143  1.9119
17866TIP3    H275090   6.584   1.428   5.289  0.5217 -1.7263  0.3758
17867TIP3   OH275091   0.661   1.309   0.838  0.0033  0.0189 -0.3451
17867TIP3    H175092   0.598   1.320   0.767  1.0771  0.0801 -1.3126
17867TIP3    H275093   0.647   1.220   0.870 -0.0562 -0.2316 -1.0596
17868TIP3   OH275094   6.528   3.014  12.859  0.8256  0.0139 -0.1811
17868TIP3    H175095   6.541   3.105  12.832  2.3671 -0.2432 -0.3923
17868TIP3    H275096   6.572   3.007  12.944 -0.2570 -0.2715  0.3773
17869TIP3   OH275097   5.262   4.942   4.832  0.6155 -0.1410  0.3776
17869TIP3    H175098   5.265   4.985   4.917 -1.1530 -1.2383  1.0422
17869TIP3    H275099   5.182   4.976   4.791  1.9915  1.2233 -1.3749
17870TIP3   OH275100   1.161   3.207   3.145 -0.0462  0.3396 -0.7544
17870TIP3    H175101   1.113   3.127   3.166  0.5587  0.0790 -0.3265
17870TIP3    H275102   1.223   3.180   3.077 -0.3513  0.6193 -1.1421
17871TIP3   OH275103   3.747   5.027  10.945 -0.0433  0.2004 -0.1334
17871TIP3    H175104   3.814   5.072  10.894  1.6719  0.4517  2.2115
17871TIP3    H275105   3.748   4.937  10.913  2.3364 -0.1121  0.6682
17872TIP3   OH275106   1.183   2.249  16.702 -0.0128 -0.2215  0.7271
17872TIP3    H175107   1.263   2.227  16.751 -0.2228 -0.6907  0.8585
17872TIP3    H275108   1.117   2.189  16.736 -0.9629  1.5176  2.1067
17873TIP3   OH275109   1.961   4.112   1.173 -0.4498  0.4795 -0.7203
17873TIP3    H175110   1.895   4.179   1.190 -1.6938 -0.5123 -1.4670
17873TIP3    H275111   1.969   4.110   1.077 -0.9562 -0.8963 -0.7559
17874TIP3   OH275112   0.084   2.039  16.950  0.3112 -0.0544 -0.3298
17874TIP3    H175113   0.089   1.955  16.904 -0.7885 -0.2718 -0.0872
17874TIP3    H275114  -0.009   2.051  16.969  0.2924  1.7260 -1.2904
17875TIP3   OH275115   0.284   2.694   3.619  1.2247 -0.4449 -0.3832
17875TIP3    H175116   0.279   2.656   3.706  0.7813  1.5340  0.5226
17875TIP3    H275117   0.250   2.627   3.560 -0.2002 -1.1682  1.1898
17876TIP3   OH275118   5.635   1.735  11.391  0.3611 -0.0100 -0.7164
17876TIP3    H175119   5.563   1.679  11.419  0.3211 -0.0662 -0.9294
17876TIP3    H275120   5.602   1.825  11.400  0.6604  0.0207  0.2903
17877TIP3   OH275121   3.569   6.239  10.495 -0.2911  0.5384  0.0032
17877TIP3    H175122   3.506   6.252  10.566  0.5184  3.0538  0.3504
17877TIP3    H275123   3.516   6.238  10.415 -0.7583  4.4664  0.1110
17878TIP3   OH275124   2.592   0.416   2.624 -0.1866  0.5312  0.5513
17878TIP3    H175125   2.686   0.427   2.610 -0.6116  1.0503 -2.9368
17878TIP3    H275126   2.565   0.495   2.669  0.7692  1.3740 -0.2954
17879TIP3   OH275127   0.907   1.508  11.269 -0.4974  0.5065 -0.1690
17879TIP3    H175128   0.819   1.518  11.303 -0.5200 -1.3156  0.4424
17879TIP3    H275129   0.964   1.548  11.334 -0.7624 -0.1266  0.4620
17880TIP3   OH275130   5.244   4.848  10.678 -0.2212  0.0816 -0.0058
17880TIP3    H175131   5.246   4.752  10.678  1.2836  0.0096  2.1198
17880TIP3    H275132   5.173   4.870  10.738  2.0298  0.0495  2.9662
17881TIP3   OH275133   5.676   4.821  15.517  0.5692  0.1027 -0.5054
17881TIP3    H175134   5.711   4.733  15.501  1.5431  0.5752 -1.0177
17881TIP3    H275135   5.684   4.866  15.432  1.0355  1.0086  0.0053
17882TIP3   OH275136   5.316   2.615   3.744  0.0003  0.5139 -0.9153
17882TIP3    H175137   5.317   2.649   3.834 -0.1365  0.9203 -1.0668
17882TIP3    H275138   5.404   2.632   3.711 -1.0136  4.1094 -2.2359
17883TIP3   OH275139   2.133   1.786   5.583  0.0471  0.5007  0.6147
17883TIP3    H175140   2.173   1.841   5.650 -2.2395  0.8711  1.7846
17883TIP3    H275141   2.084   1.847   5.528  1.7405  0.1783 -1.3644
17884TIP3   OH275142   2.755   4.894   1.459 -0.2066  0.4968  0.0706
17884TIP3    H175143   2.846   4.912   1.483 -0.4054 -0.4313  1.6247
17884TIP3    H275144   2.708   4.892   1.542 -1.4976  0.1389 -0.6456
17885TIP3   OH275145   4.381   5.694   0.854  0.0853  0.1819 -0.2427
17885TIP3    H175146   4.421   5.736   0.778 -0.0723  0.4518 -0.1800
17885TIP3    H275147   4.312   5.755   0.881  0.6592  0.4895  0.5958
17886TIP3   OH275148   1.697   6.254  11.731  0.4388  0.4463  0.5036
17886TIP3    H175149   1.695   6.263  11.635 -1.8077  0.9052  0.5316
17886TIP3    H275150   1.788   6.269  11.755  0.7886  1.8196 -1.4360
17887TIP3   OH275151   6.190   6.547  11.959 -0.6113  0.0554 -0.0721
17887TIP3    H175152   6.125   6.476  11.956  0.2989 -0.8838  1.2097
17887TIP3    H275153   6.222   6.546  12.049  0.3353  1.2825 -0.3672
17888TIP3   OH275154   2.760   4.382   3.223 -0.2559  0.2561  1.1297
17888TIP3    H175155   2.801   4.381   3.310  1.3796  0.1943  0.3885
17888TIP3    H275156   2.772   4.294   3.189 -1.1209  0.2082  0.9343
17889TIP3   OH275157   3.194   1.750  14.327 -0.7990  0.5414  0.1244
17889TIP3    H175158   3.232   1.781  14.245  1.2006 -0.2928  0.6971
17889TIP3    H275159   3.202   1.655  14.323  0.3059  0.5406  1.7124
17890TIP3   OH275160   0.772   1.196  11.061 -0.4815 -0.1238  0.1304
17890TIP3    H175161   0.824   1.145  10.999  1.1614  2.0788 -0.4367
17890TIP3    H275162   0.780   1.149  11.144  0.1915 -1.2657 -0.5623
17891TIP3   OH275163   5.293   1.513   4.813 -0.1029  0.5713 -0.6340
17891TIP3    H175164   5.284   1.423   4.781 -1.5860  0.0958  0.9422
17891TIP3    H275165   5.364   1.509   4.877 -2.5708 -0.4907  2.3280
17892TIP3   OH275166   2.855   6.519   0.411 -0.4406  0.5049  0.2304
17892TIP3    H175167   2.783   6.462   0.385  0.3100 -0.8175  0.9497
17892TIP3    H275168   2.932   6.484   0.365 -0.0043  1.0849  0.5002
17893TIP3   OH275169   3.443   4.731   4.425  0.2995 -0.1661 -0.5501
17893TIP3    H175170   3.412   4.797   4.487 -1.3947 -1.2688 -0.1400
17893TIP3    H275171   3.445   4.775   4.341  0.2948  0.6964 -0.1125
17894TIP3   OH275172   5.604   2.902  12.575  0.0068 -0.0192  0.1466
17894TIP3    H175173   5.567   2.990  12.566  0.4363 -0.0082 -2.0685
17894TIP3    H275174   5.625   2.894  12.668 -0.4166  2.0595  0.4665
17895TIP3   OH275175   6.191   0.518  12.592  0.0403 -0.0237  0.8591
17895TIP3    H175176   6.127   0.483  12.529  1.0403  0.9908 -0.7885
17895TIP3    H275177   6.230   0.593  12.547  2.4910 -0.6877  1.7624
17896TIP3   OH275178   0.527   3.778   2.564  0.0981 -0.0402 -0.3945
17896TIP3    H175179   0.458   3.838   2.538 -0.2534  0.2818  1.1440
17896TIP3    H275180   0.521   3.775   2.660  1.4499 -0.9209 -0.3043
17897TIP3   OH275181   6.394   4.072  16.799  0.0219  0.0262  0.4185
17897TIP3    H175182   6.469   4.036  16.752  0.5035  0.5530  0.7670
17897TIP3    H275183   6.390   4.023  16.881  0.2894  0.3216  0.6126
17898TIP3   OH275184   3.380   5.633   6.203  0.3103  0.5196 -0.1122
17898TIP3    H175185   3.425   5.714   6.224  0.7031  0.4236 -0.5623
17898TIP3    H275186   3.447   5.565   6.210  0.5266  0.5068 -1.8322
17899TIP3   OH275187   3.418   2.624  11.741  0.3775  0.1399  0.0484
17899TIP3    H175188   3.387   2.586  11.658  1.8694  0.7900 -0.8389
17899TIP3    H275189   3.441   2.548  11.795 -0.6294 -0.2882 -0.0924
17900TIP3   OH275190   1.437   1.846  13.690 -0.2545 -0.7191  0.6330
17900TIP3    H175191   1.439   1.827  13.784 -0.6540  0.3891  0.8764
17900TIP3    H275192   1.346   1.834  13.665 -0.8534  2.1401  1.1063
17901TIP3   OH275193   5.357   2.369   1.466  0.1754 -0.3036 -0.1499
17901TIP3    H175194   5.446   2.336   1.479  1.7377  2.8857 -1.7999
17901TIP3    H275195   5.344   2.432   1.536 -0.1076  0.4867 -0.8980
17902TIP3   OH275196   3.935   0.709   6.060 -0.2440  0.6066 -0.0688
17902TIP3    H175197   3.863   0.660   6.020 -0.6399  1.1079  0.0236
17902TIP3    H275198   3.930   0.688   6.153  0.8909 -0.8355 -0.2912
17903TIP3   OH275199   1.706   3.228  13.759  0.4057 -0.1625 -0.2235
17903TIP3    H175200   1.776   3.222  13.825  0.4782  3.2003  0.1505
17903TIP3    H275201   1.743   3.186  13.682  1.0886 -2.4183  1.2133
17904TIP3   OH275202   1.924   6.739   3.566 -0.1544  0.1509  0.3677
17904TIP3    H175203   1.901   6.683   3.492  0.1541 -1.4797  1.4684
17904TIP3    H275204   2.017   6.725   3.579  0.5538  2.8917 -0.8881
17905TIP3   OH275205   4.798   0.806  11.440 -0.2532 -0.4626 -0.5152
17905TIP3    H175206   4.775   0.717  11.413  0.9780 -1.0158  0.1728
17905TIP3    H275207   4.889   0.800  11.468 -0.8463  0.4774  1.8828
17906TIP3   OH275208   1.521   2.084   1.049  0.0474  0.3149  0.1541
17906TIP3    H175209   1.450   2.149   1.050 -1.2711 -1.0596  0.4568
17906TIP3    H275210   1.495   2.022   0.982 -0.5535 -1.7589  2.1803
17907TIP3   OH275211   3.301   0.446  15.682 -0.0096 -0.3575 -0.0760
17907TIP3    H175212   3.325   0.410  15.597  3.0326  1.4278 -0.1132
17907TIP3    H275213   3.235   0.512  15.662 -1.1837 -1.6739 -0.6983
17908TIP3   OH275214   5.949   0.551   1.554  0.5792  0.0473 -0.4509
17908TIP3    H175215   5.869   0.527   1.602 -0.1419  0.5313 -1.3738
17908TIP3    H275216   5.955   0.646   1.566  1.4658 -0.0849  0.2611
17909TIP3   OH275217   2.156   6.201  12.021 -0.2452  0.5344  0.2020
17909TIP3    H175218   2.123   6.156  12.099  0.7655  0.9641  0.9013
17909TIP3    H275219   2.180   6.131  11.962  0.5823  0.1445  0.9736
17910TIP3   OH275220   3.357   5.557   5.316 -0.4144 -0.2811  0.0069
17910TIP3    H175221   3.384   5.467   5.334 -0.2405 -0.0811  0.8105
17910TIP3    H275222   3.391   5.576   5.229  0.3617 -0.6816  0.2202
17911TIP3   OH275223   3.989   6.544  15.694  0.8121 -0.5708  0.0227
17911TIP3    H175224   3.968   6.618  15.637  2.5539 -0.7433 -0.9031
17911TIP3    H275225   3.922   6.478  15.673  0.6886 -0.1598 -0.9164
17912TIP3   OH275226   4.963   5.796  14.234 -0.4581  0.2302  0.0207
17912TIP3    H175227   4.929   5.757  14.154 -0.4550  1.5976 -0.6858
17912TIP3    H275228   5.041   5.745  14.255 -0.2089  0.1117 -1.1090
17913TIP3   OH275229   6.584   1.999  13.830  0.4279 -0.4263  0.2109
17913TIP3    H175230   6.545   1.979  13.915  1.7667  0.3692  1.0493
17913TIP3    H275231   6.597   2.094  13.831  1.7011 -0.5682 -0.2960
17914TIP3   OH275232   3.455   3.795  15.324  0.1598  0.2449 -0.3136
17914TIP3    H175233   3.469   3.873  15.377  0.8586 -1.0556  1.5374
17914TIP3    H275234   3.537   3.746  15.331 -0.2251 -0.6243 -1.4922
17915TIP3   OH275235   1.477   3.054   0.747 -0.3358 -0.0561  0.3845
17915TIP3    H175236   1.539   3.070   0.676 -2.3915 -0.2311 -1.5602
17915TIP3    H275237   1.522   2.994   0.806  1.0988 -0.7009 -1.2933
17916TIP3   OH275238   2.935   2.638  12.704 -0.8551  0.4555 -0.3125
17916TIP3    H175239   2.892   2.553  12.711  1.2875 -0.5966  0.9630
17916TIP3    H275240   2.883   2.686  12.639 -1.6089 -2.1266 -1.7323
17917TIP3   OH275241   0.114   4.356   5.374 -0.2651 -0.7431  0.7559
17917TIP3    H175242   0.088   4.338   5.284 -2.2750  0.9163  0.9198
17917TIP3    H275243   0.053   4.304   5.427 -0.9651  0.4561  1.1528
17918TIP3   OH275244   0.041   6.578  15.422 -0.0366 -0.6042 -0.1289
17918TIP3    H175245   0.110   6.561  15.486  1.3853  1.2515 -1.0251
17918TIP3    H275246   0.062   6.521  15.348  0.1642 -0.5136 -0.1433
17919TIP3   OH275247   1.585   0.265  13.010  0.2611 -0.1995  0.1810
17919TIP3    H175248   1.666   0.219  12.987 -0.0949 -0.5870 -0.3184
17919TIP3    H275249   1.576   0.334  12.945  0.1875 -0.1594  0.2328
17920TIP3   OH275250   2.584   5.313  13.903  0.0756  0.1126  0.7914
17920TIP3    H175251   2.535   5.392  13.881  0.4927  0.7137  1.9618
17920TIP3    H275252   2.671   5.345  13.928  0.7941 -0.8614 -0.3596
17921TIP3   OH275253   1.393   4.270  10.988  0.4172  0.9850  0.0112
17921TIP3    H175254   1.302   4.301  10.980  0.9470  2.2495 -2.0566
17921TIP3    H275255   1.405   4.213  10.912  0.7818 -0.8687  1.4082
17922TIP3   OH275256   2.136   1.089   2.848  0.0394  0.2548 -0.0067
17922TIP3    H175257   2.136   1.082   2.752 -1.7523 -0.4293  0.0077
17922TIP3    H275258   2.056   1.045   2.875  1.9161 -2.2633  2.0197
17923TIP3   OH275259   0.172   4.413  16.306  0.0166 -0.5724  0.4665
17923TIP3    H175260   0.121   4.472  16.362  0.5260 -0.5025  0.8599
17923TIP3    H275261   0.196   4.467  16.230 -0.4123 -0.5804  0.3196
17924TIP3   OH275262   5.711   6.010   3.740 -0.0548 -0.1901  0.0189
17924TIP3    H175263   5.741   6.061   3.665 -0.5288  0.4621  0.2633
17924TIP3    H275264   5.645   5.950   3.704  1.8094 -1.9902 -0.6208
17925TIP3   OH275265   1.267   0.337  11.184 -0.1556 -0.3640  0.5556
17925TIP3    H175266   1.358   0.358  11.163 -0.1716 -1.3357 -0.6768
17925TIP3    H275267   1.215   0.395  11.128 -0.3080  0.3522  1.4267
17926TIP3   OH275268   4.508   1.980   1.445 -0.5846 -0.0089 -0.2107
17926TIP3    H175269   4.434   2.040   1.439 -0.4012  0.1233 -1.3865
17926TIP3    H275270   4.477   1.908   1.500 -0.6374  1.3873  1.6660
17927TIP3   OH275271   4.172   3.207  15.139 -0.1567  0.0433 -0.1988
17927TIP3    H175272   4.095   3.171  15.095  0.9898 -0.6400 -1.7497
17927TIP3    H275273   4.225   3.130  15.161 -0.0683  0.4777  1.1704
17928TIP3   OH275274   5.319   4.031  11.801  0.4571  0.1323 -0.0656
17928TIP3    H175275   5.290   4.043  11.892  1.4307 -0.1035  0.2971
17928TIP3    H275276   5.276   4.100  11.752 -0.4013  0.0144  0.5082
17929TIP3   OH275277   4.314   0.422   1.278  0.1159  0.1218  0.3937
17929TIP3    H175278   4.223   0.445   1.294 -0.6733 -1.8472 -0.9005
17929TIP3    H275279   4.360   0.454   1.356 -1.8389  0.2453  1.5829
17930TIP3   OH275280   4.345   2.823   0.713 -0.8130 -0.9034  0.0939
17930TIP3    H175281   4.260   2.793   0.744 -2.0269 -2.4040 -3.9346
17930TIP3    H275282   4.359   2.774   0.632  2.4410  1.5681 -1.0760
17931TIP3   OH275283   4.629   3.576   1.425 -0.8971  0.3651 -0.3845
17931TIP3    H175284   4.584   3.492   1.435 -0.7540  0.2304 -0.8348
17931TIP3    H275285   4.675   3.589   1.508  0.0432 -0.5752 -0.7378
17932TIP3   OH275286   6.789   4.171   3.279 -0.3936 -0.4380  0.0155
17932TIP3    H175287   6.702   4.136   3.296 -0.9398  1.6275  1.9755
17932TIP3    H275288   6.848   4.114   3.329 -0.6991 -1.3314 -0.6272
17933TIP3   OH275289   2.835   0.343  13.605  0.4026 -0.0471  0.4952
17933TIP3    H175290   2.742   0.322  13.613 -0.3008  2.4030 -0.4100
17933TIP3    H275291   2.859   0.313  13.518 -0.2359  1.5376 -0.2586
17934TIP3   OH275292   0.514   3.880   2.812 -0.0545  1.1040  0.1646
17934TIP3    H175293   0.599   3.900   2.851 -0.7819  2.6581  1.0469
17934TIP3    H275294   0.457   3.951   2.841 -2.0017 -0.5671  0.7199
17935TIP3   OH275295   4.235   6.598   3.585 -0.5259 -0.1372 -0.5337
17935TIP3    H175296   4.294   6.523   3.596 -0.1608 -0.0762 -1.8929
17935TIP3    H275297   4.287   6.673   3.615 -0.9767 -0.4188  1.0627
17936TIP3   OH275298   4.107   2.588  15.328 -0.2510  0.5010  0.9154
17936TIP3    H175299   4.139   2.616  15.414  1.9920  0.1536  0.2620
17936TIP3    H275300   4.082   2.670  15.284  1.3071  0.9864  0.8899
17937TIP3   OH275301   3.056   4.372  14.603 -0.0388  0.5175 -0.6242
17937TIP3    H175302   3.103   4.393  14.683  0.3482  0.5446 -0.8555
17937TIP3    H275303   3.035   4.279  14.610  0.3643  0.4225 -0.6798
17938TIP3   OH275304   4.206   2.836  11.127  0.1478 -0.1501 -0.7002
17938TIP3    H175305   4.151   2.904  11.166 -0.0816 -1.3263  1.1232
17938TIP3    H275306   4.290   2.880  11.111 -1.0745  1.5296 -3.0636
17939TIP3   OH275307   0.848   2.539   2.425 -0.4638 -0.0124  0.1110
17939TIP3    H175308   0.871   2.471   2.361 -0.9694  0.2585 -0.3641
17939TIP3    H275309   0.819   2.490   2.502  1.3604 -0.3601  0.6127
17940TIP3   OH275310   5.401   2.990  15.347  0.2877 -0.0515  0.0273
17940TIP3    H175311   5.468   3.052  15.379 -0.0986  0.4164 -0.0493
17940TIP3    H275312   5.446   2.937  15.282  0.5882  0.2587 -0.0210
17941TIP3   OH275313   1.633   5.005   3.381 -0.7995  0.6291  0.0686
17941TIP3    H175314   1.600   5.081   3.334 -2.4980 -0.2803 -0.3205
17941TIP3    H275315   1.683   5.041   3.455 -0.4417  2.0788 -0.8436
17942TIP3   OH275316   5.417   0.179  11.251  0.2317  0.5413 -0.2598
17942TIP3    H175317   5.374   0.264  11.239  0.6676  1.0142  1.1795
17942TIP3    H275318   5.370   0.139  11.324  1.4230  0.5507  0.5500
17943TIP3   OH275319   2.087   0.077  11.098 -0.0751  0.0978 -0.1480
17943TIP3    H175320   2.162   0.060  11.041 -0.0701 -1.1657  0.1943
17943TIP3    H275321   2.125   0.120  11.174 -0.0305  1.4716 -0.9229
17944TIP3   OH275322   0.262   3.754   0.151 -0.5732 -0.3265  0.0568
17944TIP3    H175323   0.314   3.834   0.150  2.8655 -2.3403 -2.7957
17944TIP3    H275324   0.210   3.759   0.070 -0.8154 -0.7537  0.1849
17945TIP3   OH275325   0.194   0.299  14.341 -0.3495 -0.4701  0.0089
17945TIP3    H175326   0.251   0.233  14.380 -0.2880  1.0107  2.6824
17945TIP3    H275327   0.222   0.304  14.250  2.4049 -1.2484  0.7209
17946TIP3   OH275328   0.165   6.551  14.574 -0.1035  0.4214 -0.2072
17946TIP3    H175329   0.219   6.493  14.628 -1.2490  0.7244  1.3117
17946TIP3    H275330   0.075   6.528  14.596 -0.5939  1.2850 -1.2232
17947TIP3   OH275331   3.219   0.375   3.591 -0.4464 -0.2012 -0.1997
17947TIP3    H175332   3.137   0.363   3.543 -1.1883 -0.6092  1.1068
17947TIP3    H275333   3.217   0.307   3.659  0.2954  0.6986  0.7561
17948TIP3   OH275334   2.251   1.813   3.751 -0.6482 -0.2276  0.3542
17948TIP3    H175335   2.242   1.735   3.696  1.3982  0.2443 -0.7854
17948TIP3    H275336   2.201   1.880   3.705 -0.9550 -0.4280  0.3906
17949TIP3   OH275337   2.353   1.461  13.816  0.2470 -0.2280  0.2485
17949TIP3    H175338   2.361   1.365  13.820  0.6000 -0.1730  1.6105
17949TIP3    H275339   2.282   1.481  13.877  1.5152  0.4940  1.5350
17950TIP3   OH275340   6.309   1.744   0.536  0.3055 -0.0288 -0.4762
17950TIP3    H175341   6.229   1.717   0.581  0.4738  0.2963  0.0185
17950TIP3    H275342   6.354   1.662   0.517  0.4605 -0.1486  0.3703
17951TIP3   OH275343   0.333   3.049  13.372  0.5931  0.1613  0.4136
17951TIP3    H175344   0.276   2.973  13.358  1.9747 -0.7618 -0.3855
17951TIP3    H275345   0.327   3.100  13.291  0.6813  0.2035  0.4328
17952TIP3   OH275346   6.139   1.376  15.795  0.3378 -0.6085 -0.7816
17952TIP3    H175347   6.125   1.301  15.852 -0.5439 -0.1504 -0.3861
17952TIP3    H275348   6.100   1.449  15.841 -0.1390 -0.1734 -1.8461
17953TIP3   OH275349   2.169   3.288  12.313 -0.2550 -0.4128 -0.0719
17953TIP3    H175350   2.221   3.211  12.336 -0.2491 -0.1799  0.7180
17953TIP3    H275351   2.231   3.346  12.269 -0.4082 -1.1139 -1.2835
17954TIP3   OH275352   0.618   1.377   3.826  0.4253  0.0949 -0.1620
17954TIP3    H175353   0.634   1.398   3.918  2.8533  1.1197 -0.7376
17954TIP3    H275354   0.574   1.455   3.791  0.7777  0.2902 -0.1733
17955TIP3   OH275355   4.436   0.882   6.453  0.0618  0.3110  0.1210
17955TIP3    H175356   4.410   0.791   6.472 -1.8292  0.5649 -0.9445
17955TIP3    H275357   4.363   0.917   6.401  0.1988  2.7944  1.4562
17956TIP3   OH275358   3.593   2.237   6.140 -0.1837  0.4856 -0.0654
17956TIP3    H175359   3.513   2.280   6.171 -0.5312 -0.6506  0.7102
17956TIP3    H275360   3.658   2.259   6.206 -0.5874 -0.8542  0.8162
17957TIP3   OH275361   5.815   5.806   2.292  0.4939  0.3767  0.1996
17957TIP3    H175362   5.892   5.830   2.343  0.0739  0.7325  0.6690
17957TIP3    H275363   5.785   5.724   2.330 -0.1909  0.9640  0.9445
17958TIP3   OH275364   3.648   3.969   4.317 -0.1986  0.0811  0.3755
17958TIP3    H175365   3.687   3.917   4.246 -0.4487 -1.8345  1.5652
17958TIP3    H275366   3.689   4.055   4.309  1.8002 -0.8828 -0.4214
17959TIP3   OH275367   1.973   3.713   4.781  0.3322  0.4734  0.2741
17959TIP3    H175368   1.936   3.745   4.864 -1.2401  0.9175 -0.5686
17959TIP3    H275369   1.992   3.621   4.797 -0.4977  0.4104  0.9517
17960TIP3   OH275370   3.118   5.460  14.251 -0.7445 -0.3375 -0.1735
17960TIP3    H175371   3.122   5.372  14.213 -1.7902 -1.2734  1.7514
17960TIP3    H275372   3.200   5.469  14.300 -0.9848 -0.5579  0.2712
17961TIP3   OH275373   0.457   0.291  11.702  0.0596  0.2106 -0.1663
17961TIP3    H175374   0.521   0.235  11.659 -0.7824 -0.9661  0.0729
17961TIP3    H275375   0.501   0.323  11.780  0.6334  0.0955 -0.4398
17962TIP3   OH275376   2.577   4.853   0.491 -0.1388 -0.3844  0.3881
17962TIP3    H175377   2.613   4.766   0.506 -0.5209 -0.7254 -0.5987
17962TIP3    H275378   2.509   4.840   0.425  0.9047  0.9057 -1.0203
17963TIP3   OH275379   3.232   5.874   4.529  0.4170  0.4074  0.6887
17963TIP3    H175380   3.177   5.796   4.531  2.3870 -1.2083 -1.6001
17963TIP3    H275381   3.308   5.852   4.583  1.7405 -0.0375 -1.2098
17964TIP3   OH275382   5.659   6.785  15.914  0.0505  0.4059  0.3604
17964TIP3    H175383   5.714   6.828  15.848 -0.5044 -1.2284 -1.2636
17964TIP3    H275384   5.572   6.781  15.874 -1.1836  2.4041  2.6457
17965TIP3   OH275385   1.682   3.929   0.961 -0.7818 -0.6616  0.0726
17965TIP3    H175386   1.617   3.934   1.032 -0.4112 -2.1602  0.5558
17965TIP3    H275387   1.641   3.975   0.888 -1.9762 -0.7019  0.6879
17966TIP3   OH275388   3.008   4.907   2.042  0.2472 -0.7226 -0.8646
17966TIP3    H175389   3.046   4.873   1.962 -0.5698 -1.0382 -1.1312
17966TIP3    H275390   3.055   4.863   2.113  1.0423 -0.3647 -1.1625
17967TIP3   OH275391   1.691   4.352  12.637 -0.0075 -0.2429  0.4838
17967TIP3    H175392   1.645   4.269  12.632  0.9277 -0.7035 -1.2652
17967TIP3    H275393   1.772   4.338  12.587  1.4301  0.9313  2.3177
17968TIP3   OH275394   5.383   0.131   1.624  0.3549  0.0969  0.2743
17968TIP3    H175395   5.365   0.159   1.534 -0.5162 -2.0344 -0.2632
17968TIP3    H275396   5.476   0.108   1.624  0.7549  1.5614  0.3825
17969TIP3   OH275397   0.002   5.765  13.269 -0.6751  0.2957 -0.2800
17969TIP3    H175398  -0.008   5.780  13.175 -0.9122  0.0641 -0.2925
17969TIP3    H275399  -0.078   5.719  13.296  0.2923 -1.5785 -0.3954
17970TIP3   OH275400   4.068   1.721   1.702 -0.0596 -0.1768 -0.2405
17970TIP3    H175401   4.028   1.689   1.621  0.8531  1.5304 -1.4247
17970TIP3    H275402   3.994   1.740   1.759 -0.7394 -1.1222 -0.7690
17971TIP3   OH275403   5.554   4.789  14.981 -0.3830  0.2264  0.4061
17971TIP3    H175404   5.466   4.819  15.006 -0.4029 -0.4992  1.2606
17971TIP3    H275405   5.607   4.803  15.060 -0.2084 -1.2082  0.5712
17972TIP3   OH275406   4.984   1.188   3.355  0.0439 -0.0180  0.4943
17972TIP3    H175407   5.067   1.176   3.401 -0.5236  0.3833  1.6749
17972TIP3    H275408   4.920   1.202   3.425 -0.7387  1.3574 -0.4426
17973TIP3   OH275409   0.422   3.646  15.811 -1.0349  0.0323  0.0663
17973TIP3    H175410   0.482   3.571  15.815  0.5969  1.2963  0.3265
17973TIP3    H275411   0.384   3.651  15.899 -0.1946  0.2307  0.4337
17974TIP3   OH275412   4.012   5.035  11.429  0.0080 -0.0474  0.4614
17974TIP3    H175413   4.027   4.949  11.469  2.3189  0.3748  0.6560
17974TIP3    H275414   3.947   5.019  11.361  0.2719 -1.9256  0.5845
17975TIP3   OH275415   0.748   4.707   5.598  0.1915  0.3111  0.4001
17975TIP3    H175416   0.718   4.687   5.510 -0.3571 -2.4005  1.1235
17975TIP3    H275417   0.668   4.730   5.646  0.4889  1.7855  0.2466
17976TIP3   OH275418   1.681   4.822  14.078 -0.0978 -0.3243 -0.0428
17976TIP3    H175419   1.745   4.808  14.007  1.2969 -3.0460  1.6006
17976TIP3    H275420   1.607   4.767  14.054  0.0840 -0.7048  0.2657
17977TIP3   OH275421   3.086   6.368   4.227 -0.1412 -0.2284  0.3037
17977TIP3    H175422   3.067   6.415   4.309 -0.9376 -0.1754  0.0934
17977TIP3    H275423   3.000   6.352   4.188  0.2853  0.7631 -1.1045
17978TIP3   OH275424   0.468   3.725   5.866  0.1675 -0.1094 -0.0377
17978TIP3    H175425   0.422   3.793   5.915  0.6413  0.1187  0.1017
17978TIP3    H275426   0.517   3.676   5.933 -0.1221 -0.5473 -0.1442
17979TIP3   OH275427   3.520   0.826  13.253 -0.2028 -0.2168 -0.1583
17979TIP3    H175428   3.519   0.917  13.224 -0.2322  0.2005  1.0965
17979TIP3    H275429   3.611   0.810  13.277 -0.3478 -0.2559  0.3806
17980TIP3   OH275430   6.069   0.089   4.966  0.0646 -0.0488  0.3748
17980TIP3    H175431   6.012   0.165   4.956  0.6816  0.3745  0.0637
17980TIP3    H275432   6.131   0.096   4.894  0.3312 -0.6688  0.5424
17981TIP3   OH275433   0.672   2.167  13.558 -0.5027  0.2510  0.2515
17981TIP3    H175434   0.704   2.252  13.588 -0.8687  0.8425 -0.9673
17981TIP3    H275435   0.638   2.184  13.470  1.8250 -1.6829 -1.1426
17982TIP3   OH275436   5.705   0.237   5.158 -0.4802 -0.2159  0.0352
17982TIP3    H175437   5.618   0.242   5.197  0.7386  0.2117  2.9278
17982TIP3    H275438   5.744   0.159   5.195  1.5440  1.4137  1.5965
17983TIP3   OH275439   6.575   4.402   3.144  0.2741  0.1612 -0.3629
17983TIP3    H175440   6.578   4.332   3.078  1.5904 -1.9471  1.7465
17983TIP3    H275441   6.659   4.447   3.135  0.1443  0.3544 -0.6078
17984TIP3   OH275442   6.185   4.357   1.005  0.1979  0.3789 -0.2578
17984TIP3    H175443   6.153   4.305   1.079  0.7647 -0.2658 -0.4540
17984TIP3    H275444   6.279   4.362   1.018  0.2704  0.4887 -0.7954
17985TIP3   OH275445   0.459   2.937  15.589  0.3787 -0.0933  0.0780
17985TIP3    H175446   0.373   2.976  15.609  0.2056  1.0272 -2.4410
17985TIP3    H275447   0.521   3.006  15.612  0.5266 -0.5085  0.9273
17986TIP3   OH275448   3.824   5.469  13.210 -1.0991 -0.1531 -0.2443
17986TIP3    H175449   3.808   5.531  13.138 -0.5561 -0.5971 -0.7649
17986TIP3    H275450   3.868   5.395  13.168 -0.3247 -0.2089  0.6333
17987TIP3   OH275451   6.072   6.537   4.629 -0.1664  0.2906  0.3146
17987TIP3    H175452   5.997   6.483   4.655 -0.4114  0.2110 -0.5156
17987TIP3    H275453   6.147   6.499   4.676 -0.2814 -0.9606 -0.4788
17988TIP3   OH275454   6.013   4.454  15.898 -0.0133 -0.4872  1.2539
17988TIP3    H175455   5.990   4.463  15.991 -1.0246 -0.2145  0.9879
17988TIP3    H275456   5.934   4.481  15.851  1.0347  1.0755  0.2805
17989TIP3   OH275457   4.265   3.176   3.799 -0.7696  0.3100  0.2259
17989TIP3    H175458   4.321   3.222   3.736 -0.1608  0.5702  0.9463
17989TIP3    H275459   4.193   3.142   3.746  1.7979 -3.1469 -1.4464
17990TIP3   OH275460   4.572   1.537   5.062  0.0213 -0.0716  0.7024
17990TIP3    H175461   4.567   1.624   5.102  1.3452 -0.8341  2.6511
17990TIP3    H275462   4.544   1.477   5.131  0.1183 -1.2778 -0.2730
17991TIP3   OH275463   2.871   3.528   3.438 -0.1455  0.9320 -0.3194
17991TIP3    H175464   2.948   3.545   3.385  0.4134 -0.3690  0.0554
17991TIP3    H275465   2.874   3.435   3.458 -1.1178  1.1040  0.7825
17992TIP3   OH275466   2.348   3.981   4.664  0.5504 -0.2995  0.8056
17992TIP3    H175467   2.255   3.991   4.684  1.0639  1.9751  2.4174
17992TIP3    H275468   2.360   4.029   4.581  0.5939  1.2390  1.6590
17993TIP3   OH275469   2.162   0.456  14.942 -0.3265  0.6061 -0.5877
17993TIP3    H175470   2.089   0.427  14.996 -0.8682 -0.2557 -1.7523
17993TIP3    H275471   2.124   0.474  14.856  0.9302 -0.6863 -1.4698
17994TIP3   OH275472   1.965   3.468  16.963 -0.4044  0.0478 -0.5963
17994TIP3    H175473   1.951   3.529  17.036 -1.5207 -0.7336 -0.1401
17994TIP3    H275474   2.018   3.397  17.001 -0.9416 -0.3329 -0.5529
17995TIP3   OH275475   3.773   3.101   1.022  0.4627 -0.3442 -0.1593
17995TIP3    H175476   3.696   3.047   1.008  1.2299 -1.3515 -0.6659
17995TIP3    H275477   3.759   3.178   0.966 -0.8715  0.2586  0.9628
17996TIP3   OH275478   3.836   6.469  13.185 -0.3301  0.2483  0.0653
17996TIP3    H175479   3.862   6.453  13.095  0.4388  1.6447  0.0132
17996TIP3    H275480   3.918   6.492  13.230 -0.8817  0.8452  0.7980
17997TIP3   OH275481   2.545   2.326  12.564 -0.5491  0.3875  0.1326
17997TIP3    H175482   2.551   2.231  12.559 -0.5385  0.3640  0.5498
17997TIP3    H275483   2.496   2.351  12.486  1.6777  0.2659 -1.3981
17998TIP3   OH275484   0.318   6.341   5.375 -0.6040  0.2453  0.2546
17998TIP3    H175485   0.296   6.282   5.447 -0.4035  0.6206  0.6234
17998TIP3    H275486   0.351   6.283   5.306  0.3037 -0.0190  0.8846
17999TIP3   OH275487   0.272   1.951  15.300 -0.0960 -0.6001  0.3014
17999TIP3    H175488   0.194   1.971  15.249 -0.1755 -2.4019 -0.3446
17999TIP3    H275489   0.241   1.896  15.372  0.3464  0.0720  1.0273
18000TIP3   OH275490   6.749   6.596  15.917  0.0345  0.2320 -0.1282
18000TIP3    H175491   6.784   6.620  16.003  0.1551  0.4382 -0.2343
18000TIP3    H275492   6.760   6.675  15.864 -0.8426  0.3866 -0.0853
18001TIP3   OH275493   6.431   2.289   4.391  0.6811 -0.1961 -0.1009
18001TIP3    H175494   6.414   2.365   4.336  0.9387 -0.2128 -0.2070
18001TIP3    H275495   6.352   2.279   4.444  0.2532 -0.4357 -0.7695
18002TIP3   OH275496   4.888   6.674   3.488  0.0038 -0.4814  0.4420
18002TIP3    H175497   4.810   6.678   3.543 -0.0995 -1.0302  0.3442
18002TIP3    H275498   4.914   6.765   3.476 -1.9211 -0.1134 -1.3913
18003TIP3   OH275499   1.161   4.415   0.240  0.5905 -0.3680  0.0655
18003TIP3    H175500   1.227   4.381   0.301 -0.2047 -2.0341  0.0571
18003TIP3    H275501   1.210   4.471   0.180  1.4549  1.0255  1.9940
18004TIP3   OH275502   0.007   2.289  11.554 -0.1997  0.2687 -0.2914
18004TIP3    H175503  -0.035   2.216  11.509  1.2536  0.3403 -1.8490
18004TIP3    H275504   0.068   2.325  11.490 -0.3918  2.4467  0.6568
18005TIP3   OH275505   5.814   3.076   3.292 -0.2239 -0.3417 -0.6870
18005TIP3    H175506   5.738   3.125   3.324  0.2640 -0.0043 -0.0142
18005TIP3    H275507   5.783   2.985   3.289 -1.1257 -0.0169 -1.9270
18006TIP3   OH275508   4.044   0.878   1.111  0.0662  0.0437  0.3156
18006TIP3    H175509   4.020   0.816   1.043 -1.4349  0.4095  0.4611
18006TIP3    H275510   4.116   0.836   1.158  1.7272  0.1556 -1.9805
18007TIP3   OH275511   6.663   5.827  11.189  0.4133  0.2643  0.3009
18007TIP3    H175512   6.647   5.922  11.193  0.2842  0.3955 -1.9759
18007TIP3    H275513   6.578   5.790  11.165  0.2251 -0.5699  2.1342
18008TIP3   OH275514   4.774   4.836  16.264  0.2496 -0.8340  0.1822
18008TIP3    H175515   4.804   4.745  16.272  1.5463 -0.6974 -2.2243
18008TIP3    H275516   4.827   4.884  16.328  1.0233 -1.4638  0.0237
18009TIP3   OH275517   4.109   6.768   2.651 -0.5875 -0.4422 -0.2643
18009TIP3    H175518   4.103   6.789   2.744  0.4396 -0.2997 -0.2219
18009TIP3    H275519   4.035   6.709   2.635 -1.7683  0.8325  0.2638
18010TIP3   OH275520   4.801   4.516  15.302 -0.2808 -0.0674  0.2862
18010TIP3    H175521   4.888   4.550  15.282  0.3283 -0.6820  1.7558
18010TIP3    H275522   4.771   4.476  15.220  1.2209 -0.7037  0.0266
18011TIP3   OH275523   4.416   0.282  16.055  0.0119  0.0077  0.2309
18011TIP3    H175524   4.480   0.353  16.062 -0.3771  0.2258  1.9198
18011TIP3    H275525   4.331   0.326  16.062 -0.2363 -0.6038  1.1243
18012TIP3   OH275526   0.978   0.353   6.037 -0.5991  0.1574  0.0677
18012TIP3    H175527   0.898   0.402   6.057 -0.6944 -0.5044  1.4243
18012TIP3    H275528   1.041   0.419   6.010 -1.2757  0.8162  0.0610
18013TIP3   OH275529   3.902   4.363  13.339  0.2615  0.0474  0.2418
18013TIP3    H175530   3.911   4.409  13.422 -0.4129  0.8422 -0.1149
18013TIP3    H275531   3.944   4.278  13.354  2.1314  0.9955  0.7092
18014TIP3   OH275532   2.762   4.043  13.301  1.1755 -0.1524  0.4916
18014TIP3    H175533   2.737   4.007  13.386  0.3048 -1.0636 -0.1293
18014TIP3    H275534   2.810   3.972  13.257 -0.0865 -0.4007 -0.5361
18015TIP3   OH275535   6.778   4.629  17.023 -0.7292 -0.2377  0.2037
18015TIP3    H175536   6.854   4.573  17.013  1.9747  2.8768  1.5521
18015TIP3    H275537   6.767   4.671  16.937 -0.4219 -0.1110  0.2268
18016TIP3   OH275538   1.489   5.872  10.577 -0.3204  0.0450  0.3846
18016TIP3    H175539   1.476   5.963  10.551  1.0313  0.2119  0.2109
18016TIP3    H275540   1.584   5.862  10.583 -0.2096 -2.1807 -2.6719
18017TIP3   OH275541   4.743   6.407  10.988 -0.0540  0.1124 -0.4221
18017TIP3    H175542   4.837   6.397  10.975  0.1248  0.6177  0.3903
18017TIP3    H275543   4.719   6.334  11.045  0.2262  1.0564  0.9629
18018TIP3   OH275544   5.854   2.785  13.024  0.5796  0.1734  0.7934
18018TIP3    H175545   5.950   2.785  13.020  0.5502 -0.4037 -1.0427
18018TIP3    H275546   5.830   2.692  13.021 -0.0433  0.3555 -1.2998
18019TIP3   OH275547   2.329   6.160   4.613 -0.2225 -0.4469  0.9884
18019TIP3    H175548   2.416   6.163   4.574 -0.5318  1.3548  0.3766
18019TIP3    H275549   2.295   6.074   4.588  0.9497 -0.7471  0.3238
18020TIP3   OH275550   5.238   6.328  16.270 -0.3806 -0.4896 -0.3107
18020TIP3    H175551   5.171   6.290  16.213 -0.7937  0.7915 -0.6995
18020TIP3    H275552   5.268   6.406  16.224  0.1323 -0.0849  0.6800
18021TIP3   OH275553   3.630   0.812   2.435  0.1626  0.0640  0.5146
18021TIP3    H175554   3.634   0.878   2.504  1.0152  0.5919 -0.0215
18021TIP3    H275555   3.634   0.862   2.354 -0.0524 -0.5975  0.0871
18022TIP3   OH275556   1.372   2.065  13.982 -0.1871 -0.3755  0.1190
18022TIP3    H175557   1.422   2.082  13.903 -0.9058 -0.5112 -0.3785
18022TIP3    H275558   1.326   1.983  13.964  0.4942 -0.9960  1.1058
18023TIP3   OH275559   6.283   2.850  16.761 -0.0496 -0.4878  0.0088
18023TIP3    H175560   6.338   2.927  16.744 -1.2398  1.1098  2.6972
18023TIP3    H275561   6.330   2.801  16.828 -0.2388 -1.0373 -0.2532
18024TIP3   OH275562   6.166   4.504   3.903  0.6971  0.0670 -0.0829
18024TIP3    H175563   6.175   4.589   3.948 -1.5044  1.0068 -1.2718
18024TIP3    H275564   6.115   4.450   3.963  2.0921 -0.4660  0.6713
18025TIP3   OH275565   5.658   2.019   5.649  0.7905 -0.0333  0.2499
18025TIP3    H175566   5.685   2.022   5.741  0.7068 -0.1383  0.2778
18025TIP3    H275567   5.674   2.108   5.617  1.4900 -0.1849  0.1741
18026TIP3   OH275568   2.646   4.595   2.293 -0.5682 -0.1392 -0.3695
18026TIP3    H175569   2.666   4.626   2.381  0.7883 -0.9734 -0.3513
18026TIP3    H275570   2.675   4.665   2.235  0.6075 -0.5059 -0.2400
18027TIP3   OH275571   0.309   6.438   0.119  0.1881  0.0395  0.0409
18027TIP3    H175572   0.331   6.345   0.109  3.1742  0.6811 -0.2247
18027TIP3    H275573   0.340   6.478   0.038 -1.7308  1.2123 -0.1673
18028TIP3   OH275574   2.047   0.419   0.347  0.3167 -0.3776 -0.2709
18028TIP3    H175575   2.002   0.402   0.264 -0.3659  0.3106 -0.0533
18028TIP3    H275576   2.096   0.339   0.363 -1.4686 -1.5121 -0.1213
18029TIP3   OH275577   0.908   3.676  16.732 -0.4683 -0.8350  0.6788
18029TIP3    H175578   0.922   3.714  16.645  0.0218 -0.8601  0.7490
18029TIP3    H275579   0.828   3.718  16.763 -2.1407 -2.6691 -0.8420
18030TIP3   OH275580   2.890   2.068  11.885  0.2008 -0.3356 -0.0320
18030TIP3    H175581   2.894   2.093  11.978 -0.5265 -0.7332  0.1191
18030TIP3    H275582   2.807   2.105  11.854 -1.3311 -3.1092  0.4050
18031TIP3   OH275583   0.376   2.265  16.173  0.0695 -0.0493  0.0601
18031TIP3    H175584   0.308   2.217  16.219  0.1848 -0.7209 -0.4540
18031TIP3    H275585   0.448   2.272  16.236  0.2290 -0.9666 -0.0090
18032TIP3   OH275586   5.675   6.094  15.393  0.4473  0.1153 -0.1903
18032TIP3    H175587   5.615   6.146  15.340 -0.5503  1.1496  1.8328
18032TIP3    H275588   5.703   6.023  15.335 -1.9617  0.1433 -1.5269
18033TIP3   OH275589   5.071   0.239   6.079  0.0211 -0.3493  0.1393
18033TIP3    H175590   5.159   0.221   6.114  0.3479  2.0041  0.7063
18033TIP3    H275591   5.018   0.166   6.111  1.2968 -0.6326  1.7843
18034TIP3   OH275592   0.796   5.925   6.437 -0.4251  0.0800  0.4892
18034TIP3    H175593   0.730   5.871   6.480 -1.0454  2.3086  2.5761
18034TIP3    H275594   0.807   6.000   6.495  3.2266  0.3354 -0.2536
18035TIP3   OH275595   2.364   6.102   4.950  0.2446  0.0476  0.3865
18035TIP3    H175596   2.396   6.169   4.890 -0.3209  1.0179  1.1332
18035TIP3    H275597   2.333   6.150   5.026 -1.4678 -0.9296  0.3872
18036TIP3   OH275598   4.324   3.993   2.433  0.1269 -0.2008  0.0234
18036TIP3    H175599   4.373   4.068   2.467 -0.6930 -0.4203  1.8079
18036TIP3    H275600   4.385   3.951   2.372  1.3279  0.7986  0.4756
18037TIP3   OH275601   0.736   4.299  12.147  0.0559 -0.5584 -0.2354
18037TIP3    H175602   0.719   4.365  12.214  0.6975 -0.7239  0.0998
18037TIP3    H275603   0.798   4.340  12.087 -0.6515 -0.3484 -0.8346
18038TIP3   OH275604   3.864   2.012   2.653 -0.1322 -0.2501  0.7902
18038TIP3    H175605   3.872   2.056   2.568  1.0531  0.7191  1.3718
18038TIP3    H275606   3.799   1.943   2.638 -0.1630  0.0828 -0.8198
18039TIP3   OH275607   5.068   1.265   4.469  0.0228  0.5403 -0.9067
18039TIP3    H175608   5.052   1.255   4.375 -0.9861  2.4753 -0.9948
18039TIP3    H275609   5.080   1.176   4.501  2.7308 -0.0701 -3.2344
18040TIP3   OH275610   4.001   5.032  15.725 -0.1817 -0.2377  0.2063
18040TIP3    H175611   3.907   5.018  15.720 -0.7700  2.5584  1.5029
18040TIP3    H275612   4.026   4.997  15.811 -0.4559  0.7061  0.6936
18041TIP3   OH275613   6.591   1.184  14.669 -0.1623  0.3681  0.0601
18041TIP3    H175614   6.603   1.174  14.763 -0.9004 -0.4271  0.0866
18041TIP3    H275615   6.497   1.202  14.659 -0.1259  0.2509 -0.5291
18042TIP3   OH275616   2.445   2.371   0.824 -0.0569  0.1598 -0.0724
18042TIP3    H175617   2.395   2.390   0.745 -0.5980  0.0346  0.2392
18042TIP3    H275618   2.506   2.302   0.797 -1.2131 -0.9121 -0.0240
18043TIP3   OH275619   2.655   4.894   5.635 -0.3503 -0.0163  0.1986
18043TIP3    H175620   2.575   4.914   5.587 -1.0616 -0.9605  0.9462
18043TIP3    H275621   2.628   4.831   5.702  1.0435 -0.4661  0.3758
18044TIP3   OH275622   6.469   6.098   3.815  0.2730  0.0858  0.1068
18044TIP3    H175623   6.486   6.027   3.755  1.2247 -1.9702  2.6220
18044TIP3    H275624   6.549   6.152   3.813  0.8589 -0.7503  0.4969
18045TIP3   OH275625   1.810   1.492   2.400 -0.6765 -0.9089 -0.1881
18045TIP3    H175626   1.738   1.525   2.346 -1.9545 -0.7988  1.4978
18045TIP3    H275627   1.839   1.412   2.355 -0.6103  0.0107 -1.8560
18046TIP3   OH275628   5.681   0.110  17.165  0.1357 -0.3964 -0.5223
18046TIP3    H175629   5.657   0.051  17.237 -1.5645  0.9749  0.1226
18046TIP3    H275630   5.750   0.165  17.202  0.3663 -0.7145 -0.4736
18047TIP3   OH275631   1.390   1.174   1.666  0.2903 -0.1385 -0.1330
18047TIP3    H175632   1.358   1.216   1.746  1.9368  0.2117  0.3799
18047TIP3    H275633   1.400   1.082   1.689 -0.6565 -0.3264 -0.4146
18048TIP3   OH275634   3.822   5.371  15.028 -0.6329 -0.9855 -0.3360
18048TIP3    H175635   3.884   5.341  14.961 -1.8607 -2.3591 -0.8921
18048TIP3    H275636   3.817   5.299  15.091 -0.6267 -0.3122  0.4600
18049TIP3   OH275637   3.463   3.380  14.599  0.1733  0.4926  0.2856
18049TIP3    H175638   3.513   3.299  14.615 -0.6756 -0.9112 -3.2065
18049TIP3    H275639   3.525   3.438  14.555 -0.0864  0.4002 -0.2163
18050TIP3   OH275640   3.911   1.416  13.564 -0.1184  0.0339 -0.0152
18050TIP3    H175641   4.007   1.420  13.569 -0.2020  0.7556  1.7504
18050TIP3    H275642   3.893   1.353  13.494  1.6308  0.9637 -1.3873
18051TIP3   OH275643   2.092   6.338  11.232 -0.3092  0.4673 -0.2252
18051TIP3    H175644   2.031   6.395  11.185 -0.3091 -0.8133 -1.8431
18051TIP3    H275645   2.178   6.360  11.198 -0.3464 -0.7224 -1.1593
18052TIP3   OH275646   1.058   1.543  13.745 -0.0957  0.6824  0.4736
18052TIP3    H175647   1.129   1.490  13.709  1.1037  0.8191  2.4766
18052TIP3    H275648   0.979   1.509  13.704  0.8257 -1.5047  0.4002
18053TIP3   OH275649   1.359   1.781  13.957  0.4408  0.0997  0.9828
18053TIP3    H175650   1.277   1.733  13.969 -0.5509  1.5360  0.2555
18053TIP3    H275651   1.425   1.729  14.003 -1.5165  0.8300  5.1188
18054TIP3   OH275652   6.398   4.875   0.074 -0.0628 -0.2183  0.5093
18054TIP3    H175653   6.400   4.916   0.160  0.2516 -1.7782  1.3000
18054TIP3    H275654   6.465   4.806   0.080 -0.6197 -0.8860 -0.6865
18055TIP3   OH275655   6.594   4.062  15.626  0.1507  0.1325 -0.3392
18055TIP3    H175656   6.653   4.082  15.554  0.9631 -1.0956 -0.0609
18055TIP3    H275657   6.506   4.077  15.591  0.5850  1.1167 -1.0524
18056TIP3   OH275658   0.871   4.231   5.017 -0.1490 -0.2450  0.2162
18056TIP3    H175659   0.867   4.326   5.029  1.2985  0.0454 -1.2776
18056TIP3    H275660   0.873   4.195   5.106 -0.4585  1.1259  0.7914
18057TIP3   OH275661   3.192   4.292   4.312 -0.3131 -0.2703 -0.4168
18057TIP3    H175662   3.184   4.238   4.234 -0.1356  0.4412 -0.9330
18057TIP3    H275663   3.140   4.369   4.293  1.2987  0.8099 -0.6436
18058TIP3   OH275664   2.004   1.284   4.330 -0.2411 -0.3453 -0.1027
18058TIP3    H175665   1.994   1.225   4.255  0.1449 -1.4025  0.6508
18058TIP3    H275666   2.056   1.233   4.393 -2.3257 -0.3180  1.7548
18059TIP3   OH275667   6.576   0.424   5.763  0.6541  0.4374  0.3315
18059TIP3    H175668   6.524   0.431   5.842  1.2574  3.1792  0.5777
18059TIP3    H275669   6.512   0.428   5.692  0.2557 -0.1433  0.6514
18060TIP3   OH275670   6.527   6.393  16.419 -0.3935 -0.7764  0.4289
18060TIP3    H175671   6.556   6.365  16.505 -2.4251 -1.8468  0.8304
18060TIP3    H275672   6.526   6.313  16.367  2.0494  0.0464 -1.0522
18061TIP3   OH275673   6.493   6.354   0.584  0.2145 -0.2053 -0.0225
18061TIP3    H175674   6.482   6.436   0.536  1.1200 -0.2387 -0.3042
18061TIP3    H275675   6.410   6.308   0.571 -0.1722  0.5103 -0.1521
18062TIP3   OH275676   2.439   0.776  16.596 -0.2101 -0.2527 -0.0356
18062TIP3    H175677   2.457   0.864  16.630 -2.6658  0.1974  0.2515
18062TIP3    H275678   2.358   0.785  16.547  1.4332 -1.6109 -3.2987
18063TIP3   OH275679   0.768   6.265   4.688  0.1173 -0.0071 -0.3565
18063TIP3    H175680   0.735   6.346   4.725  2.0749  0.9436 -0.5505
18063TIP3    H275681   0.795   6.213   4.763  1.7283  0.8579 -0.2932
18064TIP3   OH275682   6.178   5.545   4.425 -0.0083 -0.2163  0.3304
18064TIP3    H175683   6.189   5.611   4.357  2.4011 -3.0489 -2.3543
18064TIP3    H275684   6.089   5.557   4.456 -0.5080  2.6182 -1.8056
18065TIP3   OH275685   5.515   2.777  11.777  0.0972 -0.0630 -0.4667
18065TIP3    H175686   5.461   2.732  11.842  0.2159  0.3173 -0.1004
18065TIP3    H275687   5.452   2.825  11.724 -0.0203 -0.5610 -0.7874
18066TIP3   OH275688   0.305   1.453  11.281  0.5974 -0.0779 -0.1512
18066TIP3    H175689   0.321   1.361  11.262 -1.3548 -0.3447 -0.7304
18066TIP3    H275690   0.372   1.476  11.345  1.1964 -1.8556 -0.0759
18067TIP3   OH275691   3.133   6.022  15.938  0.9227 -0.1299 -0.0968
18067TIP3    H175692   3.135   6.117  15.924  1.4653  0.3582  2.7027
18067TIP3    H275693   3.210   6.004  15.992 -1.0219 -1.5656  2.4006
18068TIP3   OH275694   2.338   5.908   4.477 -0.0010  0.3709 -0.5127
18068TIP3    H175695   2.417   5.868   4.441 -0.5428 -0.6521 -0.6089
18068TIP3    H275696   2.274   5.904   4.406 -0.4853  0.1220 -0.0756
18069TIP3   OH275697   3.767   0.056   4.703 -0.4501  0.1094 -0.2049
18069TIP3    H175698   3.812   0.119   4.647 -0.6010  1.0419  0.6952
18069TIP3    H275699   3.677   0.054   4.670 -0.3671  0.1299 -0.4329
18070TIP3   OH275700   2.567   0.667   2.758  0.3611  0.7853  0.0489
18070TIP3    H175701   2.503   0.732   2.730  0.4650  1.1679  0.6682
18070TIP3    H275702   2.570   0.676   2.854  2.4170  1.8033 -0.0591
18071TIP3   OH275703   2.388   0.265  16.163  0.2501  0.3781  0.3060
18071TIP3    H175704   2.433   0.282  16.246  0.5496  0.8531  0.0507
18071TIP3    H275705   2.451   0.293  16.096  0.4879 -1.0660 -0.1265
18072TIP3   OH275706   0.521   5.457  10.589 -0.0234  0.1912  0.1565
18072TIP3    H175707   0.500   5.542  10.627  0.6142  0.5115 -0.2007
18072TIP3    H275708   0.569   5.477  10.509  1.3307 -0.5181  0.7515
18073TIP3   OH275709   2.657   1.390   4.657 -0.2131  0.4447 -0.2260
18073TIP3    H175710   2.600   1.434   4.719 -1.6017 -0.0181 -1.1375
18073TIP3    H275711   2.659   1.299   4.685 -0.8760  0.2269 -0.8731
18074TIP3   OH275712   4.163   0.078  13.340 -0.1911 -0.3934 -0.5773
18074TIP3    H175713   4.199   0.069  13.429  0.1865 -1.0650 -0.7926
18074TIP3    H275714   4.226   0.134  13.294  0.3075 -1.1319 -0.8007
18075TIP3   OH275715   2.801   0.880   4.028 -0.4231 -0.0369 -0.9181
18075TIP3    H175716   2.822   0.860   4.119 -1.1858 -0.8339 -0.9110
18075TIP3    H275717   2.755   0.803   3.996  0.1105  0.1021 -2.0769
18076TIP3   OH275718   6.425   1.528  16.704  0.1005 -0.3161  0.1384
18076TIP3    H175719   6.333   1.528  16.733  0.3739 -0.3756  1.0511
18076TIP3    H275720   6.432   1.451  16.647 -0.6940  0.3533 -0.9000
18077TIP3   OH275721   6.817   5.996  16.599 -0.1616 -0.2419 -0.0164
18077TIP3    H175722   6.722   6.002  16.611 -0.1785  0.9042 -0.5195
18077TIP3    H275723   6.831   6.017  16.507  0.6427  0.6959  0.2919
18078TIP3   OH275724   3.420   3.041  12.055  0.1024 -0.0623  0.3997
18078TIP3    H175725   3.440   3.131  12.029  2.2962 -0.6197 -0.0686
18078TIP3    H275726   3.447   3.036  12.147  0.5010 -0.3688  0.2697
18079TIP3   OH275727   5.155   6.160  16.641 -0.2456  0.0615 -0.1894
18079TIP3    H175728   5.067   6.123  16.646  0.0975 -1.1819 -2.3301
18079TIP3    H275729   5.148   6.231  16.577  0.2747  0.0129 -0.3056
18080TIP3   OH275730   1.635   5.526  16.664  0.1024 -0.3937 -0.5208
18080TIP3    H175731   1.689   5.549  16.739 -2.0319 -0.7376  1.2127
18080TIP3    H275732   1.697   5.519  16.591  1.9558  2.1460  0.6831
18081TIP3   OH275733   1.640   4.168   5.802  0.0564 -0.3417  0.4210
18081TIP3    H175734   1.613   4.249   5.758  1.0111  1.5531  3.0496
18081TIP3    H275735   1.558   4.131   5.834 -0.2733  0.4013  0.4723
18082TIP3   OH275736   2.833   2.839   6.200 -0.0920 -0.2499  0.0886
18082TIP3    H175737   2.782   2.896   6.258  1.8143 -0.5020  2.1592
18082TIP3    H275738   2.848   2.759   6.252 -0.7327 -1.7025 -1.8706
18083TIP3   OH275739   0.508   1.335  14.220  0.2821  0.1597  0.1812
18083TIP3    H175740   0.466   1.259  14.261 -0.8947  1.2003  0.9823
18083TIP3    H275741   0.460   1.410  14.255  2.1327  1.3525  0.2541
18084TIP3   OH275742   5.498   2.744  16.376 -0.2900  0.5895  0.2934
18084TIP3    H175743   5.510   2.793  16.295  0.6559 -0.3811 -0.1820
18084TIP3    H275744   5.423   2.688  16.360  0.5884 -0.4448 -0.3739
18085TIP3   OH275745   6.160   3.273   3.044 -0.5846 -0.0718  0.3254
18085TIP3    H175746   6.251   3.249   3.026 -0.8406 -1.5692  0.9737
18085TIP3    H275747   6.166   3.363   3.078  0.6638 -0.2073  0.5177
18086TIP3   OH275748   3.882   0.116   1.353 -0.1666  0.7361 -0.7055
18086TIP3    H175749   3.903   0.027   1.382 -1.7694  0.0493 -1.5723
18086TIP3    H275750   3.859   0.163   1.434  0.0651  0.1973 -0.3236
18087TIP3   OH275751   1.706   3.190  14.665  0.0160 -0.0891 -0.2145
18087TIP3    H175752   1.751   3.197  14.749  0.1028 -0.6062 -0.2090
18087TIP3    H275753   1.695   3.280  14.635  0.8598  0.0587 -0.1125
18088TIP3   OH275754   6.016   0.800  14.994  0.2984 -0.4590  0.0934
18088TIP3    H175755   6.038   0.893  14.996  0.4611 -0.4760 -0.6252
18088TIP3    H275756   6.096   0.757  14.961 -0.1319 -0.7333 -0.6085
18089TIP3   OH275757   5.237   4.489  11.376 -0.1660  0.0598  0.2442
18089TIP3    H175758   5.315   4.469  11.323 -0.0807  0.1598  0.3312
18089TIP3    H275759   5.167   4.438  11.336 -0.0395 -0.0872  0.2081
18090TIP3   OH275760   3.467   3.624  13.811  0.1348 -0.0076  0.3381
18090TIP3    H175761   3.475   3.540  13.856 -2.5086 -1.2590 -1.2746
18090TIP3    H275762   3.373   3.643  13.812  0.5185  2.2324 -0.5648
18091TIP3   OH275763   0.061   5.083  13.780  0.2106 -0.0121 -0.3454
18091TIP3    H175764   0.130   5.057  13.720 -0.4878 -1.8746 -0.3990
18091TIP3    H275765   0.003   5.007  13.785  0.1820  0.0626  2.5934
18092TIP3   OH275766   4.709   3.516  13.511  0.5355  0.2303  0.1682
18092TIP3    H175767   4.652   3.589  13.487  1.4849  0.7082 -0.6863
18092TIP3    H275768   4.660   3.469  13.578 -0.0413  1.7377  0.8552
18093TIP3   OH275769   5.887   1.744   0.198 -0.2903  0.6512 -0.0467
18093TIP3    H175770   5.937   1.733   0.116  0.6878 -0.4364  0.6579
18093TIP3    H275771   5.948   1.716   0.267 -1.0596  1.6605  1.0748
18094TIP3   OH275772   6.164   1.526  13.985  0.2168  0.2711 -0.1699
18094TIP3    H175773   6.184   1.446  13.938 -0.4203 -0.3214  0.5333
18094TIP3    H275774   6.237   1.538  14.046 -0.2033 -0.3998  0.4944
18095TIP3   OH275775   4.546   0.222   5.825 -0.0145 -0.4067 -0.1573
18095TIP3    H175776   4.630   0.236   5.869  0.8336  0.8363 -2.0144
18095TIP3    H275777   4.494   0.299   5.846 -0.3006 -0.6709  0.1198
18096TIP3   OH275778   4.667   6.446  14.108 -0.4116 -0.3029 -0.0377
18096TIP3    H175779   4.574   6.444  14.084 -0.1720 -1.8959 -0.9457
18096TIP3    H275780   4.672   6.513  14.176 -1.9927  0.7558 -0.8949
18097TIP3   OH275781   4.163   1.428  11.191 -0.4339 -0.2252  0.0941
18097TIP3    H175782   4.098   1.489  11.226 -1.3038 -0.4701 -1.0237
18097TIP3    H275783   4.158   1.441  11.096  0.3263 -1.0789 -0.0693
18098TIP3   OH275784   2.919   1.120   0.426  0.8266  0.1356  0.4067
18098TIP3    H175785   2.965   1.203   0.421  1.2563 -0.0941  0.5265
18098TIP3    H275786   2.934   1.078   0.341  1.5941 -0.3294  0.7593
18099TIP3   OH275787   3.872   0.628  17.198  0.1418  0.2807 -0.2666
18099TIP3    H175788   3.809   0.590  17.258  0.1891 -1.3566 -1.1924
18099TIP3    H275789   3.835   0.713  17.175 -0.5033  0.3786  1.0605
18100TIP3   OH275790   6.129   6.530   0.533  0.6341 -0.5272  0.2339
18100TIP3    H175791   6.113   6.518   0.627  1.3294  0.7083  0.5317
18100TIP3    H275792   6.077   6.461   0.491 -0.2091 -0.6902  1.4827
18101TIP3   OH275793   2.583   6.478   4.145 -0.2727  0.3053  0.4805
18101TIP3    H175794   2.572   6.405   4.206  2.1045 -1.2668 -0.7916
18101TIP3    H275795   2.551   6.444   4.061 -0.1670  1.1226  0.0980
18102TIP3   OH275796   1.467   5.063  13.955 -0.3483  0.1182  0.2692
18102TIP3    H175797   1.509   4.984  13.988 -1.2351 -0.3180  0.3771
18102TIP3    H275798   1.482   5.062  13.861  0.3687  0.2692  0.3745
18103TIP3   OH275799   3.113   0.471   2.928 -0.4290 -0.2299 -0.0338
18103TIP3    H175800   3.056   0.506   2.997  0.6394  1.2582  0.1489
18103TIP3    H275801   3.057   0.413   2.877 -2.1426  1.2468  0.0842
18104TIP3   OH275802   0.881   2.302   3.196 -0.3441  0.7934  0.1674
18104TIP3    H175803   0.918   2.325   3.111 -0.8277  1.3545  0.1016
18104TIP3    H275804   0.953   2.315   3.258 -0.1695  0.9929 -0.0744
18105TIP3   OH275805   0.423   3.671  14.085 -0.1534 -0.4894  0.4662
18105TIP3    H175806   0.375   3.751  14.062 -0.7329  0.1613  3.5343
18105TIP3    H275807   0.499   3.702  14.133  0.2144 -1.7444  0.7182
18106TIP3   OH275808   3.380   0.985   5.071  0.1497 -0.2968  0.3849
18106TIP3    H175809   3.301   0.935   5.091 -0.0148 -0.0551  0.3506
18106TIP3    H275810   3.348   1.061   5.023  0.3862 -0.1151  0.5124
18107TIP3   OH275811   2.032   0.128   5.174  0.2408  0.1194  0.1872
18107TIP3    H175812   1.972   0.181   5.122 -0.1870 -1.8385 -1.4639
18107TIP3    H275813   1.988   0.117   5.258 -1.0771 -0.1234 -0.5126
18108TIP3   OH275814   4.019   5.009  14.809 -0.3813  0.5341  0.1880
18108TIP3    H175815   4.027   5.006  14.714 -0.0280  2.1974  0.1283
18108TIP3    H275816   4.056   4.926  14.839 -0.1634  0.1459 -1.1054
18109TIP3   OH275817   0.453   2.275  16.691 -0.1416 -0.0914  0.6401
18109TIP3    H175818   0.446   2.226  16.773  4.1739 -3.4801 -0.6231
18109TIP3    H275819   0.427   2.214  16.623 -0.4387  1.5214 -0.7686
18110TIP3   OH275820   0.919   5.310   2.455  0.5396  0.1628  0.3628
18110TIP3    H175821   0.943   5.282   2.543 -0.2864 -1.0022  0.2336
18110TIP3    H275822   0.995   5.360   2.425  1.4194 -0.6202  1.2051
18111TIP3   OH275823   0.739   5.823   2.341  0.0646  0.9005 -0.3092
18111TIP3    H175824   0.790   5.873   2.277  1.5703  1.0015  0.8972
18111TIP3    H275825   0.717   5.888   2.409 -0.6752  0.5895 -0.2417
18112TIP3   OH275826   4.437   0.980  14.836  0.1687  0.4563  0.5440
18112TIP3    H175827   4.432   0.974  14.741  0.4053 -0.3274  0.5808
18112TIP3    H275828   4.348   0.963  14.867  0.1935  0.2173  0.4851
18113TIP3   OH275829   5.865   2.401  12.193 -0.5296 -0.4607 -0.4387
18113TIP3    H175830   5.957   2.377  12.196 -0.4616 -0.1896 -0.2503
18113TIP3    H275831   5.855   2.451  12.112 -0.8459 -1.7938 -1.2455
18114TIP3   OH275832   5.162   5.084  12.571 -0.3425 -0.8217 -0.3230
18114TIP3    H175833   5.078   5.119  12.540  0.4589  1.0754 -0.4733
18114TIP3    H275834   5.138   5.021  12.639 -1.8864 -0.4773 -0.5099
18115TIP3   OH275835   0.945   4.367   1.140 -0.1769 -0.6443 -0.5010
18115TIP3    H175836   0.873   4.331   1.192 -1.6713 -0.2213 -2.1925
18115TIP3    H275837   0.903   4.430   1.082  1.6207 -0.1866 -1.3586
18116TIP3   OH275838   2.259   2.398   5.472  0.3348 -0.2592  0.3546
18116TIP3    H175839   2.353   2.410   5.481  0.8802 -1.1244 -3.0498
18116TIP3    H275840   2.224   2.485   5.456  0.5851 -0.0037  1.1492
18117TIP3   OH275841   0.447   1.094  14.336  0.7035  0.3586 -0.3177
18117TIP3    H175842   0.411   1.133  14.416  1.8628  2.1195 -0.6151
18117TIP3    H275843   0.537   1.071  14.359  1.2501  1.4622 -1.2680
18118TIP3   OH275844   5.020   4.024  15.695  0.2783 -0.0601 -0.0344
18118TIP3    H175845   5.000   3.932  15.713 -1.0033  0.0775 -0.6232
18118TIP3    H275846   4.996   4.036  15.603  0.6210  0.8142 -0.0177
18119TIP3   OH275847   4.219   0.147   0.125  0.0661 -0.3128  0.3032
18119TIP3    H175848   4.288   0.189   0.175  0.9678 -2.5438  1.0605
18119TIP3    H275849   4.138   0.185   0.158  0.8462  1.2081  0.5148
18120TIP3   OH275850   3.020   6.544  10.736 -0.2625 -0.7447  0.5213
18120TIP3    H175851   3.010   6.636  10.760  1.1412 -0.4426  0.0098
18120TIP3    H275852   3.114   6.528  10.739 -0.4806 -2.1515  0.5235
18121TIP3   OH275853   6.494   5.318   3.258  0.2214 -0.3109  0.1996
18121TIP3    H175854   6.437   5.394   3.245  0.3826 -0.1853  0.2263
18121TIP3    H275855   6.435   5.248   3.286  0.1092 -0.1272  0.4193
18122TIP3   OH275856   0.073   1.691   4.782 -0.3506  0.1862  0.3598
18122TIP3    H175857   0.051   1.600   4.803  0.9488 -0.0802  0.7075
18122TIP3    H275858   0.127   1.685   4.703  0.3625  0.5789  0.8083
18123TIP3   OH275859   6.226   5.214  14.524 -0.4757  0.6137 -0.2489
18123TIP3    H175860   6.224   5.226  14.429 -1.8065 -0.2559 -0.3601
18123TIP3    H275861   6.219   5.303  14.560  3.4810  1.3397 -0.8719
18124TIP3   OH275862   5.152   5.747   2.571  0.1287  0.1234 -0.1127
18124TIP3    H175863   5.114   5.693   2.503 -1.6239 -0.6422  1.3979
18124TIP3    H275864   5.122   5.836   2.552 -1.7747 -0.3372  0.5479
18125TIP3   OH275865   0.432   1.962   3.987  0.0987  0.0620  0.2863
18125TIP3    H175866   0.395   2.030   3.930  0.0414  0.7707  1.1479
18125TIP3    H275867   0.371   1.889   3.979 -0.9644  0.8418  0.8921
18126TIP3   OH275868   0.215   3.902   1.075 -0.2817  0.7047 -0.2006
18126TIP3    H175869   0.120   3.900   1.069 -0.3154 -0.3935  0.3260
18126TIP3    H275870   0.245   3.882   0.986 -0.5761 -0.3752 -0.0749
18127TIP3   OH275871   5.074   6.570   0.375  0.4569  0.3699 -0.3699
18127TIP3    H175872   4.997   6.515   0.387  1.4914 -0.9064  0.6117
18127TIP3    H275873   5.119   6.568   0.459  1.9931  0.4119 -1.1544
18128TIP3   OH275874   0.569   0.683  14.257  0.0506 -0.0620 -0.2920
18128TIP3    H175875   0.597   0.763  14.213  0.4526  0.8813  1.5907
18128TIP3    H275876   0.528   0.631  14.188  1.7140  0.7985 -2.0151
18129TIP3   OH275877   1.914   1.935   2.123  0.2754  0.6686  0.2292
18129TIP3    H175878   1.947   1.850   2.151  0.8071  1.1935  1.2659
18129TIP3    H275879   1.985   1.996   2.142 -0.2586  1.4040 -0.0896
18130TIP3   OH275880   2.164   6.382  12.629 -0.0299  0.3025 -0.5038
18130TIP3    H175881   2.220   6.459  12.635  1.4939 -0.7595 -0.3928
18130TIP3    H275882   2.215   6.312  12.670 -0.6994 -1.1189 -1.9615
18131TIP3   OH275883   3.959   5.837   5.796 -0.2409 -0.0735  0.1969
18131TIP3    H175884   4.049   5.805   5.803 -0.5727 -1.0662  0.0931
18131TIP3    H275885   3.922   5.823   5.883 -0.5661 -0.5600 -0.0105
18132TIP3   OH275886   5.345   2.196  13.656 -0.0875  0.3185 -0.0063
18132TIP3    H175887   5.426   2.246  13.664  0.9566 -1.1117 -1.1880
18132TIP3    H275888   5.339   2.146  13.737 -1.1376  2.2439  1.1884
18133TIP3   OH275889   6.795   3.723   5.087 -0.0026  0.4862 -0.6305
18133TIP3    H175890   6.841   3.663   5.146  1.0299  2.2639  0.4458
18133TIP3    H275891   6.759   3.666   5.019  0.8076 -1.3616  0.4115
18134TIP3   OH275892   6.389   2.156   5.744  0.2349  0.3569  0.0109
18134TIP3    H175893   6.359   2.124   5.830 -0.1860 -1.4577 -0.7748
18134TIP3    H275894   6.359   2.247   5.742 -1.3472 -0.0751  1.0780
18135TIP3   OH275895   5.432   0.288  17.122 -0.0626 -0.2939  0.2057
18135TIP3    H175896   5.391   0.202  17.108 -0.3256 -0.0335 -0.6393
18135TIP3    H275897   5.360   0.350  17.115  0.1417  0.0148  0.7491
18136TIP3   OH275898   1.109   4.609  14.448 -0.6141 -0.0368 -0.3165
18136TIP3    H175899   1.033   4.649  14.406 -0.5026  0.6111  0.0916
18136TIP3    H275900   1.184   4.645  14.399 -0.5566 -0.4395 -0.5249
18137TIP3   OH275901   0.786   4.921  16.347  0.2353 -0.0806 -0.5461
18137TIP3    H175902   0.880   4.921  16.326  0.8458 -0.2903  1.8712
18137TIP3    H275903   0.744   4.884  16.269  2.2998 -1.3358 -1.1448
18138TIP3   OH275904   5.769   4.143   5.051 -0.0030  0.5872  0.5528
18138TIP3    H175905   5.715   4.210   5.009  1.2920  1.7810  0.7315
18138TIP3    H275906   5.771   4.168   5.144  1.6719  1.1820  0.3905
18139TIP3   OH275907   0.719   2.625  12.471  0.0098  0.2005  0.2114
18139TIP3    H175908   0.742   2.707  12.516 -0.4864  0.3763  0.1533
18139TIP3    H275909   0.623   2.628  12.464 -0.1052 -0.8963  1.1781
18140TIP3   OH275910   6.741   4.650   6.177 -0.5641 -0.0346  0.1923
18140TIP3    H175911   6.784   4.610   6.253 -2.0323 -0.6588  0.7180
18140TIP3    H275912   6.737   4.743   6.197 -0.8150 -0.1787  0.8157
18141TIP3   OH275913   2.288   4.617   0.433 -0.2194 -0.0436  0.1258
18141TIP3    H175914   2.341   4.599   0.510 -1.5438  0.4309  1.1945
18141TIP3    H275915   2.314   4.704   0.404  0.2516 -0.2079  0.0486
18142TIP3   OH275916   6.494   3.260   5.995 -0.4529 -0.6090 -0.0214
18142TIP3    H175917   6.439   3.337   6.006 -0.1887 -0.2375 -1.1694
18142TIP3    H275918   6.557   3.266   6.067  0.4046  1.0008 -0.8425
18143TIP3   OH275919   6.586   0.319   4.213  0.6629 -0.0915  0.3076
18143TIP3    H175920   6.511   0.378   4.222  1.5436  0.8984  1.6443
18143TIP3    H275921   6.574   0.255   4.283 -0.2990 -1.5834 -1.1494
18144TIP3   OH275922   4.158   3.149  12.170 -0.0533  0.0312 -0.1575
18144TIP3    H175923   4.199   3.125  12.087  0.4622  0.9226 -0.1794
18144TIP3    H275924   4.075   3.102  12.171  0.8906 -1.7244 -0.1674
18145TIP3   OH275925   2.206   3.015  11.853  0.2191 -0.3258  0.5084
18145TIP3    H175926   2.262   3.090  11.834 -0.6526 -0.1456 -1.6747
18145TIP3    H275927   2.252   2.940  11.813  0.2657 -0.6826  1.2107
18146TIP3   OH275928   0.159   2.381  16.914  0.1233 -0.1689 -0.3143
18146TIP3    H175929   0.143   2.475  16.912 -0.9662 -0.3477 -2.4504
18146TIP3    H275930   0.232   2.370  16.976  0.8085  2.1482 -0.6286
18147TIP3   OH275931   5.210   4.832   1.247 -0.0332  0.2765  0.8508
18147TIP3    H175932   5.143   4.847   1.314 -0.8652  0.9569 -0.0933
18147TIP3    H275933   5.253   4.750   1.273 -2.2917 -1.0524  0.6495
18148TIP3   OH275934   6.732   1.893  15.111  0.3400 -0.0157  0.1433
18148TIP3    H175935   6.663   1.957  15.090 -1.2490 -1.0872  1.8034
18148TIP3    H275936   6.805   1.946  15.143 -1.4415  1.0002  2.8741
18149TIP3   OH275937   4.498   0.280   2.402 -0.2018 -0.7525  0.4281
18149TIP3    H175938   4.507   0.253   2.494  0.8887 -0.7195  0.3455
18149TIP3    H275939   4.465   0.202   2.358  1.6127 -1.5893  0.4365
18150TIP3   OH275940   2.546   6.553   5.214 -0.4939 -0.2875  0.1298
18150TIP3    H175941   2.597   6.516   5.286  0.3603  0.0541 -0.2779
18150TIP3    H275942   2.534   6.645   5.238 -0.8311 -0.3438  0.1762
18151TIP3   OH275943   4.146   1.460   1.773 -0.7301  0.1782  0.0099
18151TIP3    H175944   4.164   1.551   1.747 -2.4224  0.5111 -0.1377
18151TIP3    H275945   4.101   1.422   1.698  1.9481 -1.5654 -0.8696
18152TIP3   OH275946   1.671   1.285   5.805 -0.2568 -0.0195 -0.9759
18152TIP3    H175947   1.687   1.320   5.893  2.4561 -0.4253 -1.2256
18152TIP3    H275948   1.697   1.356   5.746 -2.7808  0.5409 -1.5632
18153TIP3   OH275949   5.347   4.474  13.522  0.2824 -0.3365  0.2512
18153TIP3    H175950   5.346   4.570  13.524  2.6983 -0.1876 -1.2659
18153TIP3    H275951   5.300   4.451  13.442  1.0325 -0.2879 -0.2215
18154TIP3   OH275952   2.953   1.145  15.597 -0.5251  0.7985  0.1638
18154TIP3    H175953   2.953   1.241  15.590  0.4197  0.9195  1.4588
18154TIP3    H275954   3.031   1.118  15.548  0.9446  0.9661  2.2720
18155TIP3   OH275955   6.234   1.034  16.425  0.0895 -0.0136 -0.1251
18155TIP3    H175956   6.175   1.103  16.394 -1.2062 -1.6596 -1.4963
18155TIP3    H275957   6.198   1.007  16.509 -0.1348  0.1249 -0.1771
18156TIP3   OH275958   3.067   1.958  11.636  0.1472 -0.6254  0.1109
18156TIP3    H175959   3.027   1.979  11.720  0.8763 -2.1355  0.8777
18156TIP3    H275960   3.004   1.989  11.571  0.2017  1.9104  1.1196
18157TIP3   OH275961   0.408   1.159  12.720 -0.3453 -0.0484  0.0816
18157TIP3    H175962   0.444   1.211  12.648  2.1774 -0.3139  1.0542
18157TIP3    H275963   0.372   1.224  12.780  0.8327  0.4717  0.2623
18158TIP3   OH275964   2.923   4.119   5.003 -0.1592  0.1265  0.2928
18158TIP3    H175965   2.963   4.110   5.089 -0.4589 -1.6043  0.2877
18158TIP3    H275966   2.832   4.092   5.015 -0.1824 -0.2385 -0.5605
18159TIP3   OH275967   5.330   1.324  15.147 -0.0942 -0.2647  0.1751
18159TIP3    H175968   5.312   1.237  15.183 -0.0493  0.5470  2.2896
18159TIP3    H275969   5.338   1.380  15.224  2.2485  1.1785 -1.0236
18160TIP3   OH275970   3.382   4.075  15.891 -0.5772  0.4159 -0.3319
18160TIP3    H175971   3.460   4.118  15.854 -1.8035  2.7800 -0.3969
18160TIP3    H275972   3.384   4.099  15.984  0.5900 -2.5196  0.5085
18161TIP3   OH275973   3.169   6.080   0.921  0.5541 -0.5637  0.0111
18161TIP3    H175974   3.127   6.138   0.984  0.4395 -0.1025 -0.4929
18161TIP3    H275975   3.132   5.993   0.940 -0.3259 -0.2363 -0.1673
18162TIP3   OH275976   6.590   4.321  16.661  0.0306 -0.5051  0.1825
18162TIP3    H175977   6.619   4.254  16.723 -0.3089 -0.9483 -0.1358
18162TIP3    H275978   6.642   4.305  16.582  0.2834 -0.0959  0.2599
18163TIP3   OH275979   3.103   1.079  14.167  0.1167  0.4762 -0.0856
18163TIP3    H175980   3.162   1.113  14.100 -0.6137 -0.4205 -1.2255
18163TIP3    H275981   3.138   1.112  14.250 -1.3916  5.3455 -1.0930
18164TIP3   OH275982   5.012   0.559  15.455 -0.2293  0.2175  0.6810
18164TIP3    H175983   4.931   0.543  15.503 -0.1491  0.2981  0.8433
18164TIP3    H275984   4.984   0.605  15.376 -0.2865  0.7227  0.9927
18165TIP3   OH275985   1.726   0.168  16.363 -0.7882  0.1758 -0.4455
18165TIP3    H175986   1.691   0.246  16.404  1.5369  0.4434  1.2550
18165TIP3    H275987   1.821   0.182  16.361 -0.0588 -3.2051  1.4273
18166TIP3   OH275988   3.648   2.594  16.809 -0.0413 -0.0333 -0.2648
18166TIP3    H175989   3.567   2.543  16.807 -0.2010  0.2461 -0.8180
18166TIP3    H275990   3.713   2.537  16.767  0.0149 -0.1878  0.0267
18167TIP3   OH275991   4.970   3.955  15.209  0.1327  0.3122 -0.0870
18167TIP3    H175992   4.986   3.867  15.176  0.9917  0.2515  0.4587
18167TIP3    H275993   4.916   3.997  15.142  0.8245 -0.1987 -0.9801
18168TIP3   OH275994   6.070   1.563  13.662 -0.3436 -0.2979 -0.2879
18168TIP3    H175995   6.030   1.555  13.748  0.4200 -0.2188  0.0783
18168TIP3    H275996   6.136   1.494  13.659  0.4941  0.4777 -0.3232
18169TIP3   OH275997   1.747   0.717   6.113 -0.1549 -0.0911  0.3299
18169TIP3    H175998   1.815   0.673   6.164 -2.1571 -3.6084  0.2577
18169TIP3    H275999   1.670   0.661   6.123 -1.5724  0.7755 -3.9065
18170TIP3   OH276000   5.825   6.745  11.863  0.1553  0.3952  0.2550
18170TIP3    H176001   5.839   6.790  11.947  1.9734  0.4985 -0.0676
18170TIP3    H276002   5.911   6.746  11.821 -0.7320  0.3676 -1.6401
18171TIP3   OH276003   3.995   0.703   2.811  0.2278 -0.1232  0.8266
18171TIP3    H176004   3.967   0.622   2.770  0.6227  1.1705 -2.2733
18171TIP3    H276005   3.916   0.757   2.814  0.5967  0.5069 -0.1785
18172TIP3   OH276006   5.555   6.665  13.395 -0.6172 -0.6353  0.4647
18172TIP3    H176007   5.584   6.756  13.384 -0.3344 -0.6651  0.9448
18172TIP3    H276008   5.574   6.624  13.310  0.3051 -0.5297  0.6039
18173TIP3   OH276009   5.909   4.631  16.111 -0.0326 -0.0837  0.2805
18173TIP3    H176010   5.890   4.601  16.200 -0.0874 -0.0825  0.2694
18173TIP3    H276011   5.823   4.645  16.072 -0.0393 -1.3554 -0.2095
18174TIP3   OH276012   2.469   4.776   3.376  0.3164  0.1304  0.0626
18174TIP3    H176013   2.438   4.687   3.359 -0.7039  0.2655  1.1102
18174TIP3    H276014   2.391   4.830   3.368  0.8252  0.8592  0.0022
18175TIP3   OH276015   3.527   1.449  13.967  0.2314 -0.3018 -0.2777
18175TIP3    H176016   3.472   1.446  13.889 -0.1111 -0.3035 -0.0402
18175TIP3    H276017   3.568   1.363  13.971  0.2459 -0.3034 -0.4492
18176TIP3   OH276018   1.217   6.250  13.665  0.1437  0.0628  0.3863
18176TIP3    H176019   1.176   6.163  13.661  0.8812 -0.2551 -0.4664
18176TIP3    H276020   1.213   6.274  13.758  0.4305 -1.1283  0.7234
18177TIP3   OH276021   2.156   3.542   2.469 -0.0047  0.0311  0.6246
18177TIP3    H176022   2.147   3.620   2.414  0.4723  0.5099  1.2046
18177TIP3    H276023   2.067   3.525   2.501 -0.4171 -0.6465 -0.7813
18178TIP3   OH276024   3.661   3.555  16.136  0.0847 -0.1169 -0.1405
18178TIP3    H176025   3.709   3.483  16.095  1.2031 -0.0509  1.0013
18178TIP3    H276026   3.621   3.602  16.062  1.0317 -0.6973 -1.0511
18179TIP3   OH276027   3.697   2.853   2.476  0.4776 -0.6246  0.0488
18179TIP3    H176028   3.781   2.898   2.482  0.6853 -0.7591 -1.3796
18179TIP3    H276029   3.684   2.839   2.382 -1.1839 -0.5318  0.2313
18180TIP3   OH276030   0.370   1.803   1.625  0.1889  0.3360 -0.3447
18180TIP3    H176031   0.459   1.836   1.621 -0.1979  1.2411 -2.7517
18180TIP3    H276032   0.357   1.756   1.542 -1.5868  0.2831 -0.0909
18181TIP3   OH276033   0.985   3.213  11.546  0.3458  0.2546  1.2729
18181TIP3    H176034   0.896   3.206  11.513  0.0646 -2.2333  2.3478
18181TIP3    H276035   1.041   3.201  11.469 -0.2001  1.5692  0.6418
18182TIP3   OH276036   4.782   5.924  14.612  0.9827  0.0013  0.2589
18182TIP3    H176037   4.803   5.846  14.664  3.1186  0.8163  0.7324
18182TIP3    H276038   4.864   5.944  14.565 -0.3813  0.2504 -2.2087
18183TIP3   OH276039   2.238   3.521  12.006  0.0069 -0.2931 -0.0730
18183TIP3    H176040   2.316   3.546  11.957 -0.2087 -1.2896 -0.9565
18183TIP3    H276041   2.171   3.507  11.938 -0.8247  0.1623  0.6422
18184TIP3   OH276042   3.281   2.010   5.080  0.0470  0.4320 -0.0388
18184TIP3    H176043   3.313   2.022   5.170 -0.3553  0.4843  0.0960
18184TIP3    H276044   3.357   2.031   5.025  0.8490 -1.3589  0.3197
18185TIP3   OH276045   3.492   0.341  12.305 -0.0899  0.5168 -0.2708
18185TIP3    H176046   3.520   0.432  12.297 -1.0468  0.8075 -0.4547
18185TIP3    H276047   3.536   0.295  12.234 -0.8419  1.1542 -1.1732
18186TIP3   OH276048   3.806   6.562   4.928 -0.0706  0.5488  0.6762
18186TIP3    H176049   3.844   6.643   4.894  0.0689  0.4476  0.5937
18186TIP3    H276050   3.832   6.559   5.020  0.7418  0.1071  0.4362
18187TIP3   OH276051   4.476   1.580  14.026 -0.4221  0.2621  0.3945
18187TIP3    H176052   4.535   1.597  14.100  1.6879 -1.1480 -0.8515
18187TIP3    H276053   4.420   1.658  14.021  0.7172  1.2644  2.2295
18188TIP3   OH276054   1.641   3.980  11.869  0.1004  0.0311 -0.3672
18188TIP3    H176055   1.588   3.984  11.789 -0.9095  2.1144  0.3341
18188TIP3    H276056   1.730   3.965  11.838 -0.5859 -1.6196 -1.6965
18189TIP3   OH276057   1.210   2.715   2.032  0.3479 -0.3774  0.4683
18189TIP3    H176058   1.156   2.768   2.091 -1.9401  0.2224 -1.9108
18189TIP3    H276059   1.215   2.768   1.952  0.6234 -2.4313 -0.9390
18190TIP3   OH276060   6.204   5.172   3.820  0.4291  0.7420  0.4076
18190TIP3    H176061   6.246   5.236   3.876  2.5656  0.5295 -0.8177
18190TIP3    H276062   6.192   5.095   3.875 -1.3031  1.8252  1.6278
18191TIP3   OH276063   5.103   2.039  14.826 -0.1899 -0.2162  0.7169
18191TIP3    H176064   5.108   2.128  14.860  1.8749  0.1104 -0.2867
18191TIP3    H276065   5.024   2.003  14.865 -1.2597  2.1497  0.9076
18192TIP3   OH276066   1.637   4.219  11.122 -0.0309  0.2433  0.1004
18192TIP3    H176067   1.564   4.210  11.062  0.4095  0.2516 -0.4455
18192TIP3    H276068   1.668   4.308  11.109  0.6918 -0.0698 -0.3965
18193TIP3   OH276069   3.346   2.137  12.625 -0.1074 -0.1339 -0.1774
18193TIP3    H176070   3.311   2.098  12.705 -0.1654  0.2172 -0.0308
18193TIP3    H276071   3.437   2.157  12.645 -0.2442  0.3603 -0.0542
18194TIP3   OH276072   2.999   1.973   2.616 -0.1819 -0.4721  0.3383
18194TIP3    H176073   2.949   1.954   2.537 -2.8149 -0.8987  1.9618
18194TIP3    H276074   3.003   1.889   2.662 -0.1829  0.1006  1.4067
18195TIP3   OH276075   5.283   6.253  15.170  0.1560 -0.4290 -0.1308
18195TIP3    H176076   5.326   6.317  15.113 -1.8967  1.3986  0.2442
18195TIP3    H276077   5.191   6.279  15.169 -0.5164 -2.5728  1.1724
18196TIP3   OH276078   3.769   3.338  13.102  0.1086 -0.5898  0.0070
18196TIP3    H176079   3.829   3.412  13.111 -1.4655  0.7454 -0.1635
18196TIP3    H276080   3.719   3.337  13.184  0.2408 -1.6060  0.0946
18197TIP3   OH276081   5.118   2.936   4.096  0.4606 -0.1863 -0.1162
18197TIP3    H176082   5.132   3.018   4.143  1.7586 -0.5649  0.2186
18197TIP3    H276083   5.118   2.961   4.004  1.0492  0.1707 -0.0259
18198TIP3   OH276084   0.579   6.772  14.538 -0.0034 -0.2717  0.7038
18198TIP3    H176085   0.530   6.846  14.576  0.4847 -0.1835  1.1736
18198TIP3    H276086   0.652   6.813  14.492  0.3395 -0.4679  1.0726
18199TIP3   OH276087   3.706   0.878   3.472 -0.3407  0.4994 -0.0663
18199TIP3    H176088   3.746   0.801   3.510  0.3826  1.9228  2.2717
18199TIP3    H276089   3.613   0.858   3.470 -0.1523 -0.4938  0.3710
18200TIP3   OH276090   3.540   3.091   2.965 -0.1079  0.5120 -0.0701
18200TIP3    H176091   3.486   3.092   3.044  0.0944  0.6070  0.0662
18200TIP3    H276092   3.496   3.152   2.905  0.9742  2.2212  0.7944
18201TIP3   OH276093   4.394   0.252   7.128  0.4112 -0.2363  0.4585
18201TIP3    H176094   4.484   0.218   7.129  0.9300  1.0788  0.2708
18201TIP3    H276095   4.382   0.285   7.039  0.1296  0.5785  0.7950
18202TIP3   OH276096   1.291   0.893  16.006 -0.0169 -0.1362  0.0643
18202TIP3    H176097   1.288   0.892  16.101 -2.1350  0.3327  0.0520
18202TIP3    H276098   1.351   0.964  15.984 -1.2574  1.2967  1.0963
18203TIP3   OH276099   5.627   6.257  11.926 -0.3716  0.1836 -1.0377
18203TIP3    H176100   5.680   6.185  11.891  0.5408  0.1733  0.2820
18203TIP3    H276101   5.575   6.287  11.852 -0.2461 -1.3686 -1.7921
18204TIP3   OH276102   1.847   1.025  15.933 -0.2852 -0.0881  0.3584
18204TIP3    H176103   1.832   1.111  15.895  1.3864 -0.8933 -2.3834
18204TIP3    H276104   1.927   1.035  15.984 -0.1375  0.0161  0.1082
18205TIP3   OH276105   2.217   6.475  12.010  0.0502 -0.0278 -0.3399
18205TIP3    H176106   2.201   6.380  12.008  3.1631 -0.6465 -1.0210
18205TIP3    H276107   2.235   6.494  12.102 -0.1552 -0.1629 -0.2694
18206TIP3   OH276108   6.643   4.661  15.440 -0.1757  0.1066 -0.4586
18206TIP3    H176109   6.612   4.750  15.457 -0.8509 -0.1816 -0.1405
18206TIP3    H276110   6.624   4.613  15.521 -1.4984 -0.7686 -1.2436
18207TIP3   OH276111   3.350   5.702  12.217 -0.0974  0.4108 -0.0629
18207TIP3    H176112   3.255   5.689  12.226 -0.2613  2.2090  1.4577
18207TIP3    H276113   3.369   5.777  12.274  2.5165 -0.9955  1.0872
18208TIP3   OH276114   5.886   4.074  15.150  0.4382 -0.6013  0.1141
18208TIP3    H176115   5.802   4.101  15.187  0.3421 -0.6116 -0.0961
18208TIP3    H276116   5.931   4.031  15.223  1.9653  2.9333  1.5221
18209TIP3   OH276117   5.836   3.463   2.760 -0.1993  0.1564  0.1611
18209TIP3    H176118   5.784   3.509   2.694  0.2478 -0.1725 -0.4226
18209TIP3    H276119   5.926   3.468   2.728  0.2709  1.4571  1.5819
18210TIP3   OH276120   4.310   3.132  15.793 -0.3503 -0.5826 -0.1797
18210TIP3    H176121   4.220   3.123  15.823 -0.8144  1.0413 -0.9316
18210TIP3    H276122   4.310   3.214  15.743  1.7653  0.0056  0.6620
18211TIP3   OH276123   6.241   1.767  11.932  0.3227  0.1051  0.5475
18211TIP3    H176124   6.159   1.802  11.968 -0.2076 -0.8155  0.2659
18211TIP3    H276125   6.276   1.713  12.003  0.0565 -0.4849  0.2323
18212TIP3   OH276126   1.868   5.939   0.838 -0.3055  0.2985 -0.3038
18212TIP3    H176127   1.907   5.993   0.907  0.0613  2.5054 -2.1300
18212TIP3    H276128   1.939   5.925   0.776 -0.7779 -1.1806 -0.5482
18213TIP3   OH276129   6.429   3.474   2.742 -0.9549  0.0602  0.9631
18213TIP3    H176130   6.442   3.472   2.647 -0.2998 -1.0809  1.0630
18213TIP3    H276131   6.417   3.567   2.762 -3.7056  0.1402 -0.5455
18214TIP3   OH276132   3.167   6.796  11.564  0.2451 -0.1551  0.3815
18214TIP3    H176133   3.079   6.767  11.539 -0.3320  0.7485  1.2547
18214TIP3    H276134   3.151   6.856  11.637  1.4780  1.2695 -0.4800
18215TIP3   OH276135   3.290   5.243  13.024  0.0991 -0.0840  0.2285
18215TIP3    H176136   3.371   5.193  13.026  0.4228  0.4588  1.3545
18215TIP3    H276137   3.242   5.215  13.101  0.4409  1.5510  1.0913
18216TIP3   OH276138   5.481   2.961  16.128 -0.2794  0.0914  0.0164
18216TIP3    H176139   5.509   2.946  16.038 -0.0860 -1.6713  0.3313
18216TIP3    H276140   5.503   3.053  16.145 -0.6093  0.5477 -1.8091
18217TIP3   OH276141   0.589   3.830  12.497 -0.2382 -0.0908  0.1748
18217TIP3    H176142   0.673   3.805  12.459 -1.4938 -1.3254 -2.0080
18217TIP3    H276143   0.539   3.748  12.498 -2.1313  1.0052 -0.6552
18218TIP3   OH276144   2.559   1.007  12.735 -0.3106  0.3873 -0.3086
18218TIP3    H176145   2.633   0.997  12.674 -1.1255 -0.6370 -1.1624
18218TIP3    H276146   2.570   1.095  12.771  1.8611 -0.0776  0.3078
18219TIP3   OH276147   3.100   3.625  11.144  0.1349  0.9445  0.4517
18219TIP3    H176148   3.127   3.676  11.067 -2.3988  0.9200 -0.5534
18219TIP3    H276149   3.181   3.609  11.192  1.3777  3.9544 -0.3802
18220TIP3   OH276150   0.528   1.131   6.202 -0.1683  0.7237  0.3167
18220TIP3    H176151   0.563   1.163   6.285 -0.3167 -0.5317  0.8850
18220TIP3    H276152   0.434   1.119   6.218 -0.0683 -0.2749  0.2306
18221TIP3   OH276153   6.180   3.632   4.545 -0.8570 -0.1040  0.3981
18221TIP3    H176154   6.138   3.677   4.472  0.7744 -3.4537 -2.8962
18221TIP3    H276155   6.248   3.692   4.575 -1.2394  1.1818 -1.1736
18222TIP3   OH276156   6.735   5.332   1.735 -0.0035 -0.3744  0.3983
18222TIP3    H176157   6.700   5.257   1.686 -1.2838  0.5362 -0.1444
18222TIP3    H276158   6.830   5.323   1.729 -0.1236 -2.1289  0.6296
18223TIP3   OH276159   0.218   5.348   1.686 -0.0546 -0.4542 -0.8563
18223TIP3    H176160   0.242   5.321   1.774  1.3171  0.2794 -0.9738
18223TIP3    H276161   0.191   5.267   1.642 -0.7286 -0.8281  0.2164
18224TIP3   OH276162   6.660   2.472  11.671 -0.8063 -0.4375 -0.2597
18224TIP3    H176163   6.661   2.461  11.766 -1.0911 -0.1027 -0.2172
18224TIP3    H276164   6.710   2.397  11.638 -2.0294 -1.4411  0.0734
18225TIP3   OH276165   0.067   1.066  10.915  0.0686 -0.5065  0.4083
18225TIP3    H176166   0.049   0.995  10.853 -0.6290 -0.5487  0.6496
18225TIP3    H276167   0.017   1.140  10.880  0.1942 -0.3481  0.5686
18226TIP3   OH276168   1.919   1.258   5.241 -0.0223  0.8542 -0.2507
18226TIP3    H176169   1.920   1.282   5.334 -0.9997  1.1674 -0.3094
18226TIP3    H276170   1.910   1.163   5.241  2.8624  0.4977 -0.0261
18227TIP3   OH276171   6.236   0.708  14.353 -0.3383  0.0623  0.1110
18227TIP3    H176172   6.307   0.643  14.357 -1.8633 -1.6553  2.9328
18227TIP3    H276173   6.280   0.792  14.367  1.5602 -0.3527 -2.5267
18228TIP3   OH276174   5.286   3.879   0.522  0.5750 -0.9091  0.2437
18228TIP3    H176175   5.271   3.804   0.579 -0.7209 -0.4003  0.5990
18228TIP3    H276176   5.198   3.906   0.494  0.9913  0.6376  0.3369
18229TIP3   OH276177   0.357   5.814  16.396 -0.2035 -0.4789  0.7672
18229TIP3    H176178   0.344   5.793  16.303  1.4958  0.6791  0.2208
18229TIP3    H276179   0.334   5.907  16.402 -1.0039 -0.7238  1.6830
18230TIP3   OH276180   3.099   0.327  11.450 -0.2130 -0.4194 -0.4311
18230TIP3    H176181   3.173   0.274  11.421 -0.5992 -1.1748 -0.0657
18230TIP3    H276182   3.034   0.316  11.381  0.3052  0.8988 -1.1533
18231TIP3   OH276183   5.164   6.050   0.824 -0.7207 -0.4783  0.1642
18231TIP3    H176184   5.142   5.959   0.807 -0.8984 -0.8471  2.2330
18231TIP3    H276185   5.083   6.098   0.805 -0.5975 -0.7015 -1.0137
18232TIP3   OH276186   1.108   4.444   4.042 -0.3210  0.6054 -0.5513
18232TIP3    H176187   1.078   4.532   4.018  0.1384  0.9406  0.0601
18232TIP3    H276188   1.047   4.417   4.111 -0.3238  0.5445 -0.5784
18233TIP3   OH276189   3.611   1.507  13.472 -0.0736  0.3924 -0.1279
18233TIP3    H176190   3.705   1.525  13.472 -0.1905  1.0545 -0.1571
18233TIP3    H276191   3.603   1.416  13.498  0.5533  0.4857  0.4019
18234TIP3   OH276192   1.266   4.524  12.851  0.0208  0.6216  0.0270
18234TIP3    H176193   1.357   4.521  12.820 -0.7389 -1.1135 -2.2876
18234TIP3    H276194   1.255   4.442  12.898 -0.5658  0.4398 -0.4206
18235TIP3   OH276195   3.931   1.939   3.328  0.3217 -0.0400  0.1306
18235TIP3    H176196   3.876   1.863   3.310  0.7384 -0.2942 -0.0824
18235TIP3    H276197   4.008   1.904   3.372  0.6898  0.2062 -0.2996
18236TIP3   OH276198   1.189   3.278  12.040 -0.0961 -0.0351  0.2900
18236TIP3    H176199   1.265   3.244  12.089 -0.3379 -1.3312 -0.1867
18236TIP3    H276200   1.198   3.240  11.953  0.8708  3.0352 -1.0811
18237TIP3   OH276201   4.971   6.405  16.710 -0.2210 -0.2130 -0.0091
18237TIP3    H176202   5.026   6.416  16.633 -1.1357  2.7535 -0.3770
18237TIP3    H276203   4.882   6.399  16.674 -0.4663 -1.3231  0.7398
18238TIP3   OH276204   2.444   1.139   5.335  0.4138 -0.3973 -0.1618
18238TIP3    H176205   2.535   1.146   5.364  0.5021 -0.9877 -0.2861
18238TIP3    H276206   2.395   1.193   5.398  0.6369 -1.3973  0.9037
18239TIP3   OH276207   0.195   0.372   3.665 -0.5626 -0.4959  0.0487
18239TIP3    H176208   0.284   0.336   3.659 -0.6964 -0.8743  0.2616
18239TIP3    H276209   0.199   0.435   3.737 -0.7478 -1.3929  0.8720
18240TIP3   OH276210   6.759   2.763  16.171  0.8590 -0.2641  0.0967
18240TIP3    H176211   6.809   2.805  16.101 -0.0702 -1.8899 -1.6184
18240TIP3    H276212   6.668   2.788  16.155  0.8260  1.1824  2.1213
18241TIP3   OH276213   4.495   5.663  17.163 -0.2821 -0.0142 -0.0843
18241TIP3    H176214   4.563   5.647  17.228  0.0123  0.6228 -0.2271
18241TIP3    H276215   4.451   5.743  17.194 -0.9205 -0.3821 -0.0306
18242TIP3   OH276216   5.113   1.874  13.822 -0.2895 -0.6623  0.4351
18242TIP3    H176217   5.025   1.899  13.850  0.3916 -0.6849  2.8295
18242TIP3    H276218   5.150   1.829  13.898  1.6826 -0.9444 -0.6282
18243TIP3   OH276219   1.859   4.341   1.332  0.1446  0.3296 -0.0847
18243TIP3    H176220   1.907   4.279   1.386 -0.4534  0.0408  0.1161
18243TIP3    H276221   1.804   4.390   1.393 -0.4226  0.1030 -0.4078
18244TIP3   OH276222   1.689   1.934  13.353  0.1757  0.1707 -0.2067
18244TIP3    H176223   1.726   1.854  13.390 -1.2285 -0.8330 -0.8811
18244TIP3    H276224   1.713   1.931  13.261  0.1021  0.5099 -0.2369
18245TIP3   OH276225   6.432   1.602  13.869  0.8270  0.3357 -0.0452
18245TIP3    H176226   6.495   1.641  13.928 -0.0774  2.1904 -0.2203
18245TIP3    H276227   6.438   1.508  13.885  1.2589  0.7159  2.2988
18246TIP3   OH276228   3.516   0.071  10.719  0.2552  0.2329  0.1944
18246TIP3    H176229   3.601   0.106  10.745  0.2369 -0.2084  0.8926
18246TIP3    H276230   3.520   0.064  10.624  1.5807 -1.1999  0.3067
18247TIP3   OH276231   0.389   6.093  13.302 -0.1975 -0.3596  0.2239
18247TIP3    H176232   0.423   6.182  13.300 -2.1346  0.4775 -2.8624
18247TIP3    H276233   0.445   6.045  13.240 -1.3112 -0.3034 -0.8635
18248TIP3   OH276234   5.560   4.015   0.593 -0.2848  0.4305  0.1871
18248TIP3    H176235   5.486   3.964   0.560 -0.5118  1.1842 -0.5192
18248TIP3    H276236   5.523   4.102   0.610  0.8741  1.5254 -2.4178
18249TIP3   OH276237   3.595   1.464  16.741  0.8671  0.0807  0.1309
18249TIP3    H176238   3.515   1.431  16.782  0.9967  0.7052  0.8925
18249TIP3    H276239   3.581   1.449  16.647  0.1935 -0.5341  0.3227
18250TIP3   OH276240   4.700   2.940   2.320 -0.4515 -0.3134  0.4696
18250TIP3    H176241   4.673   2.916   2.232 -1.7459  0.8807  0.5045
18250TIP3    H276242   4.782   2.892   2.334 -2.3521 -3.9897  0.2727
18251TIP3   OH276243   3.122   6.799   5.613 -0.3729  0.3661  0.3094
18251TIP3    H176244   3.086   6.809   5.701 -0.3248 -0.7356  0.4773
18251TIP3    H276245   3.046   6.805   5.555 -0.2493  2.4240  0.2878
18252TIP3   OH276246   4.929   0.847   3.890  0.0453 -0.0070 -0.2268
18252TIP3    H176247   4.881   0.850   3.973  1.9952  0.0551  0.9614
18252TIP3    H276248   4.927   0.937   3.858  2.7939  0.9903  1.9627
18253TIP3   OH276249   2.690   1.122  15.982 -0.3620 -0.1480  0.5438
18253TIP3    H176250   2.619   1.186  15.970  1.1646  1.3554 -1.2476
18253TIP3    H276251   2.759   1.172  16.026 -0.4669 -1.6623  2.5292
18254TIP3   OH276252   0.046   2.621  12.509  0.0664 -0.4736  0.0706
18254TIP3    H176253   0.065   2.711  12.484 -0.4873 -0.3700  0.0089
18254TIP3    H276254   0.067   2.617  12.603 -1.9593  0.3397  0.6238
18255TIP3   OH276255   2.443   4.920  14.685 -0.0628  0.6669 -0.6420
18255TIP3    H176256   2.481   4.833  14.696  0.0501  0.7034 -0.7337
18255TIP3    H276257   2.463   4.965  14.767 -2.0555 -0.0984  0.3296
18256TIP3   OH276258   3.713   1.327   0.498  0.3761  0.6008 -0.1822
18256TIP3    H176259   3.635   1.381   0.483  0.9888  2.0800  1.6200
18256TIP3    H276260   3.781   1.368   0.445  0.8299  1.6780  1.1523
18257TIP3   OH276261   0.949   2.404  14.799  0.4271  0.0784  0.3241
18257TIP3    H176262   1.019   2.399  14.863  1.0339 -0.1004 -0.3409
18257TIP3    H276263   0.875   2.360  14.841  0.8067 -0.0071  0.9123
18258TIP3   OH276264   1.814   1.042   4.607  0.1516 -0.2869 -0.8467
18258TIP3    H176265   1.906   1.038   4.632  0.2728  0.7864 -1.0532
18258TIP3    H276266   1.778   0.957   4.631  0.5839  0.1582  1.6389
18259TIP3   OH276267   1.166   3.465  11.458 -0.2680  0.7924  0.2646
18259TIP3    H176268   1.113   3.477  11.536  0.5947 -0.2818  1.0426
18259TIP3    H276269   1.185   3.372  11.455 -1.1211  0.6317 -1.8122
18260TIP3   OH276270   4.737   5.259  11.558 -0.0145  0.3185  0.1111
18260TIP3    H176271   4.759   5.253  11.651 -0.4137  1.6669  0.3078
18260TIP3    H276272   4.811   5.305  11.518  0.2770 -0.4813 -0.3008
18261TIP3   OH276273   5.706   4.539   2.121  0.0420  1.0395 -0.0763
18261TIP3    H176274   5.730   4.499   2.038  0.3102  1.5161 -0.2341
18261TIP3    H276275   5.770   4.610   2.133  0.7590  0.2221  1.1262
18262TIP3   OH276276   4.050   0.648  15.318 -0.4962  0.1697 -0.3279
18262TIP3    H176277   4.036   0.595  15.397 -0.5154 -0.7209 -0.9073
18262TIP3    H276278   4.051   0.584  15.246  1.9029  0.6447 -0.8286
18263TIP3   OH276279   5.596   6.569  13.129  0.7178 -0.2173  0.4616
18263TIP3    H176280   5.554   6.483  13.134 -0.4040 -0.0160 -3.0777
18263TIP3    H276281   5.685   6.550  13.100  0.4981 -0.1924 -0.2302
18264TIP3   OH276282   5.989   5.898   3.083 -0.0783 -0.1519  0.0551
18264TIP3    H176283   6.001   5.968   3.147  0.4856  0.2951 -0.5214
18264TIP3    H276284   5.926   5.838   3.124 -1.5401  1.3180  0.0311
18265TIP3   OH276285   1.098   6.180  10.610 -0.6085 -0.4169  1.4172
18265TIP3    H176286   1.020   6.142  10.568 -0.3937  0.8898 -0.2526
18265TIP3    H276287   1.073   6.270  10.630  1.3618  1.1008 -2.0847
18266TIP3   OH276288   0.102   3.219  14.403 -0.5231  0.1401 -0.4585
18266TIP3    H176289   0.151   3.217  14.320  0.3582 -0.8180  0.0590
18266TIP3    H276290   0.115   3.308  14.435  2.3760 -0.5156  0.4702
18267TIP3   OH276291   0.621   0.870  16.459  0.2821  0.0064 -0.0663
18267TIP3    H176292   0.528   0.849  16.451  0.4791 -1.3250  0.8248
18267TIP3    H276293   0.628   0.919  16.541  0.0764  2.2719 -1.2986
18268TIP3   OH276294   4.356   4.366  14.337 -0.6270 -0.0559 -1.0299
18268TIP3    H176295   4.285   4.321  14.291 -0.0274 -1.3080 -0.7660
18268TIP3    H276296   4.353   4.330  14.426 -2.0064  2.5875  0.1181
18269TIP3   OH276297   5.935   5.481   4.537  0.2305 -0.4500 -0.6306
18269TIP3    H176298   5.899   5.407   4.488  3.3465 -2.5421 -0.0233
18269TIP3    H276299   5.930   5.453   4.629 -1.0256  1.3118 -0.1241
18270TIP3   OH276300   0.645   2.935   4.026  0.4591 -0.1750  0.2076
18270TIP3    H176301   0.569   2.899   3.981 -0.1002  1.5990 -0.3381
18270TIP3    H276302   0.717   2.878   4.001 -0.1213 -0.1033 -1.7804
18271TIP3   OH276303   0.504   3.994  10.560 -0.5365 -0.3375  1.0001
18271TIP3    H176304   0.540   3.922  10.612  0.0401 -1.4108 -0.7999
18271TIP3    H276305   0.473   3.953  10.480 -0.1254  1.4197 -0.1302
18272TIP3   OH276306   1.242   3.979   5.729 -0.0313 -0.1202  0.3294
18272TIP3    H176307   1.324   3.936   5.704  0.1335 -0.6486  1.6966
18272TIP3    H276308   1.237   3.968   5.824 -1.1982  0.7807  0.3967
18273TIP3   OH276309   2.525   1.884  13.095 -0.7267 -0.1345  0.0441
18273TIP3    H176310   2.436   1.856  13.077 -0.9552  0.3226  0.4123
18273TIP3    H276311   2.525   1.905  13.189 -0.7125  1.5218 -0.2899
18274TIP3   OH276312   3.560   2.832   5.659 -0.0246 -0.4692 -0.1057
18274TIP3    H176313   3.470   2.857   5.635 -0.5021 -2.7821 -0.9282
18274TIP3    H276314   3.606   2.916   5.668 -1.6853  0.7167 -1.8616
18275TIP3   OH276315   1.862   6.373   3.404  0.1969 -0.3450  0.3291
18275TIP3    H176316   1.779   6.378   3.450 -1.3131  0.2718 -2.2418
18275TIP3    H276317   1.877   6.280   3.390 -0.7930 -0.4199 -0.3390
18276TIP3   OH276318   6.516   1.952   2.329  0.6458  0.7746  0.0169
18276TIP3    H176319   6.436   1.964   2.277  0.8873  0.9544 -0.3190
18276TIP3    H276320   6.497   1.994   2.413  0.9379  2.2119 -0.6101
18277TIP3   OH276321   0.823   3.314   0.367  0.1187  0.3551  0.1377
18277TIP3    H176322   0.740   3.361   0.378  0.3499  1.2056 -1.4126
18277TIP3    H276323   0.800   3.222   0.381 -1.1985  0.5213 -0.7342
18278TIP3   OH276324   2.435   0.406   2.402 -0.0841  0.3822 -0.0313
18278TIP3    H176325   2.404   0.496   2.403  0.3384  0.5290  1.4228
18278TIP3    H276326   2.518   0.408   2.449 -1.6779 -1.2758  3.1329
18279TIP3   OH276327   2.942   3.129   4.848 -0.6490  0.3869 -0.0009
18279TIP3    H176328   2.941   3.212   4.897 -0.2768  1.4621 -1.7159
18279TIP3    H276329   2.992   3.149   4.769  1.3890 -2.1065  0.5362
18280TIP3   OH276330   6.212   3.269  11.641 -0.1889 -0.2538  0.2939
18280TIP3    H176331   6.143   3.332  11.657 -0.6419 -0.7139  0.1787
18280TIP3    H276332   6.219   3.220  11.723 -0.3196 -0.5091  0.1542
18281TIP3   OH276333   5.296   6.467  15.468 -0.2572  0.2725  0.3075
18281TIP3    H176334   5.207   6.433  15.476 -1.0386  2.1312  0.0276
18281TIP3    H276335   5.352   6.400  15.508 -1.6321 -1.4999 -0.5987
18282TIP3   OH276336   3.301   4.057   1.845 -0.3682 -0.3897  0.0081
18282TIP3    H176337   3.223   4.079   1.795  0.2219 -1.1538 -1.3052
18282TIP3    H276338   3.268   4.016   1.925 -1.3227  0.2580 -0.0378
18283TIP3   OH276339   6.476   1.928   5.035 -0.5090 -0.4740  0.4238
18283TIP3    H176340   6.398   1.956   5.082 -1.0919 -0.7751 -0.3416
18283TIP3    H276341   6.466   1.966   4.947 -0.6873 -1.9550 -0.2339
18284TIP3   OH276342   6.801   0.984  16.985  0.2924 -0.0021 -0.1518
18284TIP3    H176343   6.802   0.888  16.981 -2.4691 -0.1536  0.8629
18284TIP3    H276344   6.729   1.010  16.929  1.3725  1.5883 -0.8940
18285TIP3   OH276345   5.633   4.467  13.857  0.1618 -0.2143 -0.1476
18285TIP3    H176346   5.635   4.441  13.765 -0.4432  0.8641 -0.4818
18285TIP3    H276347   5.683   4.548  13.861  0.4049 -0.3921  0.5241
18286TIP3   OH276348   3.956   3.416   4.593 -0.3188  0.1534 -0.0211
18286TIP3    H176349   3.903   3.403   4.515  0.1306  2.9551 -0.8895
18286TIP3    H276350   4.045   3.392   4.565 -0.3382  0.1152 -0.0497
18287TIP3   OH276351   1.687   3.490   6.178  0.6904  0.1789 -0.1731
18287TIP3    H176352   1.761   3.524   6.127  0.9585  0.0145  0.1008
18287TIP3    H276353   1.625   3.460   6.112  1.3241 -0.6510 -0.4238
18288TIP3   OH276354   3.058   3.533   5.680  0.4856  0.0325  0.1452
18288TIP3    H176355   3.146   3.497   5.692 -0.6589 -2.4548  1.8985
18288TIP3    H276356   3.027   3.492   5.599  1.1596  1.5566 -0.9375
18289TIP3   OH276357   5.136   2.294  14.934 -0.2850  0.0353 -0.5557
18289TIP3    H176358   5.052   2.338  14.925 -0.4127 -0.0081  0.4109
18289TIP3    H276359   5.141   2.269  15.026  0.5408 -0.4540 -0.7254
18290TIP3   OH276360   1.940   0.371   0.109  0.1467 -0.2160  0.5228
18290TIP3    H176361   1.991   0.404   0.035 -0.9727  1.5836  0.4841
18290TIP3    H276362   1.851   0.402   0.092 -1.0339 -3.1585  0.6219
18291TIP3   OH276363   2.861   2.337   3.992 -0.2553  0.4303 -0.0451
18291TIP3    H176364   2.926   2.267   3.990  1.1971  1.7299 -0.8165
18291TIP3    H276365   2.891   2.399   3.925 -0.9332  2.2414  1.2465
18292TIP3   OH276366   3.666   6.388   0.268 -0.2213  0.2596 -1.1668
18292TIP3    H176367   3.733   6.457   0.262  0.2768 -0.0441  0.4958
18292TIP3    H276368   3.646   6.382   0.361 -0.5593 -1.5748 -1.3314
18293TIP3   OH276369   0.420   4.691   0.567 -0.8667 -0.0297  0.4344
18293TIP3    H176370   0.501   4.692   0.618  0.2804  0.0326 -1.2796
18293TIP3    H276371   0.410   4.599   0.540 -0.1751  0.3025 -1.0738
18294TIP3   OH276372   2.135   1.376   6.680  0.5673  0.1544 -0.3302
18294TIP3    H176373   2.114   1.295   6.727  0.6124 -0.5537 -1.4804
18294TIP3    H276374   2.230   1.380   6.680  0.7551 -1.5873 -3.0631
18295TIP3   OH276375   2.187   1.863  14.222 -0.4654 -0.2507  0.7592
18295TIP3    H176376   2.158   1.954  14.231 -1.2960 -0.1066 -2.3706
18295TIP3    H276377   2.108   1.811  14.234 -0.5489 -0.3560 -0.1959
18296TIP3   OH276378   4.971   3.689  11.807  0.4817  0.3140 -0.5065
18296TIP3    H176379   4.986   3.703  11.900 -3.3523 -0.0122  0.3290
18296TIP3    H276380   4.973   3.777  11.769 -3.3231  1.2768  1.0333
18297TIP3   OH276381   6.726   1.732  16.927 -0.2139  0.2633 -0.2101
18297TIP3    H176382   6.813   1.708  16.959  0.4222  0.5390 -1.6360
18297TIP3    H276383   6.693   1.796  16.991  0.4329 -0.1678  0.5712
18298TIP3   OH276384   1.295   0.968   4.330 -0.1902 -0.4091  0.2193
18298TIP3    H176385   1.260   1.056   4.342 -0.4451 -0.4247 -0.3736
18298TIP3    H276386   1.323   0.941   4.417 -0.3362  0.1631  0.4463
18299TIP3   OH276387   6.491   5.884   4.939 -0.0104 -0.0615 -0.2383
18299TIP3    H176388   6.442   5.856   4.861 -0.3906  0.2994 -0.1344
18299TIP3    H276389   6.511   5.803   4.986  0.7438 -0.3430 -1.0110
18300TIP3   OH276390   4.768   2.445  14.305 -0.3770 -0.0889 -0.3888
18300TIP3    H176391   4.858   2.476  14.305  0.5912 -2.4163  2.9289
18300TIP3    H276392   4.717   2.517  14.342  0.3630  0.6222 -0.7310
18301TIP3   OH276393   0.851   5.947  11.644  0.4475 -0.5673 -0.4322
18301TIP3    H176394   0.888   5.981  11.725 -2.5116 -1.4002  1.4054
18301TIP3    H276395   0.833   6.025  11.591  2.6057 -0.0321 -0.5011
18302TIP3   OH276396   4.554   5.764   4.428  0.3730  0.1706 -0.0027
18302TIP3    H176397   4.494   5.725   4.491 -0.1873 -0.9167 -1.1546
18302TIP3    H276398   4.605   5.827   4.478  0.3345 -1.0525  1.6451
18303TIP3   OH276399   1.603   1.486   2.989 -0.1696 -0.1262  0.3047
18303TIP3    H176400   1.551   1.509   2.912 -1.3592 -1.1136  0.7709
18303TIP3    H276401   1.668   1.556   2.996  0.5066 -0.4214 -2.0482
18304TIP3   OH276402   3.259   4.919  16.015 -0.7586  0.6028  0.3562
18304TIP3    H176403   3.254   4.831  15.979 -0.1031  0.5642  0.3403
18304TIP3    H276404   3.206   4.973  15.956  1.2752  0.7757 -1.4273
18305TIP3   OH276405   1.053   3.004  13.854  0.1862 -0.4676  0.0572
18305TIP3    H176406   1.036   3.079  13.797 -1.1898  0.8047  2.0066
18305TIP3    H276407   0.968   2.982  13.892  1.0074 -1.3066  1.5253
18306TIP3   OH276408   4.461   0.390   2.741  0.1542  0.0629  0.6451
18306TIP3    H176409   4.539   0.434   2.709  1.3691 -2.7185 -0.6031
18306TIP3    H276410   4.482   0.366   2.832  1.3809 -1.7429 -0.0460
18307TIP3   OH276411   1.484   0.104   2.446 -0.5014  0.1422 -0.0051
18307TIP3    H176412   1.436   0.040   2.394  0.5301 -0.5557 -0.1300
18307TIP3    H276413   1.505   0.057   2.527  0.3800  0.2594 -0.1530
18308TIP3   OH276414   6.137   4.293  13.930  0.2431 -0.7973  0.4315
18308TIP3    H176415   6.111   4.201  13.918 -0.3406 -0.5293 -0.4967
18308TIP3    H276416   6.211   4.305  13.870 -0.6788 -0.2676 -0.6364
18309TIP3   OH276417   4.203   1.785   6.045 -0.0672 -0.1359  0.1131
18309TIP3    H176418   4.205   1.763   6.138  0.3327  0.0209  0.1427
18309TIP3    H276419   4.163   1.872   6.042  0.0635 -0.0743  0.1516
18310TIP3   OH276420   3.244   5.875   2.878  0.3863  0.0851  0.7040
18310TIP3    H176421   3.210   5.833   2.800 -0.2770 -0.1879  1.1301
18310TIP3    H276422   3.298   5.808   2.920  0.4906  0.1306  0.6440
18311TIP3   OH276423   0.995   4.205   2.344  0.0463 -0.6344 -0.1488
18311TIP3    H176424   1.041   4.215   2.428 -1.2229  0.3943  0.4517
18311TIP3    H276425   1.010   4.114   2.320 -0.1707 -1.1583  1.5689
18312TIP3   OH276426   1.483   2.785   0.174  0.0991 -0.1774 -0.1638
18312TIP3    H176427   1.514   2.828   0.094 -0.0943  0.8813  0.3273
18312TIP3    H276428   1.468   2.856   0.236  0.7239 -1.0201  0.9954
18313TIP3   OH276429   0.704   4.062  10.796  0.2676 -0.2145 -0.0385
18313TIP3    H176430   0.664   3.982  10.831 -0.0563  0.1909  0.5323
18313TIP3    H276431   0.786   4.032  10.756  0.6527 -0.6907  1.0810
18314TIP3   OH276432   0.235   2.343   1.492  0.4373 -0.0316  0.2207
18314TIP3    H176433   0.251   2.409   1.559 -0.1579 -0.9773  1.3333
18314TIP3    H276434   0.250   2.260   1.536  1.4508 -0.6587 -1.2311
18315TIP3   OH276435   5.365   2.027   4.792  0.6808  0.1284  0.2713
18315TIP3    H176436   5.288   2.084   4.786  2.0516  1.9773 -0.4556
18315TIP3    H276437   5.381   2.018   4.886 -1.0412 -1.2469  0.5007
18316TIP3   OH276438   4.450   1.651   1.749  0.5319  0.0360 -0.1576
18316TIP3    H176439   4.397   1.696   1.683  0.1462  1.4686  1.0659
18316TIP3    H276440   4.434   1.700   1.830 -0.2842 -2.6150  1.4219
18317TIP3   OH276441   2.908   4.624   5.109  0.3627 -0.3371  0.3393
18317TIP3    H176442   2.973   4.671   5.161  2.2267 -1.3351 -0.9849
18317TIP3    H276443   2.948   4.615   5.023 -0.6318 -2.8316  0.0606
18318TIP3   OH276444   6.577   2.459  13.876  0.3542 -0.1829 -0.1537
18318TIP3    H176445   6.486   2.471  13.850  0.5205  0.9917 -0.2309
18318TIP3    H276446   6.574   2.389  13.941 -0.5096 -0.6535 -0.6798
18319TIP3   OH276447   4.626   5.102  15.833  0.3247  0.4170  0.1510
18319TIP3    H176448   4.605   5.039  15.901  1.7532 -0.7523 -0.4367
18319TIP3    H276449   4.603   5.187  15.870 -2.8727 -0.4793  0.5039
18320TIP3   OH276450   3.272   1.141   1.179 -0.1751  0.0656 -0.1582
18320TIP3    H176451   3.340   1.155   1.114 -0.7791  0.6135 -0.6855
18320TIP3    H276452   3.236   1.055   1.159 -0.2453  0.1611 -0.4465
18321TIP3   OH276453   0.230   0.463  14.677 -0.0982 -0.3703 -0.2617
18321TIP3    H176454   0.289   0.407  14.728  0.3572 -1.6714 -2.0928
18321TIP3    H276455   0.143   0.446  14.714  0.1836 -1.4544 -0.0569
18322TIP3   OH276456   6.629   0.578  12.897 -0.3985 -0.2833  0.0056
18322TIP3    H176457   6.659   0.576  12.806 -0.0191 -0.7917  0.1354
18322TIP3    H276458   6.689   0.638  12.941  0.8529 -1.7681  0.3986
18323TIP3   OH276459   1.583   3.758   1.933  0.1246  0.1844  0.2372
18323TIP3    H176460   1.671   3.742   1.898 -0.7233 -0.5263 -1.6886
18323TIP3    H276461   1.571   3.853   1.924  0.0929  0.0759 -1.0466
18324TIP3   OH276462   3.518   6.246   4.791  0.0270 -0.4551 -0.0571
18324TIP3    H176463   3.441   6.206   4.750  0.8348 -2.0175 -0.1057
18324TIP3    H276464   3.555   6.177   4.846  1.3836  0.2839 -0.0006
18325TIP3   OH276465   2.429   3.633  16.964  0.0385 -0.1219 -0.8106
18325TIP3    H176466   2.428   3.663  17.055  0.4923 -1.6156 -0.2907
18325TIP3    H276467   2.337   3.618  16.942  0.0609 -2.4617  0.3740
18326TIP3   OH276468   6.545   0.990   1.893 -0.1521 -0.1391 -0.3587
18326TIP3    H176469   6.472   0.938   1.858 -0.4210  0.3921 -0.6033
18326TIP3    H276470   6.514   1.081   1.887  0.4292  0.0698 -0.2175
18327TIP3   OH276471   3.370   3.206   0.244 -0.0190 -0.1404 -0.0114
18327TIP3    H176472   3.361   3.133   0.183  1.0851 -0.0347 -0.3135
18327TIP3    H276473   3.283   3.216   0.282 -0.6094 -0.5380 -1.2012
18328TIP3   OH276474   0.448   3.187  16.180  0.0075  0.0151  0.6306
18328TIP3    H176475   0.513   3.126  16.215 -0.0913 -1.1188 -1.0469
18328TIP3    H276476   0.500   3.263  16.151  0.0422  1.2532  3.5551
18329TIP3   OH276477   2.039   1.458  15.260 -0.0687 -0.4083  0.3800
18329TIP3    H176478   2.006   1.374  15.227  0.6353 -0.7039  0.4010
18329TIP3    H276479   2.132   1.456  15.241 -0.1262  0.5902 -0.0661
18330TIP3   OH276480   3.666   5.802  16.285  0.2632  0.3610  0.3041
18330TIP3    H176481   3.663   5.738  16.356 -0.4030 -0.6970 -0.6420
18330TIP3    H276482   3.758   5.808  16.261  0.2035 -1.2290 -0.4357
18331TIP3   OH276483   1.702   4.073   1.348  0.8738 -0.2788  0.0096
18331TIP3    H176484   1.718   4.148   1.407  1.9033 -0.4882  0.0036
18331TIP3    H276485   1.680   4.113   1.264 -0.8270  0.0310  0.5462
18332TIP3   OH276486   3.481   5.229  14.324  0.2817 -0.1366 -0.0113
18332TIP3    H176487   3.428   5.237  14.245  0.3113  0.3167  0.0135
18332TIP3    H276488   3.450   5.299  14.381  1.7915  0.9893 -0.5040
18333TIP3   OH276489   2.210   2.009  12.079 -0.7104  0.1438  0.3120
18333TIP3    H176490   2.141   2.063  12.119  0.8439  0.9085  2.1056
18333TIP3    H276491   2.181   1.919  12.092 -2.4405  0.4467 -1.0404
18334TIP3   OH276492   1.977   5.388  15.987  0.7224 -0.3219 -0.2652
18334TIP3    H176493   1.931   5.401  15.903  1.2433  0.0073 -0.5041
18334TIP3    H276494   2.068   5.406  15.967  0.9500 -0.8943  0.2295
18335TIP3   OH276495   4.456   5.888   1.244  0.3626 -0.3137  0.1336
18335TIP3    H176496   4.537   5.904   1.292  0.3072 -0.4491  0.2744
18335TIP3    H276497   4.455   5.955   1.176  0.0313  0.3997  0.8274
18336TIP3   OH276498   6.262   3.430   1.000 -0.1405 -0.2215 -0.4083
18336TIP3    H176499   6.202   3.495   0.965 -1.3898  0.4172  2.5857
18336TIP3    H276500   6.336   3.481   1.034 -1.6951 -0.0466  3.0873
18337TIP3   OH276501   4.808   6.717  16.888 -0.1747  0.7189 -0.0081
18337TIP3    H176502   4.872   6.661  16.933  1.7328  1.8261 -1.1853
18337TIP3    H276503   4.828   6.707  16.795 -1.1486  1.7787 -0.3598
18338TIP3   OH276504   3.106   0.084  10.704  0.4747 -0.3631 -0.2568
18338TIP3    H176505   3.181   0.050  10.753 -0.8532  0.1502  2.3271
18338TIP3    H276506   3.144   0.123  10.625  3.3190  2.3851  2.2264
18339TIP3   OH276507   1.932   4.623  12.227 -0.4689 -0.3118  0.0778
18339TIP3    H176508   1.856   4.664  12.270 -0.3869 -1.0842  0.9889
18339TIP3    H276509   1.965   4.561  12.292 -0.5133 -1.7415 -1.2122
18340TIP3   OH276510   1.181   6.740   0.319 -0.2804  0.0472 -0.4686
18340TIP3    H176511   1.248   6.764   0.383 -1.0617  2.3181 -0.4155
18340TIP3    H276512   1.208   6.653   0.288  2.0775  0.4172  0.3206
18341TIP3   OH276513   3.591   3.414   5.705 -0.5450  0.2050 -0.4342
18341TIP3    H176514   3.599   3.345   5.771 -1.1851 -0.2838 -0.8502
18341TIP3    H276515   3.594   3.496   5.754  0.8708 -0.0868  0.0090
18342TIP3   OH276516   0.476   0.496  14.096  0.0369  0.2322  0.0820
18342TIP3    H176517   0.536   0.474  14.025 -2.9747 -1.4154 -2.1939
18342TIP3    H276518   0.391   0.507  14.053 -1.9926 -0.9029  3.4392
18343TIP3   OH276519   0.367   3.452  15.333  0.3048 -0.4175  0.3870
18343TIP3    H176520   0.396   3.541  15.354  0.1047 -0.7520  2.1857
18343TIP3    H276521   0.287   3.465  15.281  1.0113  0.4446 -0.5181
18344TIP3   OH276522   5.683   2.306  13.099 -0.1043  0.3318  0.8098
18344TIP3    H176523   5.733   2.383  13.074  1.0613  0.2762  2.7338
18344TIP3    H276524   5.593   2.336  13.105 -0.5413  0.3449 -3.1245
18345TIP3   OH276525   5.712   5.819  13.545 -0.3528  0.3028 -0.4819
18345TIP3    H176526   5.805   5.841  13.550 -0.3973  0.6686 -1.1903
18345TIP3    H276527   5.682   5.821  13.636  0.5177 -0.6811 -0.1563
18346TIP3   OH276528   4.743   5.696   3.125 -0.2781 -0.4169  0.4453
18346TIP3    H176529   4.798   5.702   3.203 -0.2961  0.4592  0.4036
18346TIP3    H276530   4.801   5.721   3.053 -0.2215 -1.3646  0.1420
18347TIP3   OH276531   2.078   1.655   1.799  0.2514 -0.5416 -0.5750
18347TIP3    H176532   2.096   1.573   1.846 -0.2150  0.1519  0.8570
18347TIP3    H276533   2.078   1.722   1.867 -2.4984  0.2419 -1.2206
18348TIP3   OH276534   1.410   4.417   1.219 -0.0271 -0.6124 -0.5338
18348TIP3    H176535   1.368   4.495   1.255  0.8500 -0.2507 -0.2675
18348TIP3    H276536   1.343   4.349   1.224  0.6196 -1.2111  3.8307
18349TIP3   OH276537   0.916   1.546   5.889 -0.3289 -0.1013 -0.0705
18349TIP3    H176538   0.856   1.563   5.817 -2.4331 -0.2687  1.5600
18349TIP3    H276539   0.943   1.632   5.920 -0.3857 -0.0159 -0.2602
18350TIP3   OH276540   3.597   3.060  13.938 -0.1758  0.4042  0.0774
18350TIP3    H176541   3.656   3.135  13.948  0.2273  0.0765  0.1534
18350TIP3    H276542   3.601   3.039  13.845  2.8471 -2.0379  0.5982
18351TIP3   OH276543   4.989   3.198  13.368 -0.0416 -0.1929  0.2724
18351TIP3    H176544   4.905   3.206  13.323 -0.5302 -1.5466  0.9069
18351TIP3    H276545   5.003   3.104  13.378  1.4835  0.0110  0.3199
18352TIP3   OH276546   0.834   5.299   4.990  0.0418  0.2625 -0.4293
18352TIP3    H176547   0.893   5.355   4.938 -0.0833  0.9839  0.1764
18352TIP3    H276548   0.750   5.303   4.944  0.3446 -0.4276 -1.0626
18353TIP3   OH276549   6.512   4.894  14.555  0.1636  0.1246 -0.0882
18353TIP3    H176550   6.553   4.964  14.608 -2.1690 -0.2880  2.4802
18353TIP3    H276551   6.487   4.938  14.474  0.9885  1.6391  0.4200
18354TIP3   OH276552   3.974   4.171   2.266 -0.3254  0.0167  0.1660
18354TIP3    H176553   3.942   4.124   2.343 -1.1095  0.9029  0.3955
18354TIP3    H276554   4.029   4.241   2.302 -2.6760  2.0140  0.1335
18355TIP3   OH276555   3.530   4.488  12.222 -0.8957 -0.3734 -0.2156
18355TIP3    H176556   3.605   4.546  12.234 -0.3882 -0.2888 -3.0342
18355TIP3    H276557   3.530   4.432  12.300 -0.0419  1.8627  1.5144
18356TIP3   OH276558   0.444   4.357   5.911  0.2606  0.5119 -0.3201
18356TIP3    H176559   0.500   4.333   5.986  0.5901 -1.5770 -1.1856
18356TIP3    H276560   0.371   4.405   5.951 -0.0735 -1.3433  1.4981
18357TIP3   OH276561   1.735   6.793   4.514  0.0685 -0.7877  0.1498
18357TIP3    H176562   1.693   6.866   4.559  0.1484  0.7431 -2.1172
18357TIP3    H276563   1.797   6.758   4.578 -0.5016  0.6480  1.5469
18358TIP3   OH276564   4.855   4.557   5.059 -0.4363  0.7765 -0.0191
18358TIP3    H176565   4.899   4.476   5.087  1.3241  2.2717  1.8089
18358TIP3    H276566   4.794   4.577   5.130 -0.6395  1.2396 -0.3186
18359TIP3   OH276567   3.199   0.495  16.136  0.0722  0.0124  0.0158
18359TIP3    H176568   3.192   0.568  16.075  0.2188 -0.7958 -0.9932
18359TIP3    H276569   3.225   0.421  16.082  3.9342  0.0228  1.5599
18360TIP3   OH276570   5.055   2.961   3.804  0.5268 -0.6114  0.4346
18360TIP3    H176571   5.076   3.000   3.719  0.6795  0.2726  0.8624
18360TIP3    H276572   4.989   2.895   3.784  0.6151 -0.4658 -0.3843
18361TIP3   OH276573   6.241   1.659  12.351  0.4282  0.2660 -0.5000
18361TIP3    H176574   6.202   1.588  12.299  1.6372 -0.3465 -0.6184
18361TIP3    H276575   6.170   1.690  12.406 -0.8893  0.8922 -2.4527
18362TIP3   OH276576   4.730   0.893  11.886  0.4214 -0.7899 -0.3045
18362TIP3    H176577   4.703   0.801  11.887  2.6460 -1.5094  0.7296
18362TIP3    H276578   4.797   0.899  11.954 -0.6619  1.9582  0.6504
18363TIP3   OH276579   0.456   4.879   4.182 -0.2412 -0.9065 -0.3615
18363TIP3    H176580   0.429   4.892   4.091 -2.7415 -0.4987  0.3540
18363TIP3    H276581   0.374   4.871   4.231  1.0210 -2.9301  1.6466
18364TIP3   OH276582   6.548   4.816  11.332  0.0588  0.2144  0.1340
18364TIP3    H176583   6.623   4.757  11.322  0.4131  0.1038  2.7583
18364TIP3    H276584   6.570   4.891  11.276  0.5912 -1.1706 -1.6134
18365TIP3   OH276585   3.884   0.855  12.068  0.0199 -0.0321 -0.7350
18365TIP3    H176586   3.890   0.944  12.102  0.1467  0.1608 -1.2434
18365TIP3    H276587   3.906   0.863  11.975 -0.2337 -0.5547 -0.8473
18366TIP3   OH276588   4.087   6.166   0.900  0.2533 -0.4028  0.2079
18366TIP3    H176589   4.087   6.251   0.856 -1.4934 -1.1655 -1.4212
18366TIP3    H276590   4.000   6.130   0.883 -0.5878 -0.8136  4.4085
18367TIP3   OH276591   6.250   3.626  16.142  0.1358 -0.0863  0.5039
18367TIP3    H176592   6.246   3.641  16.047  1.3962  0.1209  0.4670
18367TIP3    H276593   6.197   3.695  16.180 -0.2061 -0.0423 -0.0358
18368TIP3   OH276594   0.779   5.930   4.709  0.1376 -0.4373  0.0441
18368TIP3    H176595   0.703   5.894   4.754  0.4466 -0.7158  0.3486
18368TIP3    H276596   0.762   5.913   4.616 -1.6372  2.2645 -0.2291
18369TIP3   OH276597   0.560   5.164   4.448 -0.0649 -0.2931 -0.3617
18369TIP3    H176598   0.474   5.177   4.488  0.4968 -0.0564  0.8196
18369TIP3    H276599   0.610   5.118   4.515  1.1967  0.9484 -0.4114
18370TIP3   OH276600   3.370   5.887   5.244 -0.3153  0.4755 -0.7685
18370TIP3    H176601   3.363   5.971   5.289  0.7126  0.5436 -0.7170
18370TIP3    H276602   3.435   5.838   5.295 -2.6751 -1.3445  0.7054
18371TIP3   OH276603   3.734   4.665  13.324  0.3150  0.0190 -0.3824
18371TIP3    H176604   3.688   4.585  13.351  2.7397 -1.3836 -0.0672
18371TIP3    H276605   3.730   4.722  13.400  0.6442 -0.8351  0.3020
18372TIP3   OH276606   5.380   1.406  17.026  0.2459  0.6918  0.1657
18372TIP3    H176607   5.411   1.497  17.025 -0.8708  1.1052  0.9359
18372TIP3    H276608   5.317   1.402  16.954 -0.7261  0.9244  0.9835
18373TIP3   OH276609   2.777   6.816   4.388  0.5264 -0.1634  0.0408
18373TIP3    H176610   2.870   6.833   4.400  1.2546 -3.0903 -0.5551
18373TIP3    H276611   2.758   6.846   4.299  0.7113  1.0696  0.4081
18374TIP3   OH276612   5.707   1.239   4.237 -0.2898  0.6395  0.0530
18374TIP3    H176613   5.757   1.238   4.156  2.6926 -0.6445  1.7512
18374TIP3    H276614   5.748   1.308   4.290 -0.5908 -0.1452  1.3542
18375TIP3   OH276615   4.467   1.117   2.391 -0.1322 -0.1029  0.0543
18375TIP3    H176616   4.506   1.094   2.307  1.6444 -1.5943  1.2183
18375TIP3    H276617   4.415   1.195   2.373  1.0678  0.2397 -2.1905
18376TIP3   OH276618   0.331   2.939   2.702  0.0836 -0.4503  0.6589
18376TIP3    H176619   0.302   3.009   2.643  0.3090 -1.1738 -0.3222
18376TIP3    H276620   0.335   2.981   2.788  2.3420  1.3572 -0.2358
18377TIP3   OH276621   0.653   1.510   1.580 -0.0344  0.1159 -0.9732
18377TIP3    H176622   0.657   1.592   1.530 -0.6648  0.1097 -1.0366
18377TIP3    H276623   0.630   1.538   1.668  0.3003  0.0529 -0.8644
18378TIP3   OH276624   6.823   5.935  12.797  0.0389 -0.4984 -0.7763
18378TIP3    H176625   6.842   5.848  12.762  0.4471 -0.2856 -1.0891
18378TIP3    H276626   6.890   5.991  12.759 -1.3458  0.3237 -2.1358
18379TIP3   OH276627   1.779   0.368   3.003 -0.2827  0.2709 -0.2248
18379TIP3    H176628   1.718   0.294   3.004 -0.5793  0.5126 -0.4225
18379TIP3    H276629   1.774   0.404   3.092  0.5948 -0.5407  0.1668
18380TIP3   OH276630   3.982   0.530  16.875 -0.1215 -0.3611 -0.0023
18380TIP3    H176631   3.954   0.466  16.940 -0.7324 -1.6390 -1.4742
18380TIP3    H276632   4.030   0.479  16.809 -0.2875  0.7322 -1.0160
18381TIP3   OH276633   3.615   1.002  11.314 -0.0425  0.2359  0.1761
18381TIP3    H176634   3.611   1.018  11.220 -0.4334  2.2892  0.4763
18381TIP3    H276635   3.524   0.981  11.338 -0.0638  0.3195  0.1710
18382TIP3   OH276636   2.991   6.738  16.289  0.0577  0.1182  0.0574
18382TIP3    H176637   3.002   6.833  16.282  0.8147  0.0763  0.5634
18382TIP3    H276638   3.015   6.719  16.380  1.9637 -0.8245 -0.5968
18383TIP3   OH276639   2.677   5.066  13.588  0.3700 -0.2500  0.3338
18383TIP3    H176640   2.621   5.142  13.574  0.9937  0.1421 -0.0905
18383TIP3    H276641   2.724   5.085  13.669  0.3050 -0.3259  0.3895
18384TIP3   OH276642   6.754   2.988   5.970  0.4916  0.4396  0.1908
18384TIP3    H176643   6.718   3.021   5.888 -1.1381 -0.1739  0.6322
18384TIP3    H276644   6.844   2.962   5.947  1.0577  2.8644 -0.7031
18385TIP3   OH276645   1.523   3.252  13.968  0.3201  0.7364  0.0046
18385TIP3    H176646   1.444   3.208  13.937 -0.3801 -0.5868  3.1817
18385TIP3    H276647   1.585   3.245  13.896 -1.4098 -1.1561 -1.4070
18386TIP3   OH276648   4.944   1.169  12.352 -0.0907  0.4371 -0.1032
18386TIP3    H176649   4.996   1.185  12.430 -0.3940 -0.4562  0.2901
18386TIP3    H276650   4.945   1.253  12.305 -0.6936  1.2945  1.3282
18387TIP3   OH276651   0.754   1.153   0.209 -0.1760 -0.0169  1.0633
18387TIP3    H176652   0.822   1.153   0.141  2.6822 -0.7358  3.7244
18387TIP3    H276653   0.679   1.197   0.167  1.6643  0.3281 -2.2367
18388TIP3   OH276654   1.191   2.711  13.910  0.1525 -0.8531  0.3030
18388TIP3    H176655   1.187   2.806  13.923  1.5431 -0.7134 -0.0700
18388TIP3    H276656   1.278   2.696  13.874 -0.0668 -2.2778  0.3087
18389TIP3   OH276657   6.694   6.340   6.140  0.5229 -0.8947 -0.0314
18389TIP3    H176658   6.620   6.361   6.082  1.6545 -2.7749 -2.3551
18389TIP3    H276659   6.770   6.341   6.082  2.4406  1.1646  2.3156
18390TIP3   OH276660   6.690   3.509  17.024  0.0634 -0.2642 -0.1343
18390TIP3    H176661   6.685   3.458  16.944 -1.4937  0.1605 -0.3342
18390TIP3    H276662   6.767   3.475  17.070 -0.5930 -2.3656 -0.5242
18391TIP3   OH276663   4.526   4.693   1.984  0.2226  0.2645 -0.0779
18391TIP3    H176664   4.592   4.706   1.916 -0.7660  0.5856 -1.0008
18391TIP3    H276665   4.482   4.612   1.958  0.4179 -0.0877  0.6761
18392TIP3   OH276666   2.890   4.749  11.978 -0.1942 -0.3504 -0.0804
18392TIP3    H176667   2.955   4.784  11.917  0.1720  0.1883  0.6021
18392TIP3    H276668   2.923   4.662  12.001 -0.4301 -0.6297 -0.7852
18393TIP3   OH276669   3.611   0.801  14.381 -0.8128  0.6431 -0.0305
18393TIP3    H176670   3.669   0.806  14.457 -0.9603 -1.9588  0.3504
18393TIP3    H276671   3.670   0.809  14.305  0.1494 -1.9832  0.3452
18394TIP3   OH276672   6.475   3.595   1.042  0.6225  0.1193  0.2007
18394TIP3    H176673   6.494   3.658   1.112  1.2688  0.7784 -0.5617
18394TIP3    H276674   6.558   3.548   1.029  0.5290  0.0627 -0.1933
18395TIP3   OH276675   3.603   4.312  16.294  0.5013 -0.0212 -0.4694
18395TIP3    H176676   3.574   4.404  16.301 -0.6850 -0.4169  0.1946
18395TIP3    H276677   3.697   4.315  16.309  0.0873  0.7871  2.8325
18396TIP3   OH276678   5.172   1.308  13.693  0.1815 -0.8173  0.4405
18396TIP3    H176679   5.174   1.275  13.783  0.6292 -1.5534  0.1736
18396TIP3    H276680   5.096   1.264  13.653 -0.0486 -0.4519  0.4748
18397TIP3   OH276681   2.282   5.206  13.363 -0.0054 -0.3103 -0.8567
18397TIP3    H176682   2.209   5.262  13.337 -0.8296  0.4447  2.6483
18397TIP3    H276683   2.350   5.268  13.391  2.9069 -0.8958 -5.5697
18398TIP3   OH276684   0.777   2.989   0.312 -0.4236  0.7655 -0.1146
18398TIP3    H176685   0.824   3.002   0.230  0.7385  0.0261  0.4181
18398TIP3    H276686   0.845   2.984   0.379 -1.2719 -0.0721  0.7096
18399TIP3   OH276687   0.606   4.736   2.544 -0.3264 -0.3543 -0.3180
18399TIP3    H176688   0.650   4.754   2.461  0.7218  0.5026  0.3899
18399TIP3    H276689   0.520   4.701   2.519  0.0645 -0.3501 -1.7495
18400TIP3   OH276690   0.774   6.165   4.433  0.8548 -0.4565 -0.7255
18400TIP3    H176691   0.746   6.175   4.524  1.8129 -2.6460 -0.1132
18400TIP3    H276692   0.862   6.202   4.430  0.3047  0.8612 -1.1306
18401TIP3   OH276693   5.269   4.019   5.585 -0.2113  0.2159  0.1928
18401TIP3    H176694   5.300   4.093   5.532 -0.4455  1.1747  1.3737
18401TIP3    H276695   5.177   4.038   5.602 -0.2393 -0.2877  0.6211
18402TIP3   OH276696   3.625   0.909   5.147 -0.0101 -0.3634  0.4083
18402TIP3    H176697   3.692   0.965   5.108  0.4436  0.2256  1.9354
18402TIP3    H276698   3.542   0.943   5.114  0.3875 -0.4754 -0.7330
18403TIP3   OH276699   4.323   2.314  12.208  0.3351 -0.5964  0.4251
18403TIP3    H176700   4.368   2.342  12.288 -0.5081 -1.2732  1.1460
18403TIP3    H276701   4.369   2.361  12.138 -0.0940  1.4582  1.4452
18404TIP3   OH276702   0.250   0.801  15.765 -0.2965 -0.0156 -0.3723
18404TIP3    H176703   0.187   0.792  15.693 -2.0621 -0.9001  1.1864
18404TIP3    H276704   0.223   0.880  15.811  0.2963  0.0844 -0.1846
18405TIP3   OH276705   6.460   1.915  11.782  0.3370  0.6808 -1.1488
18405TIP3    H176706   6.421   1.884  11.700  0.6736 -3.1261 -0.0401
18405TIP3    H276707   6.398   1.889  11.850  1.8057  0.2774  0.0964
18406TIP3   OH276708   6.364   1.071  14.085  0.2235 -0.8122 -0.1482
18406TIP3    H176709   6.272   1.093  14.071  0.2296 -0.9833 -0.4807
18406TIP3    H276710   6.365   0.976  14.099  0.0686 -0.5084  2.3983
18407TIP3   OH276711   0.821   3.018  12.343  0.3046 -0.1483  0.0083
18407TIP3    H176712   0.749   2.989  12.288 -0.2218  1.5157 -0.2197
18407TIP3    H276713   0.899   3.010  12.287  0.3303 -1.9015  0.2414
18408TIP3   OH276714   2.022   1.487   2.780 -0.0848  0.0112  0.2060
18408TIP3    H176715   1.948   1.427   2.787 -1.4869  1.5277 -0.7593
18408TIP3    H276716   2.093   1.433   2.746 -1.3652 -1.0679 -0.8996
18409TIP3   OH276717   4.776   3.436   2.486 -0.1049 -0.1274 -0.6174
18409TIP3    H176718   4.793   3.488   2.564 -1.8944 -0.4818  0.0574
18409TIP3    H276719   4.721   3.364   2.517 -0.1849 -0.7259 -2.0757
18410TIP3   OH276720   2.896   2.356  13.800 -0.4751  0.3313 -0.2807
18410TIP3    H176721   2.918   2.407  13.878 -0.6109  3.0459 -1.9127
18410TIP3    H276722   2.974   2.304  13.783  0.0501  0.6884  0.9009
18411TIP3   OH276723   6.445   1.465  14.506 -0.6411 -0.2297  0.0487
18411TIP3    H176724   6.415   1.379  14.478  1.5753 -0.1649 -3.0174
18411TIP3    H276725   6.501   1.447  14.581 -1.2116 -1.2965  0.2420
18412TIP3   OH276726   5.976   1.634  17.196 -0.3342  0.4152 -0.0916
18412TIP3    H176727   5.961   1.540  17.187 -2.1618  0.7187 -0.5736
18412TIP3    H276728   6.041   1.654  17.129 -1.0095 -0.2821 -0.9849
18413TIP3   OH276729   1.735   0.193  17.015 -0.0454  0.3346 -0.8217
18413TIP3    H176730   1.700   0.106  17.033 -1.6337  1.1317  0.2149
18413TIP3    H276731   1.829   0.184  17.027 -0.2699 -1.0473  0.1469
18414TIP3   OH276732   1.920   3.307   1.208  0.2147  0.5915 -0.1422
18414TIP3    H176733   1.846   3.367   1.214  0.7676  1.1386  1.6253
18414TIP3    H276734   1.966   3.316   1.291  1.8938 -0.2458 -0.9304
18415TIP3   OH276735   3.350   5.241   3.789  0.2263  0.1314 -0.0934
18415TIP3    H176736   3.364   5.147   3.777 -1.5533 -0.0624 -1.0689
18415TIP3    H276737   3.427   5.271   3.837  0.5316 -1.9523  0.8461
18416TIP3   OH276738   1.941   6.469  15.273 -0.0579 -0.1448  0.0060
18416TIP3    H176739   1.849   6.493  15.271 -0.6219 -2.0365  0.9906
18416TIP3    H276740   1.984   6.532  15.215 -1.7155  1.7007  0.7041
18417TIP3   OH276741   5.563   2.429   4.328  0.7032  0.1231  0.4896
18417TIP3    H176742   5.609   2.512   4.339 -0.4379  1.0773 -1.5363
18417TIP3    H276743   5.503   2.443   4.255  0.9119 -2.6639 -0.3656
18418TIP3   OH276744   1.609   3.165  15.197  0.0942 -0.9741 -0.3509
18418TIP3    H176745   1.533   3.155  15.254  1.4307 -2.5700  1.2767
18418TIP3    H276746   1.572   3.176  15.109 -2.0568  1.6429  0.7364
18419TIP3   OH276747   5.226   5.554  14.948 -0.3053 -0.0003  0.3702
18419TIP3    H176748   5.219   5.562  14.853 -0.5324 -2.4155  0.1362
18419TIP3    H276749   5.320   5.548  14.964 -0.3120 -0.8489  0.1470
18420TIP3   OH276750   2.175   5.638   1.207  0.3654 -0.0498 -0.0769
18420TIP3    H176751   2.174   5.716   1.263  0.1916 -0.6853  0.8262
18420TIP3    H276752   2.083   5.618   1.192  0.3977 -0.7688  0.6742
18421TIP3   OH276753   3.251   5.984  11.951  0.3818  0.0089  0.8311
18421TIP3    H176754   3.198   6.058  11.923  2.0621  0.7189 -0.6936
18421TIP3    H276755   3.208   5.907  11.914 -0.1136  0.4663  0.4473
18422TIP3   OH276756   6.696   4.817  10.728 -0.0044 -0.4570 -0.1273
18422TIP3    H176757   6.754   4.866  10.670  1.3161 -1.1354  0.5694
18422TIP3    H276758   6.719   4.725  10.714 -0.4875 -0.7043  0.6234
18423TIP3   OH276759   3.295   1.382  15.960  0.6158 -0.3763 -0.0927
18423TIP3    H176760   3.209   1.385  15.919  1.0264 -1.2734 -1.0533
18423TIP3    H276761   3.298   1.299  16.006  0.3954  0.3491  1.2781
18424TIP3   OH276762   2.454   1.996   5.843  0.1124  0.0727  0.1325
18424TIP3    H176763   2.395   2.031   5.776 -0.0123  1.2849  0.8347
18424TIP3    H276764   2.473   1.907   5.815 -1.0954  0.0665 -0.7438
18425TIP3   OH276765   4.644   3.856   3.899  0.3634  0.4117  0.2477
18425TIP3    H176766   4.711   3.848   3.832 -0.9331  1.3103 -1.2241
18425TIP3    H276767   4.563   3.833   3.854 -0.7940  2.7379  0.9917
18426TIP3   OH276768   4.991   4.129   5.062 -0.3035 -0.1073 -0.1492
18426TIP3    H176769   4.897   4.149   5.069 -0.0660  0.6642  1.0825
18426TIP3    H276770   5.010   4.139   4.968 -1.3793  0.0770 -0.3639
18427TIP3   OH276771   2.335   2.285  11.894  0.8067  0.2701 -0.1480
18427TIP3    H176772   2.303   2.341  11.823  0.4563 -0.1603 -0.3337
18427TIP3    H276773   2.406   2.234  11.854 -0.2069 -0.8593 -0.5354
18428TIP3   OH276774   5.492   6.823  13.066 -0.2927  0.0902 -0.0593
18428TIP3    H176775   5.400   6.839  13.047 -0.3596  0.7052  0.7540
18428TIP3    H276776   5.502   6.728  13.060 -1.4411 -0.1890  1.8620
18429TIP3   OH276777   2.398   0.962  10.804  0.0023  0.6584  0.0592
18429TIP3    H176778   2.359   1.033  10.753 -1.2505 -1.7144 -2.5823
18429TIP3    H276779   2.325   0.902  10.820  1.6693 -1.9507 -1.3891
18430TIP3   OH276780   1.348   4.605   3.725  0.5953 -0.6216 -0.5415
18430TIP3    H176781   1.289   4.658   3.779  1.1792 -0.5727  0.0513
18430TIP3    H276782   1.298   4.588   3.644 -0.8915 -1.9360  0.5837
18431TIP3   OH276783   0.387   1.199  11.245 -0.7576 -0.3994 -0.1905
18431TIP3    H176784   0.325   1.154  11.303 -1.0116 -0.8043 -0.7586
18431TIP3    H276785   0.409   1.133  11.179  0.1899 -0.2170 -0.0640
18432TIP3   OH276786   0.456   4.107  15.777 -0.1719  0.1665  0.1856
18432TIP3    H176787   0.440   4.034  15.717 -0.2955 -0.2662  0.7377
18432TIP3    H276788   0.493   4.176  15.722 -1.7757  0.3724 -0.7173
18433TIP3   OH276789   0.602   2.445  11.674  0.1977 -0.2821 -0.5607
18433TIP3    H176790   0.666   2.516  11.680 -0.9545  0.7291  3.3749
18433TIP3    H276791   0.529   2.483  11.624 -0.5767  1.6876  1.8230
18434TIP3   OH276792   1.200   6.114   2.155  0.2012 -0.2356 -0.3101
18434TIP3    H176793   1.218   6.173   2.082  1.2240 -1.7995 -1.3944
18434TIP3    H276794   1.267   6.136   2.220 -0.9297  1.4016  0.3646
18435TIP3   OH276795   4.798   3.973  11.937 -0.0311  0.2100 -0.1524
18435TIP3    H176796   4.758   3.922  11.867  1.0633  1.3470 -1.6666
18435TIP3    H276797   4.873   3.921  11.965 -0.3003 -0.1122 -0.0254
18436TIP3   OH276798   1.149   2.563   5.377 -0.5475  0.4447  0.0034
18436TIP3    H176799   1.057   2.543   5.392 -0.2470 -0.4620  0.6929
18436TIP3    H276800   1.148   2.646   5.329 -1.7289  0.2073 -0.4026
18437TIP3   OH276801   0.732   3.035  16.120  0.0071 -0.7216  0.0286
18437TIP3    H176802   0.660   2.976  16.100  0.2400 -1.0131  0.0420
18437TIP3    H276803   0.786   3.035  16.040 -0.8305  0.7142 -0.5773
18438TIP3   OH276804   6.205   5.873   2.246 -0.0162 -0.2791 -0.0630
18438TIP3    H176805   6.206   5.781   2.218  2.0420  0.0505 -1.2797
18438TIP3    H276806   6.208   5.923   2.165  2.2567  0.7765  0.5752
18439TIP3   OH276807   1.571   4.788   4.860 -0.1338  0.2970  0.4740
18439TIP3    H176808   1.521   4.867   4.882 -0.1431 -0.0428  1.7205
18439TIP3    H276809   1.511   4.716   4.877  0.0324 -0.0117 -0.2174
18440TIP3   OH276810   5.353   0.395   2.789  0.5311  0.5296 -0.2410
18440TIP3    H176811   5.281   0.449   2.822  0.4765 -0.2209  0.9241
18440TIP3    H276812   5.426   0.414   2.847  0.3499 -1.0303  0.5754
18441TIP3   OH276813   3.959   4.585   4.807 -0.1502 -0.4960 -0.1647
18441TIP3    H176814   4.033   4.526   4.795  1.4607  1.4430 -0.4262
18441TIP3    H276815   3.947   4.590   4.901 -0.7067 -1.6654 -0.1579
18442TIP3   OH276816   4.054   5.100   2.915  0.8771 -0.0039  0.1862
18442TIP3    H176817   4.140   5.098   2.872  0.0810  1.5574 -1.6145
18442TIP3    H276818   4.064   5.165   2.984  0.5230  2.1793 -1.6764
18443TIP3   OH276819   4.981   4.722   0.074  0.2216 -0.5376 -0.0475
18443TIP3    H176820   5.000   4.770  -0.007  0.2356 -2.0188 -0.9699
18443TIP3    H276821   4.960   4.633   0.045 -0.4532 -0.9375  1.5417
18444TIP3   OH276822   5.947   6.492  11.392 -0.1606 -0.0297  0.7459
18444TIP3    H176823   5.908   6.532  11.470 -0.3123 -0.1414  0.7277
18444TIP3    H276824   5.876   6.442  11.352 -0.5933  1.4470 -0.4522
18445TIP3   OH276825   3.542   0.959   4.792 -0.0473  0.4050  0.3947
18445TIP3    H176826   3.457   0.941   4.754  0.0247  0.5282  0.1755
18445TIP3    H276827   3.597   0.886   4.763 -0.3719 -0.3072  1.5040
18446TIP3   OH276828   5.293   3.481  13.017  0.2497  0.1408  0.5672
18446TIP3    H176829   5.257   3.488  12.928  0.4200 -0.8322  0.4141
18446TIP3    H276830   5.224   3.515  13.073  0.6621  2.0501 -0.0259
18447TIP3   OH276831   0.866   6.191   3.316 -0.6532 -0.2397 -0.3028
18447TIP3    H176832   0.792   6.206   3.258 -1.0287  0.2120  0.2854
18447TIP3    H276833   0.882   6.275   3.358 -1.2175 -0.8459  1.2039
18448TIP3   OH276834   6.273   6.491   2.942  0.0962  0.3971 -0.3094
18448TIP3    H176835   6.245   6.482   3.033  0.9955 -3.4945 -0.2366
18448TIP3    H276836   6.194   6.476   2.890 -0.0174  0.5089 -0.1688
18449TIP3   OH276837   0.321   3.605  13.692 -0.3249  0.1922 -0.6771
18449TIP3    H176838   0.251   3.560  13.740  0.3163 -0.5955 -0.4563
18449TIP3    H276839   0.374   3.646  13.761 -0.7431  1.0550 -0.8619
18450TIP3   OH276840   5.746   4.898   4.867 -0.1466  0.0924  0.1158
18450TIP3    H176841   5.824   4.922   4.918 -0.5621  0.1136  0.7503
18450TIP3    H276842   5.740   4.966   4.800  2.0173 -1.4290 -1.7907
18451TIP3   OH276843   3.483   6.150   4.415 -0.2112  0.4425  0.4434
18451TIP3    H176844   3.544   6.153   4.341  0.2729  0.9813  0.8620
18451TIP3    H276845   3.483   6.238   4.451 -2.7775  1.0320 -0.7572
18452TIP3   OH276846   0.717   3.908  12.759 -0.4173  0.0990 -0.4344
18452TIP3    H176847   0.686   3.889  12.847 -0.8367  1.0593 -0.3627
18452TIP3    H276848   0.648   3.874  12.701 -1.1788  1.3595 -0.3065
18453TIP3   OH276849   6.728   2.681  12.130 -0.1089  0.2166  0.5138
18453TIP3    H176850   6.819   2.707  12.118 -0.5948  2.1325  0.6750
18453TIP3    H276851   6.716   2.608  12.069  1.2511  0.6311 -0.2982
18454TIP3   OH276852   6.428   2.560  16.415 -0.4062  0.1416 -0.1906
18454TIP3    H176853   6.513   2.569  16.371 -0.2332  0.3282  0.1780
18454TIP3    H276854   6.403   2.649  16.438 -0.8560  0.1214 -0.5783
18455TIP3   OH276855   0.300   0.508   5.888 -0.6062 -0.4724  0.4319
18455TIP3    H176856   0.250   0.483   5.810 -0.5918 -0.1520  0.3201
18455TIP3    H276857   0.336   0.594   5.867 -2.2725  0.5471  1.5641
18456TIP3   OH276858   3.395   2.773   3.899  0.3979 -0.3505  0.1415
18456TIP3    H176859   3.481   2.807   3.874  0.6901  0.0129  1.5413
18456TIP3    H276860   3.409   2.736   3.987 -0.9132 -0.1373  0.4575
18457TIP3   OH276861   2.712   2.336  11.602 -0.3950  0.0088  0.2090
18457TIP3    H176862   2.779   2.379  11.549  0.1473 -0.9154  0.1224
18457TIP3    H276863   2.631   2.348  11.553  0.2018 -1.4457 -1.2262
18458TIP3   OH276864   5.104   4.196  13.787 -0.3022 -0.0498  0.2697
18458TIP3    H176865   5.023   4.153  13.814  0.4810 -3.0939 -1.8004
18458TIP3    H276866   5.174   4.139  13.818  1.0489  1.6346  0.5169
18459TIP3   OH276867   3.150   4.627   3.852 -0.0617 -0.4364  0.1984
18459TIP3    H176868   3.060   4.653   3.872 -0.2501 -2.0409  1.6921
18459TIP3    H276869   3.143   4.575   3.772 -0.6960 -1.7023  1.0502
18460TIP3   OH276870   6.434   3.423   2.478 -0.5749 -0.6104  0.0512
18460TIP3    H176871   6.438   3.349   2.417  1.7446 -0.3077 -0.2379
18460TIP3    H276872   6.346   3.458   2.466 -0.7515 -1.5734 -1.9231
18461TIP3   OH276873   4.261   5.106   1.599 -0.1714 -0.0093  0.4711
18461TIP3    H176874   4.275   5.151   1.682 -1.0938  0.0273  0.6201
18461TIP3    H276875   4.348   5.094   1.563  0.2763 -0.3381  1.6120
18462TIP3   OH276876   2.309   6.593  12.292  0.4263  0.0568  0.6386
18462TIP3    H176877   2.393   6.639  12.292  0.8270 -0.5196 -1.6539
18462TIP3    H276878   2.332   6.500  12.299  0.0108 -0.1052 -0.0306
18463TIP3   OH276879   0.524   2.634   6.601  0.0352 -0.1344  0.4192
18463TIP3    H176880   0.458   2.701   6.621  0.9254  0.6576  0.7927
18463TIP3    H276881   0.507   2.564   6.664  0.0023  0.3907  1.0045
18464TIP3   OH276882   4.592   6.321   2.451 -0.2222  0.2006  1.1173
18464TIP3    H176883   4.620   6.413   2.457  0.9150 -0.1021  0.8470
18464TIP3    H276884   4.511   6.323   2.401  0.9636  0.8888 -0.9259
18465TIP3   OH276885   4.265   0.490   3.661  0.1407 -0.0386 -0.7190
18465TIP3    H176886   4.316   0.479   3.581  0.8778  2.3804 -0.6392
18465TIP3    H276887   4.288   0.414   3.715  1.2573 -0.6008 -1.9399
18466TIP3   OH276888   2.033   0.466   2.860  0.1652  0.3680 -0.2186
18466TIP3    H176889   2.081   0.470   2.943 -1.9837 -2.0063  1.2867
18466TIP3    H276890   1.941   0.476   2.885 -0.3804  2.5842 -2.7436
18467TIP3   OH276891   1.449   5.683  14.486 -0.5251  0.0000  0.1102
18467TIP3    H176892   1.463   5.771  14.520  0.5938 -0.1638  0.1157
18467TIP3    H276893   1.376   5.648  14.539  0.0393  0.3717  1.1625
18468TIP3   OH276894   2.435   1.764  12.359 -0.1115  0.0926 -0.1807
18468TIP3    H176895   2.376   1.730  12.426 -0.8335  0.2561 -0.7280
18468TIP3    H276896   2.443   1.857  12.380 -1.6474  0.4969 -1.2684
18469TIP3   OH276897   4.091   1.597  16.985  0.7420 -0.3499  0.3139
18469TIP3    H176898   4.146   1.524  17.015 -0.8598 -1.2224  1.3209
18469TIP3    H276899   4.061   1.570  16.898 -1.1932 -1.7962  1.3362
18470TIP3   OH276900   4.346   1.337  17.052 -0.2395  0.2144  0.1758
18470TIP3    H176901   4.312   1.252  17.025  2.1284 -0.5169 -0.7599
18470TIP3    H276902   4.408   1.362  16.983 -1.6192  3.2420 -0.1461
18471TIP3   OH276903   2.828   5.078  16.842 -0.0195 -0.2044 -0.3637
18471TIP3    H176904   2.873   5.162  16.850  0.4640 -0.4499 -0.4840
18471TIP3    H276905   2.870   5.035  16.768  2.2476 -2.0572  1.8002
18472TIP3   OH276906   4.984   0.278  11.276 -0.3717  0.3045 -0.4115
18472TIP3    H176907   4.970   0.288  11.370 -1.1055 -1.2980 -0.3181
18472TIP3    H276908   5.076   0.302  11.263  0.4707 -1.7828  1.1471
18473TIP3   OH276909   6.561   3.914   2.663 -0.1204  0.1532  0.1733
18473TIP3    H176910   6.568   3.995   2.713 -0.2692 -0.9934  2.1617
18473TIP3    H276911   6.597   3.935   2.576 -1.6129  2.7311  0.1045
18474TIP3   OH276912   1.424   1.694   1.307  0.4440  0.2172  0.7723
18474TIP3    H176913   1.507   1.647   1.319 -0.2868 -1.4887 -0.5213
18474TIP3    H276914   1.446   1.786   1.324  2.7192 -0.1131 -0.0420
18475TIP3   OH276915   2.770   3.270   6.157  0.0802 -0.2614 -0.0731
18475TIP3    H176916   2.828   3.220   6.214 -0.0268 -0.8848 -0.5028
18475TIP3    H276917   2.701   3.303   6.216  0.1296 -0.6500  0.2060
18476TIP3   OH276918   4.218   2.082   5.170 -0.3227  0.1715 -0.2825
18476TIP3    H176919   4.246   1.990   5.166 -0.6509  0.1148 -1.6140
18476TIP3    H276920   4.249   2.120   5.088  0.1657  1.3750  0.4316
18477TIP3   OH276921   2.809   6.798  14.038  0.2281  0.4777 -0.2685
18477TIP3    H176922   2.753   6.829  13.966  0.4972 -0.4307 -0.8930
18477TIP3    H276923   2.845   6.715  14.006 -0.0587 -0.2279  1.1237
18478TIP3   OH276924   0.053   5.517  13.973 -0.4548 -0.5624  0.2220
18478TIP3    H176925  -0.008   5.453  13.936 -0.1017 -1.7457  1.5830
18478TIP3    H276926  -0.004   5.582  14.015 -0.8236  0.2167 -1.4305
18479TIP3   OH276927   6.548   3.684  13.701 -0.8495 -0.0914 -0.1425
18479TIP3    H176928   6.477   3.713  13.644 -1.3111  0.5474  0.7313
18479TIP3    H276929   6.621   3.666  13.642 -1.0598  1.3300 -0.8780
18480TIP3   OH276930   2.641   4.371  15.347  0.2509  0.5795  0.0164
18480TIP3    H176931   2.731   4.341  15.357 -0.6965 -2.3473  0.8027
18480TIP3    H276932   2.608   4.326  15.270 -0.9541  0.4581  0.5751
18481TIP3   OH276933   6.693   1.272  10.894  0.0960  0.0694  0.2940
18481TIP3    H176934   6.692   1.215  10.817  0.8798 -2.3392  1.9501
18481TIP3    H276935   6.605   1.310  10.896  0.2125  0.6404 -2.0198
18482TIP3   OH276936   3.256   4.233   0.132  0.1766  0.2276 -0.0580
18482TIP3    H176937   3.261   4.260   0.224  0.0512 -2.0445  0.6665
18482TIP3    H276938   3.344   4.202   0.111  0.0331  0.1101 -0.4959
18483TIP3   OH276939   0.749   4.113   2.427 -0.3407 -0.0938  0.4197
18483TIP3    H176940   0.704   4.092   2.345  0.4046 -1.0284  0.2287
18483TIP3    H276941   0.823   4.167   2.401 -0.5976  0.3385  0.5810
18484TIP3   OH276942   3.794   6.272   5.974 -0.5390 -0.1889  0.1590
18484TIP3    H176943   3.702   6.297   5.967 -0.7176 -0.2808  1.8694
18484TIP3    H276944   3.832   6.335   6.035  0.5199 -0.2443 -0.4081
18485TIP3   OH276945   0.655   5.831  14.489 -0.3228  0.5558 -0.0081
18485TIP3    H176946   0.593   5.824  14.417  0.7414 -0.0146 -0.8968
18485TIP3    H276947   0.735   5.789  14.457  0.5310  1.2580  1.1002
18486TIP3   OH276948   2.840   3.679  13.738 -0.1134 -0.0613  0.1928
18486TIP3    H176949   2.794   3.758  13.766  1.6123  0.5321  1.5282
18486TIP3    H276950   2.846   3.625  13.816 -2.6772 -2.3593 -1.0379
18487TIP3   OH276951   4.272   0.562  13.512 -0.0255  0.0476 -0.2165
18487TIP3    H176952   4.287   0.499  13.583 -0.9849 -1.3410 -1.1990
18487TIP3    H276953   4.261   0.509  13.434  0.9295  1.5517 -1.4244
18488TIP3   OH276954   4.994   0.263  12.622 -0.0054 -0.0540 -0.1744
18488TIP3    H176955   5.016   0.356  12.632  1.5534 -0.5128  0.9457
18488TIP3    H276956   5.078   0.220  12.605 -0.5836 -1.3746  0.2007
18489TIP3   OH276957   0.086   1.891  14.466  0.3093 -0.3726  0.1451
18489TIP3    H176958   0.174   1.865  14.492 -0.0397  0.1657  1.9767
18489TIP3    H276959   0.031   1.869  14.540 -1.0419 -0.2691 -0.7906
18490TIP3   OH276960   1.528   0.381  17.056  0.2366 -0.0345 -0.2637
18490TIP3    H176961   1.606   0.330  17.033 -0.7529 -2.5077  1.3590
18490TIP3    H276962   1.458   0.316  17.058 -0.9883  1.2179  2.7583
18491TIP3   OH276963   5.347   3.257   1.623 -0.4103  0.6561  0.0672
18491TIP3    H176964   5.351   3.260   1.718  0.6682 -0.2792  0.0749
18491TIP3    H276965   5.414   3.320   1.595 -0.3919  0.5786 -0.0639
18492TIP3   OH276966   3.309   2.256  12.962 -0.7374 -0.0848  0.4379
18492TIP3    H176967   3.386   2.313  12.960 -1.1305  0.4919  1.1451
18492TIP3    H276968   3.336   2.183  13.017 -0.4826 -0.2142  0.1460
18493TIP3   OH276969   0.647   1.528  13.750  0.2848 -0.2509  0.5040
18493TIP3    H176970   0.675   1.444  13.787  1.7310 -1.0816 -2.2005
18493TIP3    H276971   0.654   1.516  13.655 -0.9234  2.4721 -0.0261
18494TIP3   OH276972   6.391   3.128  12.516  0.2171  0.2267 -0.4465
18494TIP3    H176973   6.407   3.197  12.580  1.6661  0.0650 -0.5893
18494TIP3    H276974   6.387   3.048  12.567 -2.8353  0.4827 -0.1167
18495TIP3   OH276975   0.096   6.427  11.753 -0.4963 -0.4847  0.2189
18495TIP3    H176976   0.139   6.362  11.698 -1.7508 -1.1080 -0.0562
18495TIP3    H276977   0.125   6.408  11.842  0.5347 -0.2845 -0.0676
18496TIP3   OH276978   4.736   1.170  11.805  0.1800 -0.0644 -0.5815
18496TIP3    H176979   4.779   1.191  11.888 -2.8865 -0.3329  1.2466
18496TIP3    H276980   4.724   1.075  11.807 -1.7095  0.1364 -0.2673
18497TIP3   OH276981   6.721   0.283   6.488  0.0076 -0.0053  0.0397
18497TIP3    H176982   6.789   0.345   6.516 -1.2202  0.4560  2.2216
18497TIP3    H276983   6.754   0.248   6.405  1.6874  2.0891 -0.2843
18498TIP3   OH276984   6.511   6.691  11.437  0.2541  0.4654  0.0743
18498TIP3    H176985   6.546   6.738  11.361 -0.2475 -1.4492 -1.4057
18498TIP3    H276986   6.554   6.732  11.512  0.2669  2.8682 -1.1477
18499TIP3   OH276987   0.267   4.665   6.290  0.0053  0.0273  0.2262
18499TIP3    H176988   0.335   4.611   6.249  0.2277 -0.3123  1.0197
18499TIP3    H276989   0.193   4.605   6.303  0.5251 -0.3069  1.8106
18500TIP3   OH276990   0.680   1.134   3.485  0.0844  0.4372 -0.0011
18500TIP3    H176991   0.692   1.166   3.395 -0.1421  0.3354 -0.0674
18500TIP3    H276992   0.688   1.212   3.539  1.4542  0.3285 -0.0051
18501TIP3   OH276993   5.699   1.073  15.167  0.7564 -0.5760 -0.0691
18501TIP3    H176994   5.731   1.004  15.109  0.7028 -0.7069  0.0583
18501TIP3    H276995   5.645   1.128  15.110 -0.6465 -1.6171  0.2063
18502TIP3   OH276996   5.643   4.514  14.992  0.1878  0.3217  0.1135
18502TIP3    H176997   5.584   4.587  14.976 -0.0629  0.0523 -0.2112
18502TIP3    H276998   5.615   4.446  14.931  0.2301 -0.1521  0.6070
18503TIP3   OH276999   3.157   0.620  12.781  0.6882  0.0712  0.1484
18503TIP3    H177000   3.160   0.537  12.828  0.0216 -0.3164 -0.4639
18503TIP3    H277001   3.099   0.603  12.706 -1.2360  1.6781  1.1642
18504TIP3   OH277002   1.004   5.779  14.681 -0.3946  0.5756  0.7639
18504TIP3    H177003   0.948   5.788  14.759  0.9525  0.2404  1.8131
18504TIP3    H277004   1.051   5.862  14.676  0.1078  0.2936  0.7843
18505TIP3   OH277005   6.536   4.241   2.520  0.1469  0.0415 -0.1142
18505TIP3    H177006   6.442   4.226   2.531  0.0365 -2.2166 -2.9823
18505TIP3    H277007   6.545   4.336   2.521 -2.2459  0.3314 -0.2526
18506TIP3   OH277008   3.303   1.666   3.803  0.2967  0.7425  0.3877
18506TIP3    H177009   3.277   1.574   3.809  2.2442  0.1593  0.7447
18506TIP3    H277010   3.242   1.704   3.739 -1.0087 -0.6002  0.7790
18507TIP3   OH277011   2.173   4.095   0.934 -0.2833 -0.9331  0.1815
18507TIP3    H177012   2.237   4.055   0.993  0.6252 -1.0396 -0.8241
18507TIP3    H277013   2.196   4.188   0.934  0.9450 -1.1841 -1.3748
18508TIP3   OH277014   6.202   5.026  16.705 -0.0861 -0.0882 -0.6625
18508TIP3    H177015   6.228   5.117  16.720  1.8242 -0.8059  0.7673
18508TIP3    H277016   6.262   4.994  16.638 -1.1409 -0.1677 -1.6021
18509TIP3   OH277017   3.693   3.797  14.594  0.7110 -0.1017 -0.0400
18509TIP3    H177018   3.699   3.814  14.688 -1.5915  0.5668  0.0347
18509TIP3    H277019   3.625   3.856  14.563  0.3545 -1.3825 -1.8593
18510TIP3   OH277020   4.592   4.530  13.042  0.3122 -0.1558  0.1662
18510TIP3    H177021   4.606   4.529  12.947  2.1986  0.4603  0.3923
18510TIP3    H277022   4.659   4.590  13.075 -0.5581 -0.0755  1.8575
18511TIP3   OH277023   3.891   5.274  17.005 -0.0964 -0.4165  0.1574
18511TIP3    H177024   3.895   5.305  17.095 -1.2117  0.4200 -0.0570
18511TIP3    H277025   3.851   5.187  17.012  2.1767 -1.4771  0.6757
18512TIP3   OH277026   3.952   6.694   4.639  0.9188  0.1088 -0.1579
18512TIP3    H177027   3.874   6.738   4.673  0.5899 -1.1324  0.7741
18512TIP3    H277028   4.004   6.675   4.717  0.9692 -1.2700 -0.5070
18513TIP3   OH277029   6.632   4.380  13.435 -0.0443  0.0319  0.5646
18513TIP3    H177030   6.695   4.380  13.507  0.0488 -2.0944  0.5407
18513TIP3    H277031   6.683   4.409  13.359  0.2690  0.7331  1.0377
18514TIP3   OH277032   3.127   3.956   4.577 -0.0449 -0.3746 -0.8012
18514TIP3    H177033   3.092   3.931   4.492  1.1578 -1.9901 -0.8606
18514TIP3    H277034   3.208   4.003   4.557  0.5376 -1.2478 -0.5671
18515TIP3   OH277035   4.529   5.321  17.054 -0.7656 -0.0794  0.1303
18515TIP3    H177036   4.529   5.407  17.097  0.8314  0.3316 -0.6262
18515TIP3    H277037   4.598   5.327  16.987 -0.9481 -1.7954 -0.2620
18516TIP3   OH277038   5.725   0.049   4.240 -0.1661  0.0982  0.1906
18516TIP3    H177039   5.648   0.035   4.185  1.0235 -1.2424 -1.2465
18516TIP3    H277040   5.709  -0.006   4.317 -0.4727 -0.5263 -0.3023
18517TIP3   OH277041   5.971   1.660   4.553  0.7309 -0.1969 -0.3866
18517TIP3    H177042   6.047   1.626   4.505 -0.0916  0.2666 -2.1039
18517TIP3    H277043   6.003   1.741   4.593  1.9653 -1.5434  1.5613
18518TIP3   OH277044   1.674   3.745  13.216  0.2233 -0.4000  0.3883
18518TIP3    H177045   1.693   3.786  13.300  2.5769 -0.6466  0.0454
18518TIP3    H277046   1.620   3.810  13.170 -0.9149 -0.1787  1.9592
18519TIP3   OH277047   3.229   3.193  14.622  0.3537  0.0256 -0.4075
18519TIP3    H177048   3.194   3.203  14.533 -0.4737 -0.8474 -0.1941
18519TIP3    H277049   3.295   3.262  14.630  0.3669  0.1802 -1.6643
18520TIP3   OH277050   1.589   5.271   2.420 -0.0415  0.1407 -0.1088
18520TIP3    H177051   1.499   5.275   2.388 -0.2582 -0.0436  0.4735
18520TIP3    H277052   1.590   5.198   2.481  0.7324 -0.4492 -0.7989
18521TIP3   OH277053   4.133   1.595  14.254  0.3950 -0.4244 -0.1584
18521TIP3    H177054   4.142   1.644  14.172 -1.2006  0.3490  0.0988
18521TIP3    H277055   4.215   1.612  14.300  0.6414  0.4897 -0.8839
18522TIP3   OH277056   2.210   5.127  11.312 -0.0971  0.0665 -0.1793
18522TIP3    H177057   2.122   5.108  11.344 -0.6242 -0.2600 -1.7188
18522TIP3    H277058   2.240   5.044  11.274  1.1732 -0.0175  0.9192
18523TIP3   OH277059   4.588   5.933   4.644  0.1127  0.0686  0.1680
18523TIP3    H177060   4.664   5.895   4.689 -0.6531 -0.7034  0.8510
18523TIP3    H277061   4.513   5.883   4.677 -0.8682  1.7270  0.5786
18524TIP3   OH277062   2.292   1.923   4.600 -0.0437  0.1150 -0.5345
18524TIP3    H177063   2.371   1.883   4.566  0.7287  2.1347 -1.2932
18524TIP3    H277064   2.307   2.017   4.591 -2.4506  0.5722 -0.5347
18525TIP3   OH277065   4.212   5.573   5.730 -0.1854  0.5552  0.4287
18525TIP3    H177066   4.307   5.561   5.721 -0.3421  0.0373 -0.6659
18525TIP3    H277067   4.203   5.657   5.775  0.7800  1.0243 -0.2237
18526TIP3   OH277068   2.342   6.748  10.456  0.0155  0.3212 -0.2341
18526TIP3    H177069   2.311   6.808  10.524  0.3023  0.0327  0.1568
18526TIP3    H277070   2.435   6.767  10.448  0.0621  0.0804 -0.2642
18527TIP3   OH277071   1.298   3.312   1.741  0.1902 -0.1842  0.1765
18527TIP3    H177072   1.299   3.341   1.832 -0.4223  0.4871 -0.0222
18527TIP3    H277073   1.275   3.390   1.691  0.6554 -0.5137 -0.5713
18528TIP3   OH277074   1.870   5.981   2.164  0.1974 -0.0978  0.1574
18528TIP3    H177075   1.814   6.019   2.097  1.0046  0.7825 -0.0454
18528TIP3    H277076   1.907   5.903   2.123  1.2376  0.8139 -0.7099
18529TIP3   OH277077   4.724   4.799   1.517  0.2644 -0.2785 -0.3709
18529TIP3    H177078   4.668   4.816   1.442  0.6587 -1.2562 -0.9027
18529TIP3    H277079   4.805   4.765   1.480  0.2676 -1.3012  0.5022
18530TIP3   OH277080   6.806   2.015   3.170 -0.2554  0.0275  0.4215
18530TIP3    H177081   6.812   2.002   3.265  1.6141  0.8623  0.4759
18530TIP3    H277082   6.843   2.103   3.156  2.1336 -1.1327 -1.2912
18531TIP3   OH277083   6.414   0.184   3.071  0.3858  0.5079 -0.3430
18531TIP3    H177084   6.426   0.141   3.156  0.8021 -1.9807 -1.5940
18531TIP3    H277085   6.501   0.181   3.030  0.0330  1.0632 -1.1562
18532TIP3   OH277086   5.699   3.686  17.188  0.5198 -0.1005  0.3212
18532TIP3    H177087   5.701   3.622  17.116 -0.9962  0.7996 -0.5701
18532TIP3    H277088   5.729   3.637  17.264 -1.7948 -2.2694 -0.0435
18533TIP3   OH277089   0.362   5.127   6.347 -0.3637 -0.6001  0.4092
18533TIP3    H177090   0.395   5.083   6.269 -1.6414 -1.2586  0.2129
18533TIP3    H277091   0.388   5.219   6.336  1.7639 -1.1318  0.5059
18534TIP3   OH277092   0.342   2.814   1.733 -0.2751 -0.0407  0.4734
18534TIP3    H177093   0.391   2.816   1.815 -2.2009 -1.4770  1.7682
18534TIP3    H277094   0.290   2.895   1.734  2.8567  2.1879 -1.5639
18535TIP3   OH277095   3.995   2.585   1.736 -0.2400  0.5728 -0.2276
18535TIP3    H177096   3.928   2.600   1.668 -0.6578  1.2855  0.3255
18535TIP3    H277097   4.035   2.501   1.712 -3.1573 -1.3029  0.8734
18536TIP3   OH277098   2.733   3.283   2.990 -0.0388  0.1742  0.2473
18536TIP3    H177099   2.741   3.263   3.084 -1.9658 -0.5006  0.3149
18536TIP3    H277100   2.702   3.373   2.987  0.6827  0.4271  0.2219
18537TIP3   OH277101   0.315   4.414   4.680  0.4222  0.0739  0.4498
18537TIP3    H177102   0.325   4.323   4.706  1.1077 -0.2529 -0.8862
18537TIP3    H277103   0.239   4.414   4.622  0.8633  0.2223 -0.1317
18538TIP3   OH277104   0.656   3.988  11.758  0.3027 -0.4191  0.5674
18538TIP3    H177105   0.721   4.051  11.791 -0.6049  1.1627 -0.5440
18538TIP3    H277106   0.581   3.999  11.816 -0.1396  0.0872 -0.0982
18539TIP3   OH277107   2.947   3.182   3.484  0.1250  0.2183  0.3018
18539TIP3    H177108   2.975   3.096   3.451 -0.6566  0.0087  0.1546
18539TIP3    H277109   3.028   3.231   3.495  0.4532  0.2443 -1.7895
18540TIP3   OH277110   6.105   6.480  16.393  0.6804 -0.5648 -0.2039
18540TIP3    H177111   6.092   6.559  16.446  1.2470 -0.8033  0.3040
18540TIP3    H277112   6.151   6.510  16.315  0.5549 -0.3381 -0.1917
18541TIP3   OH277113   2.413   4.595   0.733 -0.4091 -0.0644 -0.0330
18541TIP3    H177114   2.443   4.677   0.693 -1.7554  0.0679 -0.8318
18541TIP3    H277115   2.398   4.616   0.825 -1.7251  0.8826 -0.4371
18542TIP3   OH277116   1.207   1.682   3.680 -0.0697  0.0916  0.0122
18542TIP3    H177117   1.236   1.612   3.621 -1.0882  0.6525 -1.1934
18542TIP3    H277118   1.125   1.650   3.716  0.6576 -0.3438  1.3422
18543TIP3   OH277119   3.109   6.162  14.772 -0.3339 -0.0036 -0.1882
18543TIP3    H177120   3.158   6.163  14.854  0.5413 -0.7023 -0.6920
18543TIP3    H277121   3.053   6.085  14.778  1.8058 -1.7777 -1.3940
18544TIP3   OH277122   6.121   6.396  11.213 -0.8872  0.0240  0.3969
18544TIP3    H177123   6.107   6.306  11.241  0.3159 -0.0563  0.8366
18544TIP3    H277124   6.051   6.446  11.255 -1.5059 -0.6842  0.2224
18545TIP3   OH277125   2.973   5.449  13.243  0.2359 -0.1007 -0.3011
18545TIP3    H177126   3.016   5.369  13.276  0.2653 -0.4293 -1.1130
18545TIP3    H277127   2.952   5.429  13.152  2.4090  1.6451 -1.3014
18546TIP3   OH277128   6.396   4.725  15.602  0.7099  0.7685 -0.2140
18546TIP3    H177129   6.338   4.657  15.637  1.8053  0.0175  0.1958
18546TIP3    H277130   6.398   4.792  15.670  1.6804 -0.0182  0.5744
18547TIP3   OH277131   3.264   2.846   4.548  0.1626  0.1987 -0.1121
18547TIP3    H177132   3.293   2.772   4.601 -0.1291 -0.2282 -0.5420
18547TIP3    H277133   3.300   2.828   4.461 -0.8885 -0.0359 -0.5060
18548TIP3   OH277134   4.335   4.938  12.965 -0.0483 -0.1411 -0.0985
18548TIP3    H177135   4.285   5.013  12.933  0.6415  0.8489  1.0755
18548TIP3    H277136   4.271   4.867  12.969 -0.6415  0.2727 -1.5263
18549TIP3   OH277137   3.240   6.788  14.588  0.4352 -0.1819 -0.1587
18549TIP3    H177138   3.213   6.800  14.497  0.7185 -0.0141 -0.2205
18549TIP3    H277139   3.273   6.698  14.592  1.0147  0.0137 -0.3738
18550TIP3   OH277140   0.102   4.449   1.141 -0.2470  0.1281  0.8298
18550TIP3    H177141   0.125   4.378   1.202 -0.7393 -0.2625  0.5719
18550TIP3    H277142   0.174   4.449   1.077  0.7062  1.0949  1.8600
18551TIP3   OH277143   1.583   2.772  16.373 -0.3131  0.1934  0.6268
18551TIP3    H177144   1.671   2.809  16.385 -0.3798  0.6193 -0.0880
18551TIP3    H277145   1.598   2.693  16.321 -0.5331  1.6525 -1.8477
18552TIP3   OH277146   3.873   0.323   3.112 -0.0775 -0.3846 -0.0964
18552TIP3    H177147   3.785   0.335   3.077  0.6415  2.2243 -1.3117
18552TIP3    H277148   3.919   0.271   3.046 -0.5432 -1.3391  0.3126
18553TIP3   OH277149   0.814   4.175  10.487 -0.1108  0.2445 -0.3613
18553TIP3    H177150   0.860   4.182  10.403 -0.8113 -1.8221 -0.9852
18553TIP3    H277151   0.856   4.102  10.532 -1.4491 -0.4053 -0.0924
18554TIP3   OH277152   0.802   1.540   5.394  0.0226  0.9557 -0.1934
18554TIP3    H177153   0.723   1.579   5.357  0.2773  0.6361 -1.0955
18554TIP3    H277154   0.856   1.519   5.318 -0.4431 -1.8955  0.1429
18555TIP3   OH277155   1.200   4.066   0.091  0.0121  0.1620 -0.3173
18555TIP3    H177156   1.182   4.087   0.183 -0.5962  1.7888 -0.7663
18555TIP3    H277157   1.219   3.973   0.091  3.2307  0.6433  1.9677
18556TIP3   OH277158   4.636   0.723   1.086 -0.4861 -0.9617 -0.2007
18556TIP3    H177159   4.578   0.675   1.026  1.0627 -1.0350 -1.7216
18556TIP3    H277160   4.588   0.802   1.108 -1.5435 -1.4504 -0.6727
18557TIP3   OH277161   2.439   5.985   0.362  0.3330 -0.2219  0.1475
18557TIP3    H177162   2.483   5.973   0.279 -0.3292  0.1947 -0.2734
18557TIP3    H277163   2.358   6.032   0.340  0.8971  1.3133  1.2122
18558TIP3   OH277164   0.534   4.000  14.123 -0.5728 -0.4350  0.4747
18558TIP3    H177165   0.449   3.955  14.128  0.0714 -1.6151  1.0792
18558TIP3    H277166   0.569   3.994  14.211  0.8768 -1.4610 -0.1344
18559TIP3   OH277167   1.516   4.065   3.524  0.0263  0.0480 -0.0201
18559TIP3    H177168   1.548   4.094   3.438 -1.3642  1.1495 -0.2208
18559TIP3    H277169   1.578   3.998   3.552  0.0015 -1.0360 -2.3165
18560TIP3   OH277170   0.597   6.559   5.426  0.3271 -0.7044 -0.3335
18560TIP3    H177171   0.504   6.564   5.403  0.5355  1.5671 -0.9313
18560TIP3    H277172   0.598   6.515   5.511 -1.2515 -1.1383 -0.5078
18561TIP3   OH277173   6.186   4.095   2.235  0.6546  0.1434  0.0091
18561TIP3    H177174   6.167   4.011   2.195  1.2154 -0.5471  1.1355
18561TIP3    H277175   6.276   4.114   2.211  0.8135 -0.0063  0.4758
18562TIP3   OH277176   5.244   0.323  16.414  0.3497 -0.2455  0.1067
18562TIP3    H177177   5.322   0.340  16.466  0.3192 -0.7684  0.3238
18562TIP3    H277178   5.195   0.406  16.416  0.7730  0.0031  0.1770
18563TIP3   OH277179   2.676   1.405   5.338 -0.3343  0.0567  0.2134
18563TIP3    H177180   2.582   1.405   5.324 -0.4837  2.4679  0.7657
18563TIP3    H277181   2.687   1.430   5.430  0.8612 -1.5057  0.5442
18564TIP3   OH277182   1.255   1.869   3.464  0.4732 -0.1008  1.1558
18564TIP3    H177183   1.271   1.806   3.394  2.2803  1.3236  0.1843
18564TIP3    H277184   1.212   1.819   3.533 -0.7823 -1.7066 -0.6974
18565TIP3   OH277185   0.208   0.611   0.709 -0.0959 -0.4808 -0.2305
18565TIP3    H177186   0.243   0.575   0.627  1.0606 -0.0451  0.0567
18565TIP3    H277187   0.129   0.560   0.725 -1.1797  0.3669 -2.3913
18566TIP3   OH277188   3.750   6.065  12.481  0.8350 -0.2198 -0.3841
18566TIP3    H177189   3.775   6.138  12.424  0.3354 -1.1500 -1.8612
18566TIP3    H277190   3.756   5.987  12.424  2.5492 -1.5220  1.4541
18567TIP3   OH277191   1.004   0.208   2.845  0.2830 -0.2658 -0.1122
18567TIP3    H177192   0.911   0.228   2.834  0.1467 -0.4679  0.6050
18567TIP3    H277193   1.033   0.180   2.759 -0.7077 -1.7354 -0.0033
18568TIP3   OH277194   6.084   3.956  15.968 -0.1734 -0.3646 -0.2014
18568TIP3    H177195   6.166   3.950  16.018 -0.9902  1.4230  1.5295
18568TIP3    H277196   6.043   3.870  15.977  0.3641 -0.5096  1.0894
18569TIP3   OH277197   5.145   3.711   0.879  0.0172 -0.0971  0.2645
18569TIP3    H177198   5.172   3.639   0.937 -1.6488 -1.6363 -0.7563
18569TIP3    H277199   5.138   3.787   0.937  0.3965 -1.0919  1.6802
18570TIP3   OH277200   3.299   6.558   2.244  0.8872 -0.1341  0.1205
18570TIP3    H177201   3.205   6.546   2.257  0.9940  0.9064  2.1169
18570TIP3    H277202   3.313   6.652   2.255  2.0964 -0.1924 -0.7326
18571TIP3   OH277203   3.865   3.619  13.607 -0.5812  0.1366 -0.0237
18571TIP3    H177204   3.857   3.526  13.590  0.8726 -0.2655  1.2351
18571TIP3    H277205   3.946   3.645  13.564  2.7709 -0.7473  4.9101
18572TIP3   OH277206   0.286   2.265   6.257 -0.3276 -0.4698  0.0753
18572TIP3    H177207   0.251   2.298   6.174 -1.2903  1.3563  1.1625
18572TIP3    H277208   0.310   2.174   6.238 -2.7346 -0.8484 -1.5697
18573TIP3   OH277209   5.347   2.325   4.942 -0.1730  0.0529 -0.8763
18573TIP3    H177210   5.331   2.253   5.003 -0.1330  0.5485 -0.2677
18573TIP3    H277211   5.302   2.299   4.862 -0.0930 -0.6829 -0.6922
18574TIP3   OH277212   5.956   3.907  12.602  0.0748 -0.3331  0.3188
18574TIP3    H177213   6.040   3.953  12.611 -0.0374 -0.3666  1.6841
18574TIP3    H277214   5.957   3.842  12.672 -1.6848  0.5923  1.2528
18575TIP3   OH277215   5.886   4.896  10.508  0.3257  0.1753  0.5258
18575TIP3    H177216   5.907   4.832  10.439  1.6927 -0.0108  1.0958
18575TIP3    H277217   5.933   4.865  10.585 -1.1073  0.4362  1.5499
18576TIP3   OH277218   0.244   2.649  16.864 -0.1576 -0.0001 -0.4122
18576TIP3    H177219   0.235   2.689  16.777 -1.7698  0.1414 -0.2037
18576TIP3    H277220   0.331   2.609  16.862  0.5513  1.4635 -1.4802
18577TIP3   OH277221   0.456   0.271  16.528  0.2797 -0.0741 -0.2867
18577TIP3    H177222   0.406   0.272  16.446 -0.3146  0.2581  0.0686
18577TIP3    H277223   0.446   0.360  16.563  1.1454 -0.0008 -0.2188
18578TIP3   OH277224   5.693   4.743   0.325 -0.2411  0.0742  1.0615
18578TIP3    H177225   5.617   4.745   0.267  0.0428  1.6760  0.6810
18578TIP3    H277226   5.657   4.731   0.413 -0.8416 -0.2400  0.7720
18579TIP3   OH277227   4.295   3.234  14.775  0.0815 -0.5978  0.0145
18579TIP3    H177228   4.231   3.216  14.705 -0.0702  2.6177 -0.8237
18579TIP3    H277229   4.247   3.290  14.836  1.5144  0.2429  0.3928
18580TIP3   OH277230   4.364   4.854   2.154  0.1462  0.6472  0.4361
18580TIP3    H177231   4.418   4.784   2.116  1.6772  1.0457  1.7871
18580TIP3    H277232   4.418   4.932   2.148 -1.2722  1.6043 -0.4059
18581TIP3   OH277233   6.706   5.427   0.496 -0.5649 -0.2128  0.2902
18581TIP3    H177234   6.749   5.493   0.550 -0.9821  0.4809 -0.2078
18581TIP3    H277235   6.676   5.475   0.419 -1.0410 -0.9510  0.0030
18582TIP3   OH277236   1.566   1.883  16.150 -0.5408  0.9989  0.4186
18582TIP3    H177237   1.625   1.819  16.190 -0.4718 -1.2514 -2.9070
18582TIP3    H277238   1.620   1.962  16.139 -0.1759  1.2457  3.2012
18583TIP3   OH277239   3.610   3.697  11.735  0.0134  0.2694 -0.5454
18583TIP3    H177240   3.652   3.737  11.659 -1.2490  1.2152 -0.7922
18583TIP3    H277241   3.655   3.613  11.747  0.9661  0.5985 -1.6468
18584TIP3   OH277242   2.388   0.948  11.413 -0.3356  0.1221 -0.1424
18584TIP3    H177243   2.303   0.963  11.453 -0.1976  0.1516  0.1382
18584TIP3    H277244   2.374   0.967  11.320 -0.4469  0.8878  0.0206
18585TIP3   OH277245   1.380   2.955  11.452  0.4656  0.0571 -0.6663
18585TIP3    H177246   1.322   2.894  11.498 -0.6457  0.9763 -0.8086
18585TIP3    H277247   1.367   3.039  11.496  0.8319  0.5269 -1.4229
18586TIP3   OH277248   3.329   6.485   6.510 -0.7430  0.3582  0.3297
18586TIP3    H177249   3.361   6.525   6.429 -1.4473  1.3192  0.5074
18586TIP3    H277250   3.305   6.396   6.485  2.5210 -0.6183  0.3100
18587TIP3   OH277251   4.542   3.528   0.191 -0.2069  0.3685 -0.0135
18587TIP3    H177252   4.499   3.528   0.277  0.6946  2.1713  0.4873
18587TIP3    H277253   4.479   3.486   0.133 -1.5229  0.5619  1.2139
18588TIP3   OH277254   6.765   5.023   1.925 -0.6850  0.4143 -0.4265
18588TIP3    H177255   6.804   4.982   1.848 -1.4224 -3.0931  0.8783
18588TIP3    H277256   6.671   5.011   1.914 -0.7811 -0.7243  1.2582
18589TIP3   OH277257   3.393   3.127  12.642 -0.1171  0.7184 -0.2315
18589TIP3    H177258   3.442   3.158  12.566 -1.5267  0.7063 -1.1949
18589TIP3    H277259   3.313   3.180  12.642 -1.2275 -0.8855 -0.1759
18590TIP3   OH277260   4.629   0.714   3.715 -0.2279 -0.2230 -0.0912
18590TIP3    H177261   4.567   0.647   3.746 -0.6308  0.1650 -0.0437
18590TIP3    H277262   4.715   0.681   3.741 -0.4424 -0.6203  0.1228
18591TIP3   OH277263   4.730   6.654  12.827  0.3633  0.6216 -0.0031
18591TIP3    H177264   4.707   6.561  12.822  1.8355  0.0932  1.8346
18591TIP3    H277265   4.668   6.691  12.890  1.7273  0.1150  1.7299
18592TIP3   OH277266   0.818   3.656  11.501 -0.0497  0.5466  0.4934
18592TIP3    H177267   0.806   3.579  11.557  0.8233 -0.0383 -0.1060
18592TIP3    H277268   0.784   3.729  11.553 -1.4231 -0.3107  0.8429
18593TIP3   OH277269   1.732   2.556  10.660  0.1876 -0.4155 -0.6623
18593TIP3    H177270   1.818   2.583  10.692  1.0958 -1.0029 -2.4594
18593TIP3    H277271   1.717   2.470  10.699  1.8923 -1.7355 -2.7125
18594TIP3   OH277272   3.820   3.574   2.803 -0.1924  0.1953 -0.0374
18594TIP3    H177273   3.727   3.562   2.784 -0.1867  2.5723 -2.0700
18594TIP3    H277274   3.827   3.667   2.826  1.8101  0.2852 -0.8733
18595TIP3   OH277275   2.306   6.629   5.767  0.3773 -0.2267  0.3775
18595TIP3    H177276   2.311   6.539   5.734  0.1268  0.2128 -0.9439
18595TIP3    H277277   2.390   6.668   5.741  0.1454  0.1524  0.1918
18596TIP3   OH277278   0.592   1.590   6.045  0.2245 -0.4674  0.1051
18596TIP3    H177279   0.683   1.584   6.076  0.0102 -2.7226  0.4670
18596TIP3    H277280   0.560   1.673   6.081  1.4606 -0.7137  1.9189
18597TIP3   OH277281   6.438   4.926  15.768 -0.8346  0.0516  0.4978
18597TIP3    H177282   6.514   4.977  15.796 -0.3444 -1.5405  2.2977
18597TIP3    H277283   6.364   4.964  15.816 -0.6060 -0.4261  1.2345
18598TIP3   OH277284   2.785   5.656  11.670 -0.3589 -0.4931  0.0753
18598TIP3    H177285   2.836   5.587  11.629  0.5289 -0.6662  1.4098
18598TIP3    H277286   2.832   5.737  11.648 -0.4114 -0.4870 -0.0170
18599TIP3   OH277287   4.605   1.486  14.999  0.1897 -0.0540 -0.2899
18599TIP3    H177288   4.563   1.546  14.938 -0.1737 -1.3239 -1.3300
18599TIP3    H277289   4.600   1.400  14.957  1.7092 -0.6495  0.6416
18600TIP3   OH277290   4.120   2.650  15.591 -0.3640  0.4184  0.1958
18600TIP3    H177291   4.150   2.686  15.674 -0.0384 -0.0362  0.2811
18600TIP3    H277292   4.076   2.568  15.615  0.9051 -0.4138 -0.1794
18601TIP3   OH277293   2.860   3.377   2.265 -0.1540  0.1201  0.4138
18601TIP3    H177294   2.832   3.310   2.328 -1.0633  0.2241  0.1344
18601TIP3    H277295   2.934   3.337   2.220 -0.8630 -0.8193  0.0553
18602TIP3   OH277296   3.103   0.518  13.023  0.3719 -0.3015 -0.1841
18602TIP3    H177297   3.078   0.432  12.988  1.1916 -0.6969  0.1711
18602TIP3    H277298   3.036   0.538  13.089  0.6027 -1.0328  0.2859
18603TIP3   OH277299   1.281   5.410   4.720 -0.1569 -0.2502 -0.0750
18603TIP3    H177300   1.313   5.342   4.661  1.4187  0.7395 -0.4237
18603TIP3    H277301   1.352   5.423   4.783 -0.1527  1.4835 -0.3806
18604TIP3   OH277302   6.175   5.258  13.573 -0.1155 -0.9685  0.4633
18604TIP3    H177303   6.137   5.178  13.537  2.4544 -1.5366 -1.2501
18604TIP3    H277304   6.266   5.235  13.591  0.0362  0.8865  2.3770
18605TIP3   OH277305   0.751   2.164   4.552  0.2272 -0.5044  0.1944
18605TIP3    H177306   0.689   2.191   4.484 -0.9107 -2.5374  0.3438
18605TIP3    H277307   0.774   2.074   4.530  1.0410 -0.6903  1.6563
18606TIP3   OH277308   1.370   1.535  15.721 -0.2740 -0.3942 -0.0431
18606TIP3    H177309   1.304   1.565  15.784 -0.5193 -0.2343 -0.3727
18606TIP3    H277310   1.431   1.609  15.713 -0.5706 -0.1890 -0.4364
18607TIP3   OH277311   3.224   0.098  11.025 -0.3994  0.2747 -0.3152
18607TIP3    H177312   3.177   0.167  10.979  0.7422  1.7494  0.6547
18607TIP3    H277313   3.287   0.065  10.961 -0.2240  0.8754 -0.4561
18608TIP3   OH277314   6.779   0.350   3.290  0.2255 -0.1840  0.0169
18608TIP3    H177315   6.872   0.369   3.304  0.6159 -1.5059 -0.6763
18608TIP3    H277316   6.770   0.257   3.308 -0.7642 -0.2803 -0.8704
18609TIP3   OH277317   3.972   2.245   3.331 -0.4302 -0.9360 -0.5383
18609TIP3    H177318   4.038   2.253   3.262 -0.0745 -0.5126 -0.1575
18609TIP3    H277319   3.924   2.166   3.309  0.4898 -1.5001 -0.5837
18610TIP3   OH277320   3.217   5.884  12.997  0.2099 -0.0031  0.4952
18610TIP3    H177321   3.213   5.979  13.011  0.7647  0.0028  0.6676
18610TIP3    H277322   3.189   5.872  12.907 -1.8837  0.1173  1.0792
18611TIP3   OH277323   3.394   1.711   0.556 -0.1640 -0.0172  0.0155
18611TIP3    H177324   3.472   1.745   0.600  0.4553 -0.6649 -0.5612
18611TIP3    H277325   3.369   1.633   0.605 -0.8535  0.5471  0.5923
18612TIP3   OH277326   2.686   5.727   0.434  0.1615 -0.6864 -0.6732
18612TIP3    H177327   2.737   5.678   0.371  1.9755  0.8058 -0.4358
18612TIP3    H277328   2.668   5.811   0.391 -1.1733 -0.7619 -0.3229
18613TIP3   OH277329   1.452   6.652   4.977  0.0214  0.9804  0.0663
18613TIP3    H177330   1.367   6.689   5.002 -0.7062 -0.9412  0.6741
18613TIP3    H277331   1.470   6.586   5.044  1.0327 -0.0244 -1.1411
18614TIP3   OH277332   2.724   6.708   2.960 -0.2560  0.5155 -0.1124
18614TIP3    H177333   2.735   6.697   2.865 -0.9398 -0.8810 -0.0595
18614TIP3    H277334   2.635   6.740   2.970 -0.8472 -1.1204  0.1270
18615TIP3   OH277335   1.759   5.629   2.205 -0.4850  0.6681  0.3669
18615TIP3    H177336   1.822   5.616   2.135 -0.4435 -0.3061  0.5706
18615TIP3    H277337   1.812   5.642   2.283 -0.5349  1.1304  0.3268
18616TIP3   OH277338   4.032   6.049  15.331 -0.0179  0.0605  0.4687
18616TIP3    H177339   4.050   6.079  15.420  1.5636 -1.2500  0.6389
18616TIP3    H277340   3.967   5.980  15.342 -0.0339  0.0932  0.5802
18617TIP3   OH277341   3.296   3.926   3.872 -0.1198  0.0376 -0.0383
18617TIP3    H177342   3.295   3.939   3.777 -1.8253  1.1950  0.0882
18617TIP3    H277343   3.209   3.889   3.892  0.1642 -0.0672  1.0830
18618TIP3   OH277344   0.596   0.443   2.057 -0.1043  0.1087  0.4621
18618TIP3    H177345   0.627   0.369   2.109 -1.4073 -1.7241 -1.2407
18618TIP3    H277346   0.545   0.496   2.119  1.3450 -0.0345  1.8481
18619TIP3   OH277347   6.722   1.951   0.777 -0.0273  0.0152  0.4881
18619TIP3    H177348   6.816   1.969   0.766  0.3893 -0.7800  2.4525
18619TIP3    H277349   6.681   2.037   0.771  1.2820  0.9686  3.4889
18620TIP3   OH277350   2.251   4.284  16.219  0.7737  0.2203  0.2322
18620TIP3    H177351   2.268   4.375  16.197  0.8686  0.1764  0.1175
18620TIP3    H277352   2.242   4.240  16.134  1.0075  0.0728  0.2808
18621TIP3   OH277353   6.278   0.340   2.452 -0.0307 -0.2158  0.9259
18621TIP3    H177354   6.373   0.351   2.463 -0.2222  1.0130  1.4168
18621TIP3    H277355   6.247   0.310   2.537 -0.4628  2.1483  1.6609
18622TIP3   OH277356   5.938   3.826   5.253  0.1594  0.1602 -0.1807
18622TIP3    H177357   5.879   3.752   5.237  0.0584 -0.2149  1.7231
18622TIP3    H277358   5.915   3.857   5.341  2.9505 -0.1662  0.7633
18623TIP3   OH277359   2.821   4.544  13.273  0.4557 -0.1746 -0.0746
18623TIP3    H177360   2.854   4.476  13.333 -2.2141 -1.5356  0.0213
18623TIP3    H277361   2.881   4.542  13.199  0.0911 -3.2537 -0.4114
18624TIP3   OH277362   1.436   0.656  14.496 -0.0410 -0.0695  0.8514
18624TIP3    H177363   1.399   0.568  14.485 -0.4300  0.2734 -0.8439
18624TIP3    H277364   1.362   0.715  14.480  0.2069  0.5710  2.0304
18625TIP3   OH277365   2.796   0.611   3.871 -0.4337 -0.5095 -0.1503
18625TIP3    H177366   2.724   0.586   3.813 -0.8325  1.3201 -0.4988
18625TIP3    H277367   2.871   0.622   3.813  0.1176 -2.2495  0.1910
18626TIP3   OH277368   2.906   2.312  16.965  0.3476  0.3191  0.5467
18626TIP3    H177369   2.860   2.264  17.034 -0.0032 -0.1612 -0.0131
18626TIP3    H277370   2.943   2.244  16.909 -1.5966  0.6192 -1.2375
18627TIP3   OH277371   5.238   4.580   2.165  0.2483  0.1793 -0.2980
18627TIP3    H177372   5.188   4.615   2.239 -1.0894  1.5920 -1.8075
18627TIP3    H277373   5.317   4.634   2.163  0.2381  0.2104  0.0225
18628TIP3   OH277374   0.244   0.482   5.320 -0.2994 -0.3908 -0.0009
18628TIP3    H177375   0.334   0.511   5.311 -1.2413  2.6729 -0.9030
18628TIP3    H277376   0.196   0.531   5.253 -2.9806 -0.0440  1.9830
18629TIP3   OH277377   1.798   4.389   5.083  0.2610  0.1774  0.0181
18629TIP3    H177378   1.828   4.444   5.011  0.8250  1.8161  1.4527
18629TIP3    H277379   1.879   4.359   5.125  0.0145 -2.4184 -1.1185
18630TIP3   OH277380   0.213   0.581  16.388 -0.0991 -0.1307  0.6306
18630TIP3    H177381   0.194   0.523  16.314  0.3719 -0.1085  0.4878
18630TIP3    H277382   0.134   0.577  16.443 -0.0126 -1.0195  0.7024
18631TIP3   OH277383   3.014   6.417   5.752  0.4158 -0.8288 -0.2214
18631TIP3    H177384   2.919   6.427   5.745  0.4264  0.1492  0.7952
18631TIP3    H277385   3.029   6.372   5.835  0.9265  1.7608  1.2016
18632TIP3   OH277386   6.296   0.346   1.933 -0.0461 -0.2946  0.5437
18632TIP3    H177387   6.372   0.402   1.917 -1.9174  2.2189 -0.1992
18632TIP3    H277388   6.246   0.393   1.999 -2.2075 -0.5221 -0.8564
18633TIP3   OH277389   5.081   3.856   3.779  0.1712 -0.3796 -0.4738
18633TIP3    H177390   5.049   3.931   3.830  2.1249  0.1933 -0.0056
18633TIP3    H277391   5.040   3.866   3.694 -1.7739 -0.3652  0.4025
18634TIP3   OH277392   5.324   1.775   3.105 -0.0687 -0.3404 -0.2937
18634TIP3    H177393   5.342   1.779   3.199 -0.1148 -0.6770 -0.2681
18634TIP3    H277394   5.341   1.863   3.073  0.0957 -0.2640  0.0052
18635TIP3   OH277395   6.047   3.367  17.150  0.1815  0.1206 -0.5812
18635TIP3    H177396   6.080   3.438  17.205  0.6738 -0.2612 -0.3701
18635TIP3    H277397   6.114   3.298  17.158  0.1447 -0.0297 -1.4700
18636TIP3   OH277398   4.135   5.833  17.116 -0.3781  0.4103 -0.3619
18636TIP3    H177399   4.044   5.846  17.144 -0.7806 -0.8527 -0.9839
18636TIP3    H277400   4.129   5.763  17.050  1.2579 -0.9660  0.8792
18637TIP3   OH277401   0.895   5.726  14.423 -0.3134 -0.0202  0.4436
18637TIP3    H177402   0.931   5.769  14.501  2.0919  0.9301 -1.0766
18637TIP3    H277403   0.956   5.654  14.405  0.2535  0.8743 -1.5340
18638TIP3   OH277404   4.336   5.773   4.686  0.5715 -0.1355 -0.1249
18638TIP3    H177405   4.354   5.767   4.780 -1.5088 -0.0530  0.3221
18638TIP3    H277406   4.306   5.686   4.661  0.3537  0.0545 -0.5422
18639TIP3   OH277407   5.085   2.278  12.529 -0.0400 -0.0114  0.3834
18639TIP3    H177408   5.045   2.298  12.445  0.3494  0.2891  0.2627
18639TIP3    H277409   5.156   2.343  12.537  0.5429 -0.6544  0.4953
18640TIP3   OH277410   6.410   3.418   4.587 -0.2072 -0.3572  0.2157
18640TIP3    H177411   6.379   3.401   4.499 -0.5846  1.8017 -0.1352
18640TIP3    H277412   6.392   3.511   4.601 -3.5780 -1.2614  3.9026
18641TIP3   OH277413   5.884   2.348   1.590  0.1601  0.1544 -0.3938
18641TIP3    H177414   5.864   2.407   1.517 -0.2023 -0.3980 -0.7498
18641TIP3    H277415   5.963   2.302   1.563 -0.3401 -0.5186 -0.7293
18642TIP3   OH277416   2.151   2.478  13.774  0.1032  0.7876 -0.2269
18642TIP3    H177417   2.078   2.536  13.754 -0.1930 -0.1463 -2.0477
18642TIP3    H277418   2.208   2.484  13.697  0.6212 -0.5091  0.0309
18643TIP3   OH277419   3.548   2.869  16.255  0.0383 -0.0466 -0.4573
18643TIP3    H177420   3.578   2.940  16.312  0.7633 -0.1646 -0.6866
18643TIP3    H277421   3.462   2.898  16.223 -0.4049  0.0079  0.7177
18644TIP3   OH277422   6.553   0.490   1.496 -0.1224  0.4152  0.1524
18644TIP3    H177423   6.515   0.444   1.422  0.8437  0.0818 -0.1502
18644TIP3    H277424   6.481   0.540   1.533 -1.1131 -1.0261  0.2526
18645TIP3   OH277425   6.146   2.701  14.238  0.3524 -0.5098  0.0829
18645TIP3    H177426   6.227   2.749  14.254 -0.9514  1.9186 -0.1521
18645TIP3    H277427   6.136   2.699  14.143 -0.4003  0.1965  0.1372
18646TIP3   OH277428   6.157   3.366   2.171  0.0221 -0.1229 -0.0666
18646TIP3    H177429   6.109   3.288   2.146 -0.3001  0.1802 -0.4097
18646TIP3    H277430   6.246   3.335   2.188 -0.7555 -1.0789  2.7677
18647TIP3   OH277431   4.621   3.761   4.543 -0.1645  0.3260 -0.1439
18647TIP3    H177432   4.569   3.681   4.530  2.0896 -0.9042 -2.4107
18647TIP3    H277433   4.580   3.825   4.485 -0.8735  0.2745  0.2856
18648TIP3   OH277434   5.655   0.811  14.543  0.0042 -0.6554  0.0362
18648TIP3    H177435   5.570   0.847  14.519 -0.1599 -1.1994 -0.2054
18648TIP3    H277436   5.636   0.729  14.588  0.4202 -1.4081 -1.1053
18649TIP3   OH277437   0.089   2.255  10.712  0.2375 -0.5144  0.0723
18649TIP3    H177438   0.083   2.343  10.750  0.8178 -0.3596 -0.1796
18649TIP3    H277439   0.113   2.199  10.785  0.5415 -0.3526  0.0963
18650TIP3   OH277440   5.862   0.053   1.583 -0.4245  0.1664  0.1266
18650TIP3    H177441   5.953   0.041   1.553 -0.1333  0.8241  0.7158
18650TIP3    H277442   5.838  -0.031   1.621  0.5182  0.4552  1.4451
18651TIP3   OH277443   6.811   4.597   0.681  0.0711 -0.1143  0.3172
18651TIP3    H177444   6.780   4.532   0.618  0.7921  0.2477 -0.4406
18651TIP3    H277445   6.738   4.610   0.740 -0.8229 -0.1024 -0.7579
18652TIP3   OH277446   5.148   2.121   4.010 -0.0278  0.4257 -0.7302
18652TIP3    H177447   5.087   2.054   4.041 -1.5262  1.2912 -1.6501
18652TIP3    H277448   5.224   2.114   4.068 -1.4970  0.0883  1.2619
18653TIP3   OH277449   4.625   1.954   5.881  0.4042  1.0680 -0.4026
18653TIP3    H177450   4.574   1.873   5.873  0.7119  0.8424 -0.1480
18653TIP3    H277451   4.696   1.931   5.941  2.2073  0.6605 -2.5416
18654TIP3   OH277452   3.359   4.711  12.304  0.0711 -0.1698 -0.3664
18654TIP3    H177453   3.362   4.701  12.400  0.6568 -0.6427 -0.4291
18654TIP3    H277454   3.311   4.634  12.273  2.6522 -1.7820 -0.6767
18655TIP3   OH277455   1.790   1.764   3.813  0.1116 -0.4676 -0.1442
18655TIP3    H177456   1.765   1.703   3.744  0.0122 -0.1527 -0.3929
18655TIP3    H277457   1.793   1.712   3.893 -0.6802 -0.6494 -0.2266
18656TIP3   OH277458   1.093   2.915  10.656 -0.1419  0.4805  0.4366
18656TIP3    H177459   1.160   2.851  10.680 -1.0018 -0.3341  0.7320
18656TIP3    H277460   1.014   2.863  10.642 -0.3293  1.2316 -1.5663
18657TIP3   OH277461   1.036   5.742   3.923 -0.0591 -0.0725 -0.3255
18657TIP3    H177462   0.953   5.693   3.922 -0.5804  0.7337  0.8342
18657TIP3    H277463   1.092   5.696   3.861 -1.0565 -1.2092 -0.4204
18658TIP3   OH277464   5.827   3.685  11.412 -0.0796  0.3235  0.4870
18658TIP3    H177465   5.890   3.725  11.353 -1.0401 -0.3979 -1.0880
18658TIP3    H277466   5.807   3.600  11.372 -0.9744 -0.0672  1.7034
18659TIP3   OH277467   1.651   5.175   5.900  0.3823 -0.3085 -0.2649
18659TIP3    H177468   1.567   5.180   5.853 -0.7578 -0.8594  1.6171
18659TIP3    H277469   1.630   5.130   5.982  2.3056  0.5091  0.7408
18660TIP3   OH277470   2.012   6.561   2.792 -0.5501 -0.2697  0.7830
18660TIP3    H177471   1.948   6.528   2.855 -1.5028 -0.0243 -0.0271
18660TIP3    H277472   1.959   6.601   2.723  0.3639 -2.1240 -1.0955
18661TIP3   OH277473   6.697   3.978   5.932 -0.0959 -0.3437  0.1176
18661TIP3    H177474   6.634   3.908   5.950  1.9207 -3.0794 -2.4542
18661TIP3    H277475   6.780   3.946   5.967  0.7025  1.2510 -0.1972
18662TIP3   OH277476   5.748   1.071   3.566  0.1348  0.0836 -0.1357
18662TIP3    H177477   5.746   0.976   3.569 -1.4033  0.1018  0.9764
18662TIP3    H277478   5.661   1.098   3.598  0.2004  1.8428 -1.2564
18663TIP3   OH277479   3.291   0.192   5.932  0.5691 -0.5272 -0.0227
18663TIP3    H177480   3.221   0.251   5.961  1.3254  0.1103  0.5793
18663TIP3    H277481   3.284   0.116   5.989  0.0447 -0.6908 -0.3080
18664TIP3   OH277482   3.791   3.271  13.976 -0.3837  0.6854  0.3637
18664TIP3    H177483   3.873   3.253  14.022 -0.8531 -1.2639  0.5481
18664TIP3    H277484   3.766   3.359  14.003  0.6470  0.5434  1.8580
18665TIP3   OH277485   5.302   4.614   3.070  0.0710 -0.2630  0.1345
18665TIP3    H177486   5.380   4.568   3.041  2.0349  2.0680  1.3189
18665TIP3    H277487   5.248   4.623   2.992  1.8382 -0.4181 -1.1512
18666TIP3   OH277488   6.108   3.300  12.913  0.4654  0.1962 -0.6580
18666TIP3    H177489   6.050   3.277  12.985 -1.5553  0.1260 -2.2370
18666TIP3    H277490   6.196   3.278  12.945 -0.2113  1.1281  2.1363
18667TIP3   OH277491   1.976   1.793  16.029 -0.8927 -0.0525  0.3697
18667TIP3    H177492   1.917   1.760  15.961 -0.5271  0.8525 -0.4018
18667TIP3    H277493   2.030   1.858  15.985 -0.2955  0.1807  1.4115
18668TIP3   OH277494   0.643   3.811  15.930 -0.5372 -0.2593  0.4916
18668TIP3    H177495   0.610   3.879  15.989 -0.3666 -0.8342  1.2562
18668TIP3    H277496   0.568   3.789  15.874 -0.0870  1.9093 -1.0917
18669TIP3   OH277497   2.456   5.523   5.362 -0.2297 -0.2317 -0.2160
18669TIP3    H177498   2.417   5.600   5.320 -0.3618 -0.3187 -0.2544
18669TIP3    H277499   2.481   5.554   5.450  0.0906 -0.0369 -0.3738
18670TIP3   OH277500   2.492   3.080   4.967  0.2110 -0.2423  0.4665
18670TIP3    H177501   2.560   3.014   4.955 -0.3382 -0.5113 -1.4937
18670TIP3    H277502   2.421   3.033   5.012  0.2040 -0.7448 -0.0563
18671TIP3   OH277503   3.504   5.693  11.077  0.6308 -0.0826 -0.2543
18671TIP3    H177504   3.516   5.728  10.989 -0.9261  2.2335  0.3650
18671TIP3    H277505   3.576   5.729  11.127  1.4999 -1.3774 -0.5242
18672TIP3   OH277506   4.343   5.902  10.628 -0.0788  0.1005  0.0544
18672TIP3    H177507   4.387   5.824  10.594 -0.2563  0.4374 -0.9984
18672TIP3    H277508   4.277   5.922  10.562 -2.4907 -0.9288  2.0183
18673TIP3   OH277509   5.919   0.619  15.561  0.1017 -0.4873  0.0382
18673TIP3    H177510   6.013   0.619  15.544 -0.1233  1.2787 -1.5869
18673TIP3    H277511   5.911   0.587  15.650  2.3815  0.6980  0.7612
18674TIP3   OH277512   6.063   5.013  11.558 -0.8443  0.1830  0.4361
18674TIP3    H177513   6.002   4.938  11.561  1.6201 -2.0402 -0.7023
18674TIP3    H277514   6.117   4.996  11.481  0.9745  2.2459  1.1635
18675TIP3   OH277515   2.165   4.889  11.687 -0.4135 -0.2867  0.5714
18675TIP3    H177516   2.238   4.884  11.626  0.3965 -0.5702  1.5279
18675TIP3    H277517   2.183   4.820  11.751 -2.5640 -1.6871 -0.2493
18676TIP3   OH277518   0.109   5.678  10.844 -0.2543  0.2177  0.0828
18676TIP3    H177519   0.137   5.770  10.845  1.3152 -0.2167  1.0180
18676TIP3    H277520   0.190   5.629  10.829 -1.1088 -1.0069 -0.6491
18677TIP3   OH277521   5.854   0.600  15.837  0.0440 -0.3788  0.0851
18677TIP3    H177522   5.896   0.672  15.884 -1.3998  0.4534  0.1578
18677TIP3    H277523   5.767   0.592  15.876 -0.3054 -1.2947 -0.8090
18678TIP3   OH277524   3.236   6.680  15.199  0.5907  0.2926 -0.9908
18678TIP3    H177525   3.266   6.771  15.210 -0.2185  0.7320 -2.2292
18678TIP3    H277526   3.165   6.686  15.135 -0.2420 -1.0844 -0.2410
18679TIP3   OH277527   2.310   1.704  13.082 -0.1956  0.2778 -0.0000
18679TIP3    H177528   2.248   1.631  13.089 -0.2418  0.5055  3.3486
18679TIP3    H277529   2.395   1.662  13.070 -0.3285 -0.3063  1.0231
18680TIP3   OH277530   3.559   6.399   4.451 -0.1086  0.3999 -0.0607
18680TIP3    H177531   3.523   6.467   4.509  0.2057  0.2465  0.3203
18680TIP3    H277532   3.635   6.440   4.411  0.8775 -0.1406  1.1808
18681TIP3   OH277533   2.953   5.465   2.492 -0.0880  0.3043  0.3291
18681TIP3    H177534   2.918   5.478   2.403 -1.2257  0.5922  0.7933
18681TIP3    H277535   3.042   5.499   2.488 -0.1997  0.5165 -0.6527
18682TIP3   OH277536   5.123   4.815  12.171 -0.1451  0.5321 -0.0920
18682TIP3    H177537   5.156   4.739  12.123 -1.2010 -1.3673  2.0153
18682TIP3    H277538   5.193   4.880  12.162  1.5956 -1.2775 -0.5731
18683TIP3   OH277539   6.686   4.842  13.480  0.1132 -0.1368  0.4083
18683TIP3    H177540   6.771   4.810  13.450 -0.9714 -1.9789 -0.8485
18683TIP3    H277541   6.624   4.811  13.414 -2.0204 -1.8247  3.0528
18684TIP3   OH277542   1.747   1.505  15.293  0.4677  0.2412  1.0095
18684TIP3    H177543   1.739   1.543  15.206 -2.4408  0.7351  1.3977
18684TIP3    H277544   1.842   1.493  15.306  0.9765 -0.0328 -2.2432
18685TIP3   OH277545   6.688   0.812   6.233  0.3241 -0.2343  0.3975
18685TIP3    H177546   6.677   0.848   6.321  1.7497 -0.6165  0.7598
18685TIP3    H277547   6.757   0.866   6.194 -1.3671  0.9443 -1.0864
18686TIP3   OH277548   5.076   4.764   2.010  0.5555  0.0149  0.0476
18686TIP3    H177549   5.101   4.672   2.022  0.6585  0.1129  0.5944
18686TIP3    H277550   5.146   4.814   2.052  1.2424  0.3934 -1.4654
18687TIP3   OH277551   6.661   5.449  10.733  0.1241 -0.2368 -0.0221
18687TIP3    H177552   6.694   5.396  10.806 -1.8279 -1.6016 -0.0248
18687TIP3    H277553   6.584   5.494  10.769 -0.7498 -0.7768 -1.1449
18688TIP3   OH277554   3.908   6.606   0.784  0.2848  0.2004  0.7285
18688TIP3    H177555   3.829   6.640   0.743  0.8548  1.1335  0.3661
18688TIP3    H277556   3.895   6.621   0.878  0.8091  2.1444  0.5398
18689TIP3   OH277557   0.750   5.852  16.625  0.4547 -0.5539  0.1875
18689TIP3    H177558   0.815   5.912  16.663 -0.5716  0.3642  0.5278
18689TIP3    H277559   0.712   5.900  16.552  1.0933 -1.6136 -0.8849
18690TIP3   OH277560   0.770   3.278  10.905  0.2888  0.0713  0.2303
18690TIP3    H177561   0.679   3.298  10.880 -0.1472 -1.7326  0.2733
18690TIP3    H277562   0.774   3.302  10.998  0.0264  0.6805  0.0927
18691TIP3   OH277563   1.276   5.916  13.866 -0.1320  0.4291  0.4416
18691TIP3    H177564   1.218   5.955  13.800 -0.2400 -0.2805  0.1090
18691TIP3    H277565   1.248   5.825  13.872  1.9283 -0.3642 -0.8772
18692TIP3   OH277566   4.749   4.695   4.838  0.4330 -0.6133 -0.1418
18692TIP3    H177567   4.711   4.782   4.854  0.1851 -1.0524  1.8318
18692TIP3    H277568   4.786   4.669   4.922  1.0741 -2.1642 -0.8772
18693TIP3   OH277569   6.168   2.765  17.149 -0.4300  0.0606  0.2034
18693TIP3    H177570   6.147   2.773  17.056 -1.7808 -2.8045  0.1473
18693TIP3    H277571   6.262   2.750  17.152 -0.3108  0.5848 -0.6315
18694TIP3   OH277572   4.591   0.781  10.587 -0.1169 -0.6024  0.0593
18694TIP3    H177573   4.682   0.809  10.574 -0.1327 -0.2592  0.6141
18694TIP3    H277574   4.551   0.786  10.500  0.0354  0.5920  0.0385
18695TIP3   OH277575   2.740   0.044   0.628 -0.3221 -0.2482  0.0075
18695TIP3    H177576   2.787  -0.037   0.649 -1.5878 -0.9126  0.3816
18695TIP3    H277577   2.744   0.096   0.708 -2.5064 -1.4775  1.0195
18696TIP3   OH277578   0.869   0.295   0.139 -0.4354  0.1144 -0.0477
18696TIP3    H177579   0.878   0.321   0.048 -0.2790  3.2417  0.7593
18696TIP3    H277580   0.775   0.297   0.156 -0.3703  1.1623  0.2491
18697TIP3   OH277581   4.968   1.006   5.690 -0.1552 -0.4757  0.1526
18697TIP3    H177582   5.046   1.024   5.637 -0.5584  3.1670  0.5456
18697TIP3    H277583   4.996   1.023   5.780 -1.3043  0.5947  0.3299
18698TIP3   OH277584   6.807   5.223  12.349 -0.0407  0.6406  0.0496
18698TIP3    H177585   6.837   5.231  12.258  0.6391 -0.2764  0.1819
18698TIP3    H277586   6.857   5.149  12.384 -1.6154 -0.1801  0.6381
18699TIP3   OH277587   3.571   2.044   1.263 -0.3673  0.8467  0.3118
18699TIP3    H177588   3.537   2.097   1.191 -1.4662  0.0507  0.2101
18699TIP3    H277589   3.561   1.954   1.233 -0.0699  0.5291  1.1342
18700TIP3   OH277590   2.258   6.818  10.910 -0.1755  0.5644  0.0571
18700TIP3    H177591   2.214   6.799  10.827  0.5258 -0.6990 -0.0354
18700TIP3    H277592   2.350   6.799  10.894  0.2127  1.7640  0.6959
18701TIP3   OH277593   6.390   6.145  16.248 -0.1982 -0.3255 -0.4799
18701TIP3    H177594   6.376   6.222  16.195  0.2830  0.3532  0.3484
18701TIP3    H277595   6.304   6.103  16.254 -0.1604 -0.6786 -2.1526
18702TIP3   OH277596   5.584   5.034  10.985  0.5073  0.4205  0.0263
18702TIP3    H177597   5.674   5.050  11.013  1.2839 -2.2224 -0.6475
18702TIP3    H277598   5.575   5.083  10.903  2.1402 -0.9860 -1.0711
18703TIP3   OH277599   0.647   4.689   4.063 -0.5224  0.4807  0.2165
18703TIP3    H177600   0.572   4.731   4.105 -0.5064  0.1684  0.5665
18703TIP3    H277601   0.695   4.648   4.135  0.4896  1.4414  0.1157
18704TIP3   OH277602   6.535   0.132   4.383  0.1181  0.2990  0.2048
18704TIP3    H177603   6.561   0.115   4.473 -2.3039  2.2441  1.3579
18704TIP3    H277604   6.444   0.103   4.377 -0.8296  3.1468 -0.6042
18705TIP3   OH277605   1.530   6.002   5.165  0.1160  0.5617 -0.5056
18705TIP3    H177606   1.620   6.030   5.178  0.7131 -1.3209 -0.2975
18705TIP3    H277607   1.478   6.060   5.221  1.2415  1.2794 -0.1796
18706TIP3   OH277608   5.424   4.271  12.582  0.2043  0.1526 -0.2905
18706TIP3    H177609   5.439   4.325  12.660  2.3710  0.9669 -1.2000
18706TIP3    H277610   5.397   4.333  12.515 -0.0219 -0.3080 -0.6294
18707TIP3   OH277611   2.907   1.686  14.213  0.4452 -0.0512  0.0548
18707TIP3    H177612   2.906   1.693  14.117 -1.7648  1.2726  0.0948
18707TIP3    H277613   2.940   1.598  14.230 -0.0296 -0.6863 -1.9808
18708TIP3   OH277614   5.252   4.046   6.366 -0.1957  0.1246 -0.7213
18708TIP3    H177615   5.247   4.129   6.319 -1.6812 -0.3191 -1.4159
18708TIP3    H277616   5.202   3.985   6.312  0.4381 -1.1003  0.0353
18709TIP3   OH277617   2.375   2.835  13.824 -0.0453  0.0129 -0.1559
18709TIP3    H177618   2.314   2.908  13.834 -0.1959  0.0515 -1.2388
18709TIP3    H277619   2.412   2.822  13.912  0.2342  1.6067 -0.0102
18710TIP3   OH277620   5.772   0.804   0.755 -0.0939 -0.5732  0.5018
18710TIP3    H177621   5.697   0.860   0.735 -0.7486 -1.8062 -0.6117
18710TIP3    H277622   5.834   0.822   0.684  0.3723 -0.0988  1.0193
18711TIP3   OH277623   0.056   2.140  12.062 -0.0116  0.4427 -0.1364
18711TIP3    H177624  -0.031   2.146  12.024  0.3384 -1.1403 -1.3433
18711TIP3    H277625   0.058   2.054  12.103  1.5966 -0.5079 -2.0002
18712TIP3   OH277626   0.328   6.300   0.954 -0.0061 -0.5303  0.0258
18712TIP3    H177627   0.364   6.213   0.970 -0.2211 -0.6854 -0.3053
18712TIP3    H277628   0.301   6.298   0.862 -0.8066 -0.4100  0.2454
18713TIP3   OH277629   6.361   3.605   1.372  0.0074 -0.4278  0.2926
18713TIP3    H177630   6.444   3.560   1.359 -0.3249 -0.6412 -1.3152
18713TIP3    H277631   6.295   3.541   1.346 -0.6664 -0.1490  1.2473
18714TIP3   OH277632   2.331   1.201  12.920 -0.0121  0.0503 -0.1731
18714TIP3    H177633   2.297   1.157  12.842  0.7209 -3.2598  1.1882
18714TIP3    H277634   2.262   1.190  12.986 -0.5547  2.6573 -0.2166
18715TIP3   OH277635   4.299   1.267   4.992 -0.7145 -0.4768  0.3631
18715TIP3    H177636   4.281   1.357   5.019 -0.3829  0.4382 -2.2472
18715TIP3    H277637   4.276   1.215   5.069 -2.3963  1.6842  1.4472
18716TIP3   OH277638   5.929   1.138  11.669  0.1444  0.0154  0.3041
18716TIP3    H177639   5.901   1.048  11.686  0.6702 -0.2931 -0.4091
18716TIP3    H277640   5.922   1.148  11.574 -1.6185  1.3104  0.5234
18717TIP3   OH277641   5.677   1.625   5.603 -0.3472  0.3929  0.0895
18717TIP3    H177642   5.595   1.625   5.555  0.2562 -1.9009 -1.0957
18717TIP3    H277643   5.691   1.533   5.627  2.2143  0.5713 -0.4397
18718TIP3   OH277644   2.943   4.028   0.789 -0.4774 -0.3026  0.4063
18718TIP3    H177645   3.022   4.033   0.734  1.0403 -1.1474  2.3922
18718TIP3    H277646   2.962   4.085   0.863 -2.6388  1.1087 -0.0309
18719TIP3   OH277647   1.761   4.069  13.662 -0.0521 -0.3046  0.4854
18719TIP3    H177648   1.856   4.081  13.660 -0.0408 -0.4232  0.0055
18719TIP3    H277649   1.742   4.043  13.752  0.1877  1.1412  0.9820
18720TIP3   OH277650   0.588   2.335  16.337  0.1158  0.2071 -0.2272
18720TIP3    H177651   0.644   2.281  16.393 -1.5618 -0.9330  0.4469
18720TIP3    H277652   0.535   2.386  16.399 -0.9128 -0.1700 -0.7741
18721TIP3   OH277653   5.598   5.092   5.831  0.0048  0.0619  0.1367
18721TIP3    H177654   5.597   5.123   5.922 -0.4329  1.1470 -0.2217
18721TIP3    H277655   5.687   5.108   5.801  0.7920 -2.2952  1.0012
18722TIP3   OH277656   2.199   0.602  11.528  0.4620  0.3904 -0.3429
18722TIP3    H177657   2.151   0.541  11.472 -0.0781  2.4873 -2.3058
18722TIP3    H277658   2.134   0.666  11.555  1.3080  0.9244  0.4963
18723TIP3   OH277659   0.717   2.547  14.649 -0.2210  0.3492  0.2878
18723TIP3    H177660   0.800   2.510  14.681 -0.0296  0.1838 -0.3917
18723TIP3    H277661   0.651   2.510  14.707 -0.0024 -0.8319 -0.1759
18724TIP3   OH277662   5.196   2.956  14.848  0.0419 -0.1653  0.1765
18724TIP3    H177663   5.211   3.015  14.922  0.2973 -1.2709  1.0295
18724TIP3    H277664   5.267   2.891  14.854 -0.1843 -0.5217 -0.7859
18725TIP3   OH277665   4.492   1.945  16.045  0.1733 -0.1645 -0.0508
18725TIP3    H177666   4.575   1.918  16.005  0.3180 -0.4960  0.4546
18725TIP3    H277667   4.477   1.879  16.113  0.6548  1.1430  1.3759
18726TIP3   OH277668   1.512   0.677  11.312  0.5534  0.0533 -0.0642
18726TIP3    H177669   1.589   0.725  11.282  0.7672 -0.5442 -0.4750
18726TIP3    H277670   1.520   0.591  11.272  1.4850 -1.2220  2.5830
18727TIP3   OH277671   2.694   4.777  10.730  0.3932  0.0170 -0.0053
18727TIP3    H177672   2.735   4.857  10.697  0.1490  0.4217  0.6499
18727TIP3    H277673   2.601   4.787  10.708  0.5795 -0.7535 -1.2101
18728TIP3   OH277674   0.239   1.952  15.899 -0.8873  0.2397  0.6070
18728TIP3    H177675   0.175   2.010  15.939  0.6909  1.1224  2.0013
18728TIP3    H277676   0.311   2.010  15.873 -0.8728 -0.6281 -1.4979
18729TIP3   OH277677   2.042   2.446   0.641 -0.2789  0.4917 -0.3603
18729TIP3    H177678   1.955   2.455   0.604 -0.9091 -0.1336  0.8865
18729TIP3    H277679   2.047   2.354   0.668 -0.5050  1.2190  2.5039
18730TIP3   OH277680   5.319   5.699  11.885  0.0750  0.3530 -0.8117
18730TIP3    H177681   5.397   5.692  11.831  1.1163  2.7390  0.2488
18730TIP3    H277682   5.259   5.634  11.849  1.7052 -0.0143 -3.0720
18731TIP3   OH277683   0.903   6.509  16.575  0.1452  0.0707 -0.1185
18731TIP3    H177684   0.861   6.438  16.526  0.7458 -1.0592  0.9428
18731TIP3    H277685   0.983   6.470  16.609  0.1248  1.0422  1.1121
18732TIP3   OH277686   5.722   4.031  11.529 -0.3109  0.3155  0.5630
18732TIP3    H177687   5.673   3.962  11.486  0.3108 -1.3608  2.4109
18732TIP3    H277688   5.684   4.112  11.495 -0.9080 -0.8892 -1.8401
18733TIP3   OH277689   3.808   2.877  11.450  0.1447 -0.1281  0.6036
18733TIP3    H177690   3.840   2.825  11.524  0.3046  0.3144  0.8514
18733TIP3    H277691   3.729   2.832  11.421 -0.0759 -0.1507  1.2282
18734TIP3   OH277692   1.480   5.182   6.746  0.0526  0.1354  0.0099
18734TIP3    H177693   1.418   5.225   6.806 -1.3951 -0.5656 -0.9281
18734TIP3    H277694   1.566   5.198   6.785 -0.8126 -0.1709  2.2137
18735TIP3   OH277695   2.379   5.020  14.171  0.0744  0.2013  0.1073
18735TIP3    H177696   2.358   5.093  14.113 -0.5471  0.1937  0.3154
18735TIP3    H277697   2.474   5.015  14.170  0.0705 -1.0297 -2.4600
18736TIP3   OH277698   4.111   6.751  15.961  0.3095 -0.4116  0.2024
18736TIP3    H177699   4.065   6.786  16.038 -0.1732 -0.8769  0.1266
18736TIP3    H277700   4.109   6.823  15.898 -1.2795 -0.7884 -0.2062
18737TIP3   OH277701   2.779   5.249   3.649  0.1357  0.0517  0.1557
18737TIP3    H177702   2.728   5.171   3.624  0.1696  0.3047 -0.7663
18737TIP3    H277703   2.839   5.219   3.717 -0.4064 -0.5383  0.3794
18738TIP3   OH277704   4.003   0.192  14.004  0.6076 -0.2860  0.2306
18738TIP3    H177705   3.958   0.264  14.047 -0.4554 -0.9449  0.2704
18738TIP3    H277706   4.091   0.225  13.985 -0.3448  1.5802 -1.2024
18739TIP3   OH277707   0.630   1.782  13.810  0.2486 -0.1500 -0.3630
18739TIP3    H177708   0.643   1.692  13.781 -1.3730 -0.8141  0.7986
18739TIP3    H277709   0.553   1.812  13.761  0.9499  0.7204 -0.9547
18740TIP3   OH277710   0.122   6.536   3.897  0.1906 -0.1637  0.1335
18740TIP3    H177711   0.027   6.536   3.888  0.0313 -2.5138  1.1509
18740TIP3    H277712   0.139   6.594   3.972 -0.3650  0.6832 -0.3810
18741TIP3   OH277713   2.465   6.551  14.956 -0.3769  0.0271  0.1833
18741TIP3    H177714   2.424   6.486  15.013 -0.6514  0.2812  0.2802
18741TIP3    H277715   2.512   6.500  14.891 -2.0976 -0.3106 -0.8614
18742TIP3   OH277716   6.205   0.724  15.240  1.3183  0.3074  0.0776
18742TIP3    H177717   6.220   0.658  15.173  2.4787 -1.0813  1.6236
18742TIP3    H277718   6.269   0.793  15.221  2.9277 -0.9419  0.8025
18743TIP3   OH277719   0.149   0.249  15.109  0.2448  0.1325  0.1259
18743TIP3    H177720   0.242   0.268  15.094  0.0774  0.4962 -0.4851
18743TIP3    H277721   0.104   0.329  15.084 -0.1342  0.5005  1.8932
18744TIP3   OH277722   5.078   5.603   4.434 -0.7277 -0.1049  0.3067
18744TIP3    H177723   5.050   5.694   4.440  0.4178  0.4216 -1.5350
18744TIP3    H277724   5.143   5.592   4.503  0.1511  0.9042 -0.3340
18745TIP3   OH277725   6.445   1.010   1.601 -0.3037 -0.3377  0.1141
18745TIP3    H177726   6.534   1.017   1.567 -0.1640  0.2228  0.5783
18745TIP3    H277727   6.426   1.098   1.635 -1.8584  0.2126 -1.9604
18746TIP3   OH277728   1.164   6.264   2.882 -0.2597 -0.0150  0.1612
18746TIP3    H177729   1.168   6.344   2.934 -0.1315  0.2860 -0.3086
18746TIP3    H277730   1.110   6.204   2.933 -2.0991  1.0720 -0.4295
18747TIP3   OH277731   5.963   5.830  13.686 -0.2995 -0.2144  0.0914
18747TIP3    H177732   6.051   5.846  13.653 -1.2603  1.4059 -1.9736
18747TIP3    H277733   5.950   5.895  13.754 -0.4228  0.6590 -0.7427
18748TIP3   OH277734   3.533   3.547  15.016 -0.9311  0.7104  0.0689
18748TIP3    H177735   3.545   3.452  15.018 -1.1694  0.6838  0.3349
18748TIP3    H277736   3.621   3.582  14.999 -0.7515  0.4659  0.4968
18749TIP3   OH277737   6.461   4.149   2.168 -0.8579 -0.1708  0.4851
18749TIP3    H177738   6.505   4.212   2.110  0.2307 -1.4213 -0.1072
18749TIP3    H277739   6.448   4.072   2.113 -1.6375 -0.6718  1.3553
18750TIP3   OH277740   4.133   2.228   2.206  0.7264  0.5667  0.2025
18750TIP3    H177741   4.202   2.248   2.270 -0.4558  0.2146  1.6424
18750TIP3    H277742   4.086   2.311   2.195  0.4974  0.4517  0.3223
18751TIP3   OH277743   0.545   4.522   4.546 -0.2786  0.7608 -0.0388
18751TIP3    H177744   0.459   4.486   4.568  0.4157 -0.2056  1.2156
18751TIP3    H277745   0.607   4.463   4.588  0.9799  2.1610  0.1389
18752TIP3   OH277746   1.273   4.459   5.349 -0.2003 -0.6075 -0.1990
18752TIP3    H177747   1.302   4.393   5.411 -1.7739 -1.9169 -0.7740
18752TIP3    H277748   1.178   4.465   5.364 -0.2758  0.5859 -1.0433
18753TIP3   OH277749   5.413   4.483   3.484  0.0684 -0.1556  0.0416
18753TIP3    H177750   5.431   4.400   3.529  0.9735 -1.4005 -2.4380
18753TIP3    H277751   5.349   4.460   3.416 -0.4837  1.4304 -0.0173
18754TIP3   OH277752   0.093   1.862  16.145  0.6133 -0.2916 -0.0685
18754TIP3    H177753   0.156   1.866  16.217 -0.1096 -1.3452  0.6580
18754TIP3    H277754   0.044   1.781  16.161 -0.4821  0.1688 -0.9758
18755TIP3   OH277755   5.561   4.291  13.262  0.0259  0.7174 -0.0515
18755TIP3    H177756   5.561   4.196  13.253 -1.4878  0.6361  0.4930
18755TIP3    H277757   5.651   4.312  13.286  0.0594 -0.7498  1.3100
18756TIP3   OH277758   2.331   1.174   4.790 -0.1949 -0.0675 -0.0126
18756TIP3    H177759   2.354   1.088   4.753  1.5894  0.9176 -1.3615
18756TIP3    H277760   2.349   1.165   4.883  0.0087 -1.1521 -0.1330
18757TIP3   OH277761   4.129   0.180  15.038 -0.4829  0.1260 -0.1951
18757TIP3    H177762   4.219   0.171  15.071 -0.9734 -1.0747  0.9279
18757TIP3    H277763   4.096   0.090  15.035 -1.0265  0.3302 -2.5070
18758TIP3   OH277764   1.232   0.825   1.418 -0.7302  0.3093 -0.0281
18758TIP3    H177765   1.301   0.891   1.411 -0.5047 -0.0088 -0.8844
18758TIP3    H277766   1.151   0.875   1.416 -0.5573  0.5824 -0.5297
18759TIP3   OH277767   5.240   0.650  12.127 -0.5674  0.1605  0.2124
18759TIP3    H177768   5.285   0.730  12.150  0.0070 -0.1079  0.0400
18759TIP3    H277769   5.222   0.607  12.211 -0.3932  0.2073  0.2730
18760TIP3   OH277770   5.084   4.936   3.916  0.1366  0.5353  0.5056
18760TIP3    H177771   5.052   4.849   3.938  0.9664 -0.3656 -1.5482
18760TIP3    H277772   5.034   4.995   3.973 -1.4783 -1.1548  0.9593
18761TIP3   OH277773   3.684   5.368   1.546  0.3306  1.0268  0.6641
18761TIP3    H177774   3.687   5.302   1.616  4.2061  0.0353 -0.1790
18761TIP3    H277775   3.774   5.402   1.542 -0.3417  2.7831 -2.2471
18762TIP3   OH277776   4.171   1.123  12.036  0.0011  0.0243  0.3356
18762TIP3    H177777   4.232   1.052  12.056  0.0176 -0.7967 -2.2765
18762TIP3    H277778   4.193   1.150  11.947 -2.0687  1.1302  0.0861
18763TIP3   OH277779   0.877   6.355  16.181 -0.0294  0.7236 -0.0216
18763TIP3    H177780   0.792   6.317  16.200 -0.9633  1.8939 -1.6289
18763TIP3    H277781   0.900   6.319  16.095 -0.2300  2.5430 -0.8690
18764TIP3   OH277782   3.263   3.926  16.709 -0.5307  0.1792 -0.7478
18764TIP3    H177783   3.277   3.868  16.783  0.7943  0.7458 -0.5366
18764TIP3    H277784   3.345   3.974  16.699 -0.4582 -0.2669 -2.9356
18765TIP3   OH277785   5.364   6.597   0.215 -0.5025  0.5075 -0.7504
18765TIP3    H177786   5.285   6.611   0.269  0.5494 -0.8546  1.3037
18765TIP3    H277787   5.370   6.501   0.207  0.5955  0.6179 -1.4025
18766TIP3   OH277788   6.291   6.190  12.799  0.8123 -0.5621 -0.1464
18766TIP3    H177789   6.382   6.219  12.794  1.3036 -1.9672  0.2393
18766TIP3    H277790   6.288   6.112  12.745 -0.1229 -0.6403  0.0115
18767TIP3   OH277791   3.123   2.392   3.250  0.5694 -0.0832 -0.3673
18767TIP3    H177792   3.203   2.443   3.258 -0.4262  1.3632  1.0060
18767TIP3    H277793   3.075   2.409   3.331 -1.8673  0.4348 -1.8080
18768TIP3   OH277794   1.065   6.184   1.314  0.1258 -0.2358 -0.1477
18768TIP3    H177795   1.050   6.254   1.377  0.1789 -0.0389 -0.3533
18768TIP3    H277796   0.978   6.162   1.282  0.3040  1.8358 -2.3491
18769TIP3   OH277797   1.931   5.383   0.582 -0.2821 -0.5695 -0.5022
18769TIP3    H177798   1.899   5.349   0.666 -0.7938  2.1481  0.5064
18769TIP3    H277799   1.938   5.306   0.526 -0.3953 -2.4171  1.8709
18770TIP3   OH277800   1.412   5.118   5.062  0.2446 -0.3268 -0.0977
18770TIP3    H177801   1.416   5.119   4.966  0.2669 -2.2263 -0.1531
18770TIP3    H277802   1.478   5.181   5.089 -0.6774  1.2290 -1.3244
18771TIP3   OH277803   2.243   6.241   4.263 -0.0681  0.3058 -0.4639
18771TIP3    H177804   2.181   6.198   4.322 -0.0570  0.7968 -0.0880
18771TIP3    H277805   2.232   6.196   4.180 -1.7164  1.0706 -0.7091
18772TIP3   OH277806   3.974   3.861  13.850 -0.2753  0.0251 -0.3433
18772TIP3    H177807   4.047   3.846  13.791  1.0843  0.8084  1.0625
18772TIP3    H277808   3.900   3.880  13.793  0.4418 -1.4483 -1.8168
18773TIP3   OH277809   5.896   6.647   0.302 -0.1273 -0.1890  0.2343
18773TIP3    H177810   5.848   6.589   0.362  0.1502  0.7321  1.3923
18773TIP3    H277811   5.985   6.613   0.303  0.0676  0.3196  1.0253
18774TIP3   OH277812   0.572   6.496  15.405  0.0209  0.4562  0.3846
18774TIP3    H177813   0.608   6.584  15.403 -0.5817  0.7895 -3.2167
18774TIP3    H277814   0.629   6.446  15.346  0.4146 -1.6737  2.3983
18775TIP3   OH277815   5.171   2.955   1.035  0.7835 -0.0799  0.6807
18775TIP3    H177816   5.114   2.926   1.106 -1.6888  1.4292 -0.5275
18775TIP3    H277817   5.183   3.049   1.050  0.7845  0.1309 -0.4861
18776TIP3   OH277818   1.339   3.578   5.913 -0.2527 -0.0896  0.0796
18776TIP3    H177819   1.325   3.642   5.983 -0.2211 -0.9553  0.9084
18776TIP3    H277820   1.303   3.618   5.835  0.7649  1.4048  0.3446
18777TIP3   OH277821   3.781   5.115  10.078  0.0643 -0.1273  1.1075
18777TIP3    H177822   3.786   5.137  10.171  2.3394  1.4448  0.6939
18777TIP3    H277823   3.704   5.163  10.046  0.9470  1.7297  1.6360
18778TIP3   OH277824   4.606   4.076   2.848  0.1647 -0.2305  0.3229
18778TIP3    H177825   4.593   4.158   2.800 -1.0134 -0.9346 -0.6154
18778TIP3    H277826   4.546   4.083   2.923 -0.9954 -0.7878 -0.5186
18779TIP3   OH277827   5.666   0.063  11.382  0.0153  0.4711 -0.3443
18779TIP3    H177828   5.605  -0.008  11.360 -0.3285  1.1229 -1.5534
18779TIP3    H277829   5.615   0.143  11.371  0.1586  0.9120  1.7866
18780TIP3   OH277830   1.114   3.800  13.889 -0.2683  0.0369 -0.2377
18780TIP3    H177831   1.202   3.772  13.866  1.1209  1.4811  2.7701
18780TIP3    H277832   1.070   3.721  13.920 -0.4005 -0.8514 -2.5059
18781TIP3   OH277833   4.653   1.345   1.379  0.3437  0.0931  0.1620
18781TIP3    H177834   4.603   1.282   1.430 -0.5051  0.5840 -0.0509
18781TIP3    H277835   4.623   1.332   1.289 -0.1524  1.0855  0.1720
18782TIP3   OH277836   1.862   3.205  15.258 -0.6597  0.0025 -0.0093
18782TIP3    H177837   1.873   3.186  15.351  0.8776  1.5182  0.1837
18782TIP3    H277838   1.776   3.170  15.235 -0.2824 -2.0571  1.5157
18783TIP3   OH277839   6.306   5.281  12.240 -0.7317 -0.3851  0.2710
18783TIP3    H177840   6.329   5.223  12.167 -0.8796 -1.2519  0.9009
18783TIP3    H277841   6.387   5.329  12.259 -0.8938  0.4519 -0.9701
18784TIP3   OH277842   0.260   6.057   4.041  0.0977 -0.2158 -0.1610
18784TIP3    H177843   0.213   5.982   4.006  0.5950 -0.6258  0.0316
18784TIP3    H277844   0.268   6.040   4.135  0.7523 -0.2332 -0.2117
18785TIP3   OH277845   0.642   5.768   0.731  0.0125 -0.5118  0.0083
18785TIP3    H177846   0.633   5.768   0.635  0.9325 -0.3362 -0.0883
18785TIP3    H277847   0.709   5.701   0.748 -0.5630 -0.9550  0.5787
18786TIP3   OH277848   6.163   0.681   6.483 -0.1606  0.5418  0.4925
18786TIP3    H177849   6.154   0.773   6.508 -0.9630  0.4837  0.4503
18786TIP3    H277850   6.075   0.654   6.457  0.5256  0.5138 -2.1402
18787TIP3   OH277851   4.234   0.672   2.483  0.2698  0.1299  0.6686
18787TIP3    H177852   4.233   0.604   2.551  0.6926 -0.6823 -0.1162
18787TIP3    H277853   4.185   0.634   2.410  0.3157  0.7608  0.3036
18788TIP3   OH277854   2.317   5.421  15.163 -0.6107  0.2948  0.2183
18788TIP3    H177855   2.338   5.468  15.082 -1.8127 -0.0545 -0.3225
18788TIP3    H277856   2.238   5.371  15.142  1.0790 -2.6974  0.5060
18789TIP3   OH277857   2.805   0.802   1.533  0.1774 -0.3161 -0.4658
18789TIP3    H177858   2.875   0.744   1.564 -1.2549 -1.5385  0.5958
18789TIP3    H277859   2.827   0.818   1.441  2.3507  0.1328  0.0690
18790TIP3   OH277860   3.595   1.162  16.175 -0.0356  0.1758 -0.6942
18790TIP3    H177861   3.618   1.179  16.084 -2.0238  0.5397 -1.1816
18790TIP3    H277862   3.548   1.240  16.203  1.5941  0.6122  1.0848
18791TIP3   OH277863   6.076   3.647  16.973  0.1218 -0.5483 -0.3280
18791TIP3    H177864   6.021   3.723  16.951  1.5621  0.6324 -0.0287
18791TIP3    H277865   6.044   3.618  17.058 -2.1351 -1.9528 -1.5401
18792TIP3   OH277866   4.414   2.906  12.182 -0.3175  0.0669  0.0238
18792TIP3    H177867   4.502   2.936  12.207  0.2188  0.3378 -2.0618
18792TIP3    H277868   4.356   2.949  12.245  1.0484 -0.4524  1.7249
18793TIP3   OH277869   0.953   4.349  14.835 -0.1770  0.0015  0.0223
18793TIP3    H177870   1.015   4.373  14.766 -0.3856  0.6677  0.0609
18793TIP3    H277871   0.898   4.426  14.846  0.1434  0.0771  1.2615
18794TIP3   OH277872   3.535   5.894  10.537 -0.5229 -0.2965  0.1286
18794TIP3    H177873   3.603   5.960  10.522 -2.8960  1.9723 -1.5197
18794TIP3    H277874   3.577   5.811  10.511  1.0786  1.2503 -2.8495
18795TIP3   OH277875   2.772   2.134  17.194 -0.1052 -0.5100  0.0908
18795TIP3    H177876   2.701   2.071  17.179  0.4047 -0.6594 -2.0342
18795TIP3    H277877   2.738   2.192  17.262 -0.8866 -2.5870  1.5961
18796TIP3   OH277878   2.123   6.827   0.563  0.4647 -0.0640 -0.1505
18796TIP3    H177879   2.149   6.751   0.512 -2.5637 -1.1770 -0.1949
18796TIP3    H277880   2.120   6.796   0.653  2.5915  1.0160  0.3514
18797TIP3   OH277881   3.918   0.919   4.896 -0.2353 -0.0463  0.2580
18797TIP3    H177882   3.960   0.908   4.981  0.2935  0.5607  0.0812
18797TIP3    H277883   3.876   0.835   4.879  0.7378 -0.5982  0.5353
18798TIP3   OH277884   4.461   6.341   1.305 -0.4512 -0.6153 -0.7014
18798TIP3    H177885   4.406   6.420   1.307 -1.1072 -1.0737  0.7030
18798TIP3    H277886   4.418   6.284   1.241 -1.3450 -0.7501 -0.0121
18799TIP3   OH277887   5.783   4.008   5.412  0.1170  0.0983 -0.0434
18799TIP3    H177888   5.775   4.094   5.370 -0.3717  0.2175  0.2789
18799TIP3    H277889   5.714   3.955   5.371  1.2022 -0.5214 -1.1249
18800TIP3   OH277890   1.085   1.220   1.312 -0.8234 -0.1047 -0.3765
18800TIP3    H177891   1.042   1.227   1.397  0.7991  0.3244  0.4621
18800TIP3    H277892   1.066   1.131   1.282 -1.0025 -0.4236  0.6712
18801TIP3   OH277893   0.470   4.554  11.486  0.1199  0.7574 -0.2806
18801TIP3    H177894   0.388   4.584  11.448 -1.2700 -1.4635  0.7621
18801TIP3    H277895   0.446   4.522  11.573  1.9945 -0.3914 -0.1190
18802TIP3   OH277896   0.260   6.052  15.206 -0.4030  0.1756  0.6816
18802TIP3    H177897   0.255   6.036  15.300  0.1431 -0.8963  0.5434
18802TIP3    H277898   0.352   6.038  15.184 -0.8498 -1.5492 -0.3267
18803TIP3   OH277899   5.939   3.404   0.893  0.2931  0.2083 -0.2952
18803TIP3    H177900   5.850   3.426   0.867 -0.6125 -1.4869  1.1698
18803TIP3    H277901   5.953   3.315   0.860  0.4521 -0.5500  1.7001
18804TIP3   OH277902   6.109   2.039  10.870  0.6448 -0.0129  0.2230
18804TIP3    H177903   6.068   1.960  10.836 -0.6789  0.9959 -0.6536
18804TIP3    H277904   6.199   2.013  10.889  0.1375 -1.8129  0.3548
18805TIP3   OH277905   4.215   6.815  13.610  0.2549  0.6413  0.2753
18805TIP3    H177906   4.265   6.855  13.680  0.1283  1.4624 -0.0915
18805TIP3    H277907   4.124   6.837  13.629  0.3699  3.1668 -1.4838
18806TIP3   OH277908   2.756   0.552   5.897 -0.6696 -0.0742  0.0152
18806TIP3    H177909   2.755   0.640   5.859 -2.8931 -0.2057 -0.4002
18806TIP3    H277910   2.807   0.500   5.835  0.4355  0.8363  0.1225
18807TIP3   OH277911   3.965   4.433  10.698 -0.0620 -0.0253 -0.1224
18807TIP3    H177912   3.897   4.500  10.690 -0.2631 -0.2907 -0.7159
18807TIP3    H277913   4.011   4.455  10.779 -0.8871  0.1261  0.3241
18808TIP3   OH277914   1.568   1.040   5.670 -0.5356 -0.3487 -0.2644
18808TIP3    H177915   1.623   1.064   5.744 -0.5697  0.2167 -0.4170
18808TIP3    H277916   1.564   0.944   5.673  0.5635 -0.4074 -0.3401
18809TIP3   OH277917   3.821   1.604  14.127  0.2897 -0.7169 -0.2788
18809TIP3    H177918   3.819   1.638  14.217 -0.2192 -2.2479  0.3275
18809TIP3    H277919   3.738   1.633  14.089 -0.0863 -1.1464  0.1903
18810TIP3   OH277920   5.515   2.521  14.917  0.2991  0.0420 -0.1139
18810TIP3    H177921   5.503   2.460  14.990  1.1102  0.9644  0.8194
18810TIP3    H277922   5.471   2.479  14.843 -1.3547 -0.5070  1.1143
18811TIP3   OH277923   1.982   0.518   1.606  0.2767 -0.0853 -0.3568
18811TIP3    H177924   2.066   0.473   1.599  0.4304 -0.1091  1.3310
18811TIP3    H277925   2.001   0.608   1.581  1.2162  0.3165  1.6119
18812TIP3   OH277926   0.662   4.581   0.305 -0.3707  0.1612 -0.4818
18812TIP3    H177927   0.651   4.626   0.389 -0.2458 -0.4364 -0.1399
18812TIP3    H277928   0.755   4.589   0.285 -0.0414 -1.2155  0.3289
18813TIP3   OH277929   5.824   6.687  14.421  0.0010 -0.1987  0.3090
18813TIP3    H177930   5.895   6.638  14.463  0.8919  1.3446  0.6848
18813TIP3    H277931   5.803   6.637  14.342  0.9933 -1.0700  0.5748
18814TIP3   OH277932   2.437   4.412   1.610 -0.3956  0.5249  0.3408
18814TIP3    H177933   2.375   4.452   1.672 -1.5078 -1.0218  0.2823
18814TIP3    H277934   2.433   4.318   1.630  2.2321  0.4028  0.5618
18815TIP3   OH277935   1.295   2.479   0.826 -0.4072 -0.1560  0.6744
18815TIP3    H177936   1.340   2.401   0.858  0.4966  0.1648  0.2226
18815TIP3    H277937   1.250   2.450   0.747 -0.0794 -0.2312  0.5112
18816TIP3   OH277938   0.822   3.496   2.763  0.3820 -0.6231  0.4885
18816TIP3    H177939   0.728   3.508   2.780  0.0762 -0.3951 -1.2300
18816TIP3    H277940   0.864   3.526   2.844 -0.9344  1.2942  0.5385
18817TIP3   OH277941   6.155   6.426   2.185 -0.2565 -0.0247  0.1897
18817TIP3    H177942   6.158   6.515   2.220 -1.1059  0.8298 -1.7211
18817TIP3    H277943   6.062   6.411   2.165 -0.0146 -1.0215 -0.2805
18818TIP3   OH277944   0.236   0.014   4.564  0.1363 -0.0629  0.4864
18818TIP3    H177945   0.156   0.009   4.512 -1.6313 -0.0562  3.0166
18818TIP3    H277946   0.228   0.097   4.612  1.9420  0.1991  0.4105
18819TIP3   OH277947   4.688   5.037  11.413  0.0209 -0.2221 -0.1640
18819TIP3    H177948   4.684   4.980  11.490  1.1672  0.4597  0.4319
18819TIP3    H277949   4.719   5.121  11.447 -0.4157  0.3840 -1.2210
18820TIP3   OH277950   6.707   3.927  12.157 -0.8446  0.3560  0.0290
18820TIP3    H177951   6.673   3.861  12.096 -1.4307 -0.0260  0.7413
18820TIP3    H277952   6.641   3.997  12.155 -0.4909  0.6839 -0.3250
18821TIP3   OH277953   1.066   4.698  11.120 -0.1217 -0.4457 -0.0876
18821TIP3    H177954   1.014   4.630  11.079  0.6542 -0.7317 -0.6285
18821TIP3    H277955   1.139   4.712  11.060 -1.1974  2.1606 -0.8845
18822TIP3   OH277956   4.557   6.136   5.574  0.2590 -0.3405  0.3015
18822TIP3    H177957   4.640   6.125   5.621  0.6511  2.2383  0.3697
18822TIP3    H277958   4.582   6.130   5.482  0.0224 -2.2219  0.3231
18823TIP3   OH277959   0.449   1.197  16.900 -0.2788 -0.0413 -0.2638
18823TIP3    H177960   0.529   1.247  16.885 -0.1337 -0.0612  0.4042
18823TIP3    H277961   0.385   1.261  16.931 -0.5254 -0.0286 -0.7774
18824TIP3   OH277962   0.864   5.323   5.691 -0.2786  0.7289 -0.1554
18824TIP3    H177963   0.936   5.379   5.722 -0.4491  0.4193  0.8462
18824TIP3    H277964   0.787   5.358   5.735 -0.5913  0.4801 -0.5104
18825TIP3   OH277965   1.611   3.473   3.757 -0.9561 -0.1298  0.0934
18825TIP3    H177966   1.645   3.389   3.726  1.3441  0.7394  0.0596
18825TIP3    H277967   1.681   3.536   3.738 -1.3585  1.2826  2.7589
18826TIP3   OH277968   2.468   5.136   6.033 -0.4071 -0.2219  0.3132
18826TIP3    H177969   2.477   5.130   5.938  0.8298 -0.8614  0.4465
18826TIP3    H277970   2.547   5.093   6.067 -0.5446  0.5158  1.6252
18827TIP3   OH277971   5.767   5.290   6.551  0.1485  0.4702 -0.3483
18827TIP3    H177972   5.804   5.379   6.549  3.5094 -0.7659  0.8007
18827TIP3    H277973   5.755   5.271   6.644  0.7827 -0.7430 -0.4941
18828TIP3   OH277974   1.649   2.574   0.276  0.0263 -0.0868  0.7135
18828TIP3    H177975   1.614   2.498   0.229  1.8080  0.5190 -1.8245
18828TIP3    H277976   1.603   2.649   0.237  0.2420  0.3180  1.2303
18829TIP3   OH277977   6.662   6.292   4.127 -0.0390  0.4096 -0.6885
18829TIP3    H177978   6.708   6.374   4.143 -0.3178  0.5642 -0.6686
18829TIP3    H277979   6.729   6.224   4.137  0.5517  0.7279 -2.2257
18830TIP3   OH277980   4.615   0.419  15.366  0.2774  0.5772  0.1352
18830TIP3    H177981   4.642   0.369  15.289 -0.2175  0.1524  0.2281
18830TIP3    H277982   4.565   0.493  15.331  1.9582  1.6639 -0.0664
18831TIP3   OH277983   6.229   3.223  14.432 -0.2575  0.4271 -0.2687
18831TIP3    H177984   6.241   3.265  14.518 -0.5921  0.9331 -0.4620
18831TIP3    H277985   6.318   3.210  14.400  0.0714 -2.9219  1.6067
18832TIP3   OH277986   0.589   2.307   3.217  0.2925  0.0458  0.3462
18832TIP3    H177987   0.567   2.256   3.295 -1.1443 -0.2998 -0.2623
18832TIP3    H277988   0.559   2.396   3.237 -0.9953 -0.2573 -0.1809
18833TIP3   OH277989   1.742   4.360   0.813  0.5583 -0.2082 -0.6686
18833TIP3    H177990   1.815   4.299   0.828 -0.9823 -2.2918 -1.1434
18833TIP3    H277991   1.737   4.368   0.718  1.0019  1.0433 -0.6029
18834TIP3   OH277992   3.522   0.443  15.842  0.0161 -0.0019  0.4127
18834TIP3    H177993   3.536   0.356  15.805 -0.3844 -0.0412  0.3480
18834TIP3    H277994   3.480   0.493  15.771  1.1256  0.5388  0.1072
18835TIP3   OH277995   0.165   5.366   1.986  0.1935 -0.6620 -0.9014
18835TIP3    H177996   0.237   5.420   2.019 -0.6853  0.2673 -0.4571
18835TIP3    H277997   0.170   5.285   2.037 -0.5651  0.3742  0.8998
18836TIP3   OH277998   0.139   1.899  12.687 -0.7011  0.3584 -0.4410
18836TIP3    H177999   0.073   1.869  12.626 -0.7759 -1.1155  0.3151
18836TIP3    H278000   0.147   1.828  12.751 -0.0900  1.5125  0.8266
18837TIP3   OH278001   5.935   6.464  11.760 -0.9002 -0.3251  0.0705
18837TIP3    H178002   5.886   6.406  11.701  2.3494 -1.5534 -1.7121
18837TIP3    H278003   5.981   6.405  11.819  0.0150  0.6334  0.3443
18838TIP3   OH278004   2.397   2.524   6.219 -0.2310  0.1906  0.0545
18838TIP3    H178005   2.336   2.460   6.257 -0.0311 -0.5322 -0.8316
18838TIP3    H278006   2.343   2.602   6.205 -1.6775 -1.2129 -3.0826
18839TIP3   OH278007   2.392   3.133   5.337 -0.6637 -0.6729 -0.0794
18839TIP3    H178008   2.355   3.221   5.344 -2.1727 -1.1382 -1.5793
18839TIP3    H278009   2.316   3.074   5.344  0.2582 -1.8525  0.4336
18840TIP3   OH278010   6.699   3.775   4.656  0.3537  0.3845 -0.4135
18840TIP3    H178011   6.737   3.762   4.569  0.4227  0.0521 -0.3368
18840TIP3    H278012   6.671   3.866   4.657  0.6705  0.4866 -0.6589
18841TIP3   OH278013   6.034   5.483  13.527 -0.0355 -0.4265 -0.0826
18841TIP3    H178014   5.981   5.499  13.606  0.0507  1.8175 -0.4037
18841TIP3    H278015   6.080   5.402  13.545 -0.3837 -0.2233  1.9896
18842TIP3   OH278016   0.361   1.601   1.040 -0.3286 -0.3483 -0.3330
18842TIP3    H178017   0.434   1.585   1.099 -0.1242 -1.4762 -0.8695
18842TIP3    H278018   0.374   1.691   1.010  0.1540 -0.1282  0.5082
18843TIP3   OH278019   0.043   5.559   3.941  0.0885 -0.3790 -0.2560
18843TIP3    H178020   0.076   5.478   3.903 -1.6233 -0.7348 -1.0722
18843TIP3    H278021   0.017   5.535   4.029  1.8499 -0.0996  0.3955
18844TIP3   OH278022   5.390   5.411  10.839 -0.2301  0.5910  0.0465
18844TIP3    H178023   5.462   5.474  10.833  0.3072 -0.0138 -0.0642
18844TIP3    H278024   5.432   5.326  10.823 -1.1019  0.2991 -0.8386
18845TIP3   OH278025   6.668   2.046   5.862  0.3765  0.6267 -0.0046
18845TIP3    H178026   6.702   2.054   5.951  2.2196  1.4332 -0.7362
18845TIP3    H278027   6.685   2.131   5.821  0.1149  0.0848 -1.3102
18846TIP3   OH278028   3.069   2.392   6.106 -0.3984  0.3834 -0.0265
18846TIP3    H178029   3.132   2.422   6.172 -0.0917  0.7743 -0.4954
18846TIP3    H278030   2.984   2.414   6.144 -0.2378  0.2715  0.4041
18847TIP3   OH278031   3.510   3.347  13.939  0.1092 -0.0138 -0.3362
18847TIP3    H178032   3.449   3.289  13.986 -0.1758  1.5218  1.3348
18847TIP3    H278033   3.593   3.300  13.940 -0.1077 -0.4233  0.9811
18848TIP3   OH278034   4.587   0.612  12.891 -0.3617 -0.7747  0.5380
18848TIP3    H178035   4.582   0.516  12.890  1.9095 -0.9362  0.0893
18848TIP3    H278036   4.651   0.634  12.824  1.4793  0.8551  2.6717
18849TIP3   OH278037   0.793   0.208  16.392  0.1262  0.2302 -0.0483
18849TIP3    H178038   0.800   0.289  16.340 -0.3413  0.2628 -0.0656
18849TIP3    H278039   0.728   0.156  16.345 -0.0929  0.1403  0.3591
18850TIP3   OH278040   3.617   4.470   5.390 -0.3732 -0.2130  0.0594
18850TIP3    H178041   3.698   4.514   5.418  0.2713 -2.0288  1.2428
18850TIP3    H278042   3.647   4.397   5.337 -1.2086 -1.0638  0.7235
18851TIP3   OH278043   5.907   1.538  14.076  0.1132  0.0072  0.0813
18851TIP3    H178044   5.877   1.504  13.992 -0.8090  1.4603 -0.2176
18851TIP3    H278045   5.997   1.566  14.060  0.4250 -1.0225 -0.0208
18852TIP3   OH278046   5.761   6.110   3.477 -0.2917 -0.1455  0.1750
18852TIP3    H178047   5.734   6.062   3.398 -1.0867 -1.6219  1.2709
18852TIP3    H278048   5.799   6.191   3.445 -1.8689 -0.0669 -1.6847
18853TIP3   OH278049   5.014   5.370  12.526  0.1361  0.0907 -0.4054
18853TIP3    H178050   4.936   5.404  12.483  1.0318  0.4043 -1.8711
18853TIP3    H278051   4.987   5.355  12.617 -1.6052  0.1736 -0.8740
18854TIP3   OH278052   6.326   2.675   2.078  0.7409  0.2945 -0.7761
18854TIP3    H178053   6.271   2.641   2.008  2.1642  0.5786 -2.1036
18854TIP3    H278054   6.322   2.770   2.067  0.4032  0.3737 -0.0022
18855TIP3   OH278055   5.198   0.158  14.995  0.3103 -0.1891  0.0530
18855TIP3    H178056   5.268   0.218  15.021 -0.0653  0.6948 -0.8792
18855TIP3    H278057   5.165   0.194  14.913 -1.9056  0.0128  0.9450
18856TIP3   OH278058   2.453   4.736   6.642 -0.4598 -0.6602  0.1614
18856TIP3    H178059   2.490   4.742   6.554 -1.2264  0.4680 -0.1108
18856TIP3    H278060   2.521   4.769   6.700  0.4530 -2.3913  0.1416
18857TIP3   OH278061   0.825   5.358  13.689 -0.1542  0.1610  0.1715
18857TIP3    H178062   0.790   5.304  13.619  1.0819 -0.5784  0.0979
18857TIP3    H278063   0.767   5.434  13.692 -3.6657 -2.3089  2.0861
18858TIP3   OH278064   4.072   3.546   5.383  0.0108 -0.1430 -0.0220
18858TIP3    H178065   3.990   3.548   5.433 -0.8546 -1.5726 -1.2875
18858TIP3    H278066   4.058   3.477   5.318  2.3156 -0.5368 -0.1544
18859TIP3   OH278067   4.187   2.201   4.708 -0.5002 -0.3640 -0.6329
18859TIP3    H178068   4.231   2.259   4.647 -2.7612  0.9940 -1.1124
18859TIP3    H278069   4.129   2.148   4.653 -1.2938 -0.3372  0.1531
18860TIP3   OH278070   2.924   3.927  12.284  0.3683  0.0797 -0.0311
18860TIP3    H178071   2.927   3.857  12.219 -2.6936  0.3110 -0.5769
18860TIP3    H278072   2.872   3.996  12.243 -1.1962  0.4677  2.3962
18861TIP3   OH278073   2.649   5.230  11.471  0.9228 -0.3433  0.3120
18861TIP3    H178074   2.720   5.169  11.453  0.3125 -0.5956 -1.4907
18861TIP3    H278075   2.581   5.176  11.513  1.2940 -0.3714  0.8863
18862TIP3   OH278076   5.113   2.581  16.868 -0.3797 -0.2266 -0.4906
18862TIP3    H178077   5.115   2.549  16.778 -0.7835  0.9689 -0.9491
18862TIP3    H278078   5.056   2.658  16.865 -0.7456 -0.3979  0.8708
18863TIP3   OH278079   4.171   6.011   0.322 -0.1408 -0.1267  0.2396
18863TIP3    H178080   4.193   6.016   0.229  3.1346  0.2496  0.8904
18863TIP3    H278081   4.106   6.080   0.335  0.4656  0.8660 -1.5137
18864TIP3   OH278082   5.212   0.008   3.610 -0.5728  0.0132 -0.3785
18864TIP3    H178083   5.170  -0.002   3.525  0.2650  1.6613 -1.0261
18864TIP3    H278084   5.149   0.057   3.663 -0.1656  1.0407 -0.8227
18865TIP3   OH278085   2.086   5.619   3.564  0.6799 -0.0547 -0.1379
18865TIP3    H178086   2.080   5.713   3.544  0.6391  0.5558  2.3910
18865TIP3    H278087   1.996   5.588   3.557  0.5845  0.2534 -0.3166
18866TIP3   OH278088   1.714   4.236  17.017  0.2876  0.4575 -0.1853
18866TIP3    H178089   1.734   4.147  16.987 -2.9928 -0.6183  0.4799
18866TIP3    H278090   1.799   4.281  17.013  2.2352 -2.7978 -0.0401
18867TIP3   OH278091   5.191   2.814  11.420  0.1599 -0.0994 -0.2851
18867TIP3    H178092   5.116   2.760  11.446  0.4319  0.2943  1.4161
18867TIP3    H278093   5.152   2.888  11.374 -0.5096  0.0982  0.5794
18868TIP3   OH278094   2.656   6.565   0.065 -0.1657 -0.3635 -0.6451
18868TIP3    H178095   2.658   6.601  -0.024  1.8097  2.3935  0.3830
18868TIP3    H278096   2.585   6.613   0.109  0.4161  0.0065 -0.1022
18869TIP3   OH278097   0.297   6.526  14.066 -0.3264 -0.1404  1.1865
18869TIP3    H178098   0.386   6.491  14.076 -0.0703  0.1320 -0.0520
18869TIP3    H278099   0.285   6.584  14.142  0.3371 -0.6076  1.6562
18870TIP3   OH278100   5.610   0.091  15.128  0.1837 -0.2093 -0.7049
18870TIP3    H178101   5.659   0.105  15.047 -2.0649 -2.7078 -2.6950
18870TIP3    H278102   5.534   0.149  15.121  0.8415  0.8654  0.5488
18871TIP3   OH278103   4.336   1.612   2.258 -0.2550  0.1942 -0.0583
18871TIP3    H178104   4.251   1.615   2.215 -0.0784  1.4056 -0.3375
18871TIP3    H278105   4.349   1.699   2.295  0.8612  0.0237  0.0051
18872TIP3   OH278106   2.043   1.646  15.008 -0.8005  0.0731  0.0153
18872TIP3    H178107   2.104   1.718  15.025  0.6621 -0.9462 -0.6397
18872TIP3    H278108   2.056   1.586  15.082  0.7976 -1.2661 -1.2630
18873TIP3   OH278109   3.453   6.812   5.307 -0.4875 -0.8886 -0.2594
18873TIP3    H178110   3.407   6.853   5.380  1.8484  0.2069  0.7067
18873TIP3    H278111   3.464   6.883   5.243  0.2061 -1.0004 -0.2731
18874TIP3   OH278112   3.094   2.144   3.987  1.4074 -0.3221 -0.5709
18874TIP3    H178113   3.171   2.197   4.006  1.1337  0.1124 -0.6598
18874TIP3    H278114   3.108   2.063   4.036  1.8070 -0.1497 -0.3965
18875TIP3   OH278115   6.363   0.051   1.522 -0.3795  0.0734 -0.0469
18875TIP3    H178116   6.346   0.136   1.482  0.5346 -0.1116 -0.8797
18875TIP3    H278117   6.391   0.072   1.611 -1.3566  0.5652  0.1496
18876TIP3   OH278118   0.572   2.682   3.467  0.0227 -0.3586  0.3340
18876TIP3    H178119   0.488   2.707   3.506  0.2238 -0.2933  0.7299
18876TIP3    H278120   0.562   2.589   3.447 -0.2278 -0.2946  0.1647
18877TIP3   OH278121   5.480   0.615  15.390  0.7560  0.1403  0.0906
18877TIP3    H178122   5.525   0.545  15.438  1.6203  0.4604 -0.2241
18877TIP3    H278123   5.551   0.667  15.353  0.2339 -1.3848 -3.4936
18878TIP3   OH278124   2.883   3.324  16.385  0.1834 -0.0908  0.1493
18878TIP3    H178125   2.820   3.266  16.342 -0.6149  0.0238  1.1298
18878TIP3    H278126   2.829   3.391  16.428  0.8398 -0.7462  2.1398
18879TIP3   OH278127   3.253   1.658   5.440 -0.6656 -0.1566 -0.3931
18879TIP3    H178128   3.285   1.568   5.444  0.1295  0.1404  0.1885
18879TIP3    H278129   3.248   1.677   5.346  0.0812 -0.4925 -0.5096
18880TIP3   OH278130   4.500   2.703  16.114 -0.3163 -0.1664 -0.3082
18880TIP3    H178131   4.518   2.797  16.117 -0.7255  0.0153 -2.1613
18880TIP3    H278132   4.580   2.665  16.076 -0.5953 -0.4082 -0.6582
18881TIP3   OH278133   3.802   2.525  12.971  0.2010  0.1591  0.3078
18881TIP3    H178134   3.716   2.508  13.009  0.9064 -1.8521  1.1628
18881TIP3    H278135   3.792   2.608  12.924 -2.3006 -0.2421  0.0143
18882TIP3   OH278136   4.679   3.246  14.187 -0.6140 -0.0626  0.2676
18882TIP3    H178137   4.684   3.169  14.244 -2.9483 -1.9231 -1.7886
18882TIP3    H278138   4.745   3.229  14.120  1.3553  1.5817  1.6746
18883TIP3   OH278139   5.938   0.934   5.062 -0.1064 -0.1731  0.1071
18883TIP3    H178140   5.950   0.991   4.986 -1.2883 -0.1396 -0.0869
18883TIP3    H278141   5.844   0.939   5.080  0.1850 -0.0588  1.6789
18884TIP3   OH278142   0.695   0.515   4.591 -0.2861  0.2806 -0.2869
18884TIP3    H178143   0.764   0.483   4.533 -1.4075 -2.0760 -0.4632
18884TIP3    H278144   0.617   0.519   4.534 -0.7196  1.0651  0.3409
18885TIP3   OH278145   3.257   3.204  14.054 -0.1122 -0.2155  0.2154
18885TIP3    H178146   3.287   3.158  14.133  0.4409 -1.1402 -0.5063
18885TIP3    H278147   3.179   3.155  14.026  0.9021 -1.2476 -0.9735
18886TIP3   OH278148   3.551   5.455  16.269  0.0055  0.1222  0.5113
18886TIP3    H178149   3.597   5.406  16.337  1.8351 -0.1558 -0.8509
18886TIP3    H278150   3.619   5.478  16.206 -1.8260 -0.9598 -2.0308
18887TIP3   OH278151   1.924   6.090   4.025 -0.7272  0.7006  0.1313
18887TIP3    H178152   1.889   6.141   4.098 -0.9622  1.7785 -0.7076
18887TIP3    H278153   1.894   6.136   3.947 -0.4547 -0.4121 -0.6559
18888TIP3   OH278154   6.334   5.736   4.765  0.3822 -0.0244  0.7429
18888TIP3    H178155   6.366   5.661   4.714  2.9025  1.1180  0.5072
18888TIP3    H278156   6.298   5.696   4.845  1.7889 -1.5147  0.6956
18889TIP3   OH278157   1.240   6.747  17.176  0.4517 -0.3618  0.4794
18889TIP3    H178158   1.159   6.790  17.204  0.0874  0.0426 -1.1144
18889TIP3    H278159   1.213   6.683  17.111  1.3807 -0.3823  0.0856
18890TIP3   OH278160   4.277   4.881  10.241  0.0802 -0.3734  0.2323
18890TIP3    H178161   4.195   4.834  10.227 -1.5071  2.5500 -1.3128
18890TIP3    H278162   4.264   4.928  10.323 -1.5173  3.0328 -1.7776
18891TIP3   OH278163   5.276   1.242   4.779  0.0317  0.0455  0.3056
18891TIP3    H178164   5.306   1.160   4.741 -0.7882  0.0901 -0.4845
18891TIP3    H278165   5.180   1.238   4.772 -0.0693  0.6772  1.0926
18892TIP3   OH278166   6.643   3.913  16.748 -0.1886 -0.4721 -0.2638
18892TIP3    H178167   6.694   3.993  16.746  0.0545 -0.6343 -0.5995
18892TIP3    H278168   6.662   3.874  16.834  0.4532 -0.6636 -0.4928
18893TIP3   OH278169   1.079   5.063  16.726  0.5044  0.2061  0.3531
18893TIP3    H178170   0.999   5.101  16.762  0.9209 -0.1012  1.6329
18893TIP3    H278171   1.149   5.091  16.785  0.9947 -1.4941  0.6290
18894TIP3   OH278172   0.104   4.711  13.794 -0.4803 -0.1193 -0.0210
18894TIP3    H178173   0.145   4.753  13.869 -1.2739 -1.8993  1.4683
18894TIP3    H278174   0.038   4.774  13.764  0.6942  1.1321 -0.0625
18895TIP3   OH278175   5.285   2.003   2.671  0.5293 -0.1639 -0.7620
18895TIP3    H178176   5.235   1.923   2.657  1.9003 -0.9834 -1.2085
18895TIP3    H278177   5.361   1.994   2.613  0.2712  1.8848 -1.5037
18896TIP3   OH278178   6.471   2.107  14.861  0.5324  0.4135  0.1945
18896TIP3    H178179   6.467   2.037  14.927  1.7319  0.5965  0.4957
18896TIP3    H278180   6.508   2.182  14.908 -0.0527  1.0305 -0.3118
18897TIP3   OH278181   6.116   5.486   3.811 -1.1492  0.1430 -0.3983
18897TIP3    H178182   6.086   5.427   3.880 -0.7944  0.5240  0.0955
18897TIP3    H278183   6.188   5.535   3.852 -1.4856  0.9650 -0.7661
18898TIP3   OH278184   5.766   3.124  11.455  0.3956 -0.4139 -0.4788
18898TIP3    H178185   5.768   3.041  11.408  0.2530  0.4761 -2.1247
18898TIP3    H278186   5.835   3.176  11.415 -0.7997  0.9441 -0.8469
18899TIP3   OH278187   6.799   2.236  15.754 -0.4410  0.0145 -0.3245
18899TIP3    H178188   6.714   2.204  15.784 -0.4901  0.0903 -0.3814
18899TIP3    H278189   6.833   2.288  15.827  0.9595 -2.5241  0.9545
18900TIP3   OH278190   2.201   0.191   0.365  0.2293  0.5731 -0.0213
18900TIP3    H178191   2.287   0.232   0.364 -0.2037  1.5011 -0.8012
18900TIP3    H278192   2.209   0.121   0.430  1.1365  1.5608  0.9890
18901TIP3   OH278193   2.604   2.134  13.456 -0.3748  0.0264 -0.1210
18901TIP3    H178194   2.554   2.053  13.462  1.1050 -0.9164  0.0010
18901TIP3    H278195   2.557   2.195  13.513 -1.3247 -0.8438  0.0540
18902TIP3   OH278196   6.380   0.160  11.219  0.2576 -0.3590 -0.2026
18902TIP3    H178197   6.395   0.254  11.211 -0.4185 -0.0293  1.8766
18902TIP3    H278198   6.303   0.144  11.164 -0.3464  0.5295  0.3589
18903TIP3   OH278199   5.321   5.758  14.062  0.5496  0.6228 -0.7248
18903TIP3    H178200   5.318   5.721  13.973 -2.2382 -2.7349  0.5376
18903TIP3    H278201   5.239   5.808  14.069 -0.2770 -0.8148  0.4743
18904TIP3   OH278202   4.580   1.912  13.524  0.0116 -0.1346  0.4578
18904TIP3    H178203   4.673   1.929  13.540  0.3273 -0.6313 -0.7839
18904TIP3    H278204   4.570   1.817  13.537  0.0755 -0.3910 -1.2202
18905TIP3   OH278205   0.354   0.409   1.376  0.7818  0.3533  0.5006
18905TIP3    H178206   0.380   0.487   1.427  0.9673  1.1857 -0.8312
18905TIP3    H278207   0.413   0.408   1.301 -0.9294  0.4602 -0.9173
18906TIP3   OH278208   2.846   1.946   2.362 -0.4258 -0.2642  0.2143
18906TIP3    H178209   2.871   1.888   2.291 -2.3749 -0.9603  0.0139
18906TIP3    H278210   2.870   2.033   2.332  0.5703 -0.7485 -0.4325
18907TIP3   OH278211   0.254   0.677   5.032 -0.3557 -0.4391  0.6054
18907TIP3    H178212   0.244   0.770   5.056 -0.3203 -0.2196 -0.2145
18907TIP3    H278213   0.164   0.644   5.029 -0.4503 -0.1307 -0.2472
18908TIP3   OH278214   6.758   1.344  13.903  0.8845  0.2439 -0.3257
18908TIP3    H178215   6.724   1.262  13.940  0.0036  0.9641  0.5255
18908TIP3    H278216   6.735   1.340  13.810  2.3853 -1.2247 -0.6808
18909TIP3   OH278217   1.345   1.250  11.163 -0.0837  0.2229 -0.4000
18909TIP3    H178218   1.400   1.281  11.090  0.4962  0.8828  0.2943
18909TIP3    H278219   1.256   1.256  11.130  0.1977  0.0040 -1.2418
18910TIP3   OH278220   4.349   4.296   3.866 -0.5710  0.2581 -0.1854
18910TIP3    H178221   4.289   4.227   3.894 -0.2031 -0.4345 -1.0486
18910TIP3    H278222   4.294   4.359   3.820 -0.9770  0.7742  0.9785
18911TIP3   OH278223   1.950   2.375  15.900  0.1970 -0.5607  0.2685
18911TIP3    H178224   1.895   2.297  15.906 -0.4744 -0.0970  0.2542
18911TIP3    H278225   1.891   2.444  15.872  1.0977 -0.3811 -1.3587
18912TIP3   OH278226   6.453   0.779   4.284  0.3708 -0.5354 -0.1007
18912TIP3    H178227   6.520   0.789   4.352 -0.9090 -1.9873  1.4568
18912TIP3    H278228   6.501   0.750   4.207  1.8779  1.2384  0.1001
18913TIP3   OH278229   4.354   6.742  10.557  0.0773 -0.0555  0.6807
18913TIP3    H178230   4.435   6.709  10.519 -0.3164  1.1693 -1.3655
18913TIP3    H278231   4.286   6.688  10.517 -0.4166  1.8332 -1.2389
18914TIP3   OH278232   1.600   1.381   5.019 -0.1270  0.4991  0.3519
18914TIP3    H178233   1.616   1.333   4.938  1.4642 -3.2439  2.5962
18914TIP3    H278234   1.506   1.395   5.021 -1.0142 -3.8786 -0.0458
18915TIP3   OH278235   1.035   2.996  16.655  0.0285 -0.0475 -0.1218
18915TIP3    H178236   1.088   2.923  16.621 -0.0946  0.5155 -1.6023
18915TIP3    H278237   0.951   2.987  16.608 -0.1849  0.7174  0.1128
18916TIP3   OH278238   5.490   1.945  16.930  0.5216 -0.0302  0.1903
18916TIP3    H178239   5.439   2.020  16.899 -0.4795 -1.1508 -0.9976
18916TIP3    H278240   5.574   1.952  16.886  0.3689  0.3048 -0.0490
18917TIP3   OH278241   0.624   6.055   5.249  0.1817 -0.3613 -0.0984
18917TIP3    H178242   0.665   6.006   5.320  1.7872  0.2173 -0.5624
18917TIP3    H278243   0.530   6.041   5.260  0.4983 -1.8569  0.9622
18918TIP3   OH278244   6.369   0.486   4.299 -0.3353  0.1992  0.2320
18918TIP3    H178245   6.331   0.545   4.235 -2.0980 -1.2785 -0.1663
18918TIP3    H278246   6.318   0.500   4.379  0.3148  0.3583  0.6312
18919TIP3   OH278247   5.873   2.370  15.680  0.0866 -0.4640 -0.5614
18919TIP3    H178248   5.933   2.351  15.751  1.3294 -1.3082 -1.7760
18919TIP3    H278249   5.789   2.333  15.708  0.5459 -0.7790  0.4351
18920TIP3   OH278250   1.160   5.141  12.252  0.6284 -0.5872 -0.0448
18920TIP3    H178251   1.195   5.155  12.340  0.0855 -1.2474  0.2861
18920TIP3    H278252   1.114   5.058  12.258 -1.6039  0.5608 -0.2701
18921TIP3   OH278253   4.258   0.383  11.779 -0.0626 -0.4673  0.3408
18921TIP3    H178254   4.288   0.409  11.693 -0.7370 -2.1701 -0.4639
18921TIP3    H278255   4.313   0.309  11.802 -1.9533 -2.1203 -0.1204
18922TIP3   OH278256   2.333   4.772  10.951  0.1110  0.6872 -0.5515
18922TIP3    H178257   2.402   4.723  10.994  0.4932 -1.5129 -3.3458
18922TIP3    H278258   2.374   4.807  10.872 -1.6859  0.0581 -1.8310
18923TIP3   OH278259   1.615   3.300   1.331  0.3115 -0.3637  0.3812
18923TIP3    H178260   1.636   3.272   1.420  3.1098 -1.8766 -0.6360
18923TIP3    H278261   1.671   3.376   1.315  1.3777 -1.3301 -0.7042
18924TIP3   OH278262   3.381   3.070   3.737 -0.3755 -0.4598  0.4204
18924TIP3    H178263   3.441   3.069   3.811 -0.0040  1.2436  0.1730
18924TIP3    H278264   3.294   3.074   3.777 -0.1456  2.8762  0.8897
18925TIP3   OH278265   6.428   0.328   0.287 -0.2557 -0.2439 -0.5153
18925TIP3    H178266   6.512   0.308   0.329  0.1239 -1.2690 -1.7326
18925TIP3    H278267   6.365   0.268   0.328 -0.3325  0.2633  0.1247
18926TIP3   OH278268   5.103   5.672  11.191 -0.1733 -0.1739 -0.0267
18926TIP3    H178269   5.060   5.687  11.107  1.6456  1.2658 -0.7801
18926TIP3    H278270   5.182   5.623  11.170 -0.2415 -0.7695  1.0072
18927TIP3   OH278271   0.704   2.670  16.557  0.3863 -0.1682 -0.6202
18927TIP3    H178272   0.735   2.719  16.481 -0.1955 -0.6175 -1.1541
18927TIP3    H278273   0.770   2.602  16.569  0.2853 -0.3277 -0.9584
18928TIP3   OH278274   2.866   6.002  12.934 -0.3584  0.1845  0.3775
18928TIP3    H178275   2.806   6.046  12.874  0.8518  2.1775  0.5301
18928TIP3    H278276   2.812   5.977  13.009 -1.1801  1.1609  0.1342
18929TIP3   OH278277   3.659   3.847  12.695 -0.3758 -0.2075  0.9410
18929TIP3    H178278   3.583   3.897  12.723 -1.1065  0.4514 -1.8820
18929TIP3    H278279   3.734   3.896  12.729 -1.1615  0.2352  2.0835
18930TIP3   OH278280   3.699   1.138  17.159 -0.3634 -0.1198 -0.0419
18930TIP3    H178281   3.643   1.192  17.103 -0.5309  0.9337  1.1082
18930TIP3    H278282   3.722   1.195  17.232  0.0372 -1.3875  0.8535
18931TIP3   OH278283   2.594   2.232   2.588 -0.4235 -0.3895 -0.2144
18931TIP3    H178284   2.609   2.199   2.500 -0.1491  0.4745 -0.4988
18931TIP3    H278285   2.672   2.206   2.637 -0.8555 -1.4213 -0.0511
18932TIP3   OH278286   4.265   1.052   3.315  0.0555  0.3760 -0.0671
18932TIP3    H178287   4.207   1.043   3.240 -1.9327 -1.1323  1.5421
18932TIP3    H278288   4.350   1.022   3.283 -1.0336 -1.5177 -1.3794
18933TIP3   OH278289   2.727   1.078   5.392  0.0943 -0.1058  0.0722
18933TIP3    H178290   2.815   1.045   5.411  0.5699  0.9252 -0.2781
18933TIP3    H278291   2.709   1.140   5.463  0.5947  1.3970 -1.0784
18934TIP3   OH278292   5.885   3.916  14.477 -0.1421 -1.1271 -0.5755
18934TIP3    H178293   5.905   4.009  14.478 -0.9374 -0.9181 -2.0216
18934TIP3    H278294   5.931   3.881  14.554  0.4655  0.3745 -0.2189
18935TIP3   OH278295   5.520   1.756   3.944 -0.0387  0.0604 -0.3758
18935TIP3    H178296   5.596   1.809   3.967 -0.3793  0.5550 -0.3816
18935TIP3    H278297   5.444   1.807   3.973 -0.3545 -0.7144  0.2144
18936TIP3   OH278298   5.407   4.467   0.502 -0.8867 -0.2963 -0.2200
18936TIP3    H178299   5.317   4.492   0.480 -0.4705  0.8991 -0.6222
18936TIP3    H278300   5.445   4.441   0.418 -0.1431  1.5698 -0.5121
18937TIP3   OH278301   0.748   0.982  15.332 -0.2643 -0.5518 -0.2736
18937TIP3    H178302   0.839   1.010  15.348 -0.3939 -0.9736  1.4583
18937TIP3    H278303   0.754   0.887  15.323 -0.4812 -0.5283 -0.6716
18938TIP3   OH278304   2.203   0.151  13.000 -0.2021  0.3074 -0.2593
18938TIP3    H178305   2.284   0.102  12.987 -0.3565  0.1097 -0.5193
18938TIP3    H278306   2.136   0.083  13.010 -0.2173  0.4701  0.7597
18939TIP3   OH278307   2.180   4.944   1.435  0.0658 -0.4192 -0.1882
18939TIP3    H178308   2.095   4.966   1.475  0.2397 -0.1576  0.0394
18939TIP3    H278309   2.175   4.981   1.347 -0.4534 -1.2937 -0.5419
18940TIP3   OH278310   0.804   2.053   3.816 -0.4181  0.6350  0.0360
18940TIP3    H178311   0.816   2.101   3.733  2.1715  0.5674  0.2943
18940TIP3    H278312   0.890   2.015   3.834 -1.5843 -1.4814  1.4870
18941TIP3   OH278313   2.729   3.879   5.537  0.1191  0.1167  0.1173
18941TIP3    H178314   2.770   3.839   5.613 -1.0818  0.4339  0.9680
18941TIP3    H278315   2.660   3.934   5.574  0.2982  1.2317 -1.1389
18942TIP3   OH278316   0.822   5.976  11.171 -0.2160 -0.0273 -0.4238
18942TIP3    H178317   0.775   5.956  11.090 -0.3493 -0.3070 -0.2791
18942TIP3    H278318   0.797   6.066  11.191  1.8799  1.0247 -2.1090
18943TIP3   OH278319   5.606   2.570   0.397  0.4995 -0.4609 -0.1947
18943TIP3    H178320   5.587   2.660   0.371 -0.7610 -0.3753  0.9204
18943TIP3    H278321   5.691   2.551   0.357 -0.9796 -0.1784 -3.8742
18944TIP3   OH278322   3.501   1.859   3.809  0.2270 -0.1024 -0.0519
18944TIP3    H178323   3.426   1.800   3.803 -0.9054  1.2481  0.2338
18944TIP3    H278324   3.476   1.935   3.756  0.8224  0.9610  1.1432
18945TIP3   OH278325   5.575   5.615  15.366 -0.4185 -0.4918 -0.1756
18945TIP3    H178326   5.587   5.546  15.430 -0.7780  1.4076  2.0835
18945TIP3    H278327   5.504   5.669  15.401 -0.6246  0.6596 -2.1732
18946TIP3   OH278328   6.076   3.979  15.315  0.6506  0.2558 -0.3190
18946TIP3    H178329   6.093   3.889  15.285  1.5119  0.8503 -1.6904
18946TIP3    H278330   6.051   3.969  15.407 -0.9682 -1.5446 -0.8819
18947TIP3   OH278331   3.363   4.944  14.543 -0.3571 -0.0304 -0.0901
18947TIP3    H178332   3.339   4.918  14.632  0.5646  0.7015  0.3889
18947TIP3    H278333   3.436   4.887  14.520 -1.2244 -0.9085 -0.7900
18948TIP3   OH278334   1.746   1.573  15.028  0.1216  0.2664 -0.2995
18948TIP3    H178335   1.709   1.602  14.945  1.2688  0.7572 -0.6657
18948TIP3    H278336   1.742   1.477  15.023 -1.6055  0.3069 -0.0590
18949TIP3   OH278337   6.428   1.250   5.539  0.1956 -0.3868  0.4129
18949TIP3    H178338   6.337   1.220   5.528  0.0209  0.1863  0.2803
18949TIP3    H278339   6.430   1.335   5.496  0.4474  0.2200  1.6042
18950TIP3   OH278340   2.524   4.406  12.108 -0.4081 -0.5477  0.2836
18950TIP3    H178341   2.581   4.392  12.033  0.7733  0.8227  0.8901
18950TIP3    H278342   2.583   4.418  12.182 -1.1035  4.4354  0.4006
18951TIP3   OH278343   4.034   4.322  15.431  0.2116  0.0932  0.1544
18951TIP3    H178344   4.088   4.399  15.449 -0.0887  0.8861 -1.9978
18951TIP3    H278345   4.097   4.252  15.412  0.4945  0.3952 -0.0398
18952TIP3   OH278346   4.189   5.222  11.232  0.1912 -0.4357  0.4233
18952TIP3    H178347   4.252   5.273  11.180  1.1635 -1.4266  0.5786
18952TIP3    H278348   4.243   5.154  11.274 -0.7211 -0.2776  1.9270
18953TIP3   OH278349   1.040   1.682  12.860 -0.0782  0.5793 -0.0237
18953TIP3    H178350   1.128   1.652  12.879 -0.1949 -0.9183 -1.5734
18953TIP3    H278351   1.052   1.752  12.795 -0.0271  0.5266 -0.0704
18954TIP3   OH278352   0.528   0.042  13.700 -0.1115 -0.4452 -0.1139
18954TIP3    H178353   0.605   0.059  13.754  0.0686  1.1630 -0.8263
18954TIP3    H278354   0.550  -0.037  13.651  0.6951 -0.5328  0.3686
18955TIP3   OH278355   2.901   2.202   2.218  0.0108 -0.5927 -0.0170
18955TIP3    H178356   2.979   2.176   2.168 -0.7568 -0.0788 -1.5537
18955TIP3    H278357   2.866   2.277   2.170 -1.0298 -0.3569  1.0635
18956TIP3   OH278358   6.733   0.044  15.824 -0.0333  1.1622  0.1047
18956TIP3    H178359   6.741   0.106  15.897  1.5898  0.8149  0.2716
18956TIP3    H278360   6.809   0.064  15.769 -0.1679  0.1285 -0.4679
18957TIP3   OH278361   4.756   2.316   5.553  0.2868  0.5023 -0.3954
18957TIP3    H178362   4.823   2.383   5.568  2.4295 -1.4307 -0.7304
18957TIP3    H278363   4.731   2.327   5.462 -0.3619  1.6357 -0.1017
18958TIP3   OH278364   5.550   5.978  11.211 -0.3265  0.1430  0.0175
18958TIP3    H178365   5.565   6.061  11.257  1.1451 -0.2747  0.3100
18958TIP3    H278366   5.589   5.991  11.124 -2.0397  0.5011 -0.7557
18959TIP3   OH278367   2.369   0.796  13.388 -0.0314  0.3342  0.3104
18959TIP3    H178368   2.331   0.727  13.442  0.1400 -0.0312 -0.0317
18959TIP3    H278369   2.389   0.753  13.305  0.2397  0.7556  0.1556
18960TIP3   OH278370   5.042   1.280  15.971 -0.0437  0.1171  0.3565
18960TIP3    H178371   5.115   1.318  15.922  0.2809 -1.1826 -0.2047
18960TIP3    H278372   5.079   1.204  16.015 -1.1896 -1.0672 -0.5945
18961TIP3   OH278373   5.743   0.135  11.645  0.0282  0.1244  1.0655
18961TIP3    H178374   5.713   0.128  11.554  0.8791  0.8623  0.7171
18961TIP3    H278375   5.838   0.125  11.640  0.1415  0.7540  1.8099
18962TIP3   OH278376   5.084   2.879  14.014  0.4228  0.1654 -0.2641
18962TIP3    H178377   5.053   2.848  13.929  0.8365  2.9058 -1.5238
18962TIP3    H278378   5.168   2.920  13.995  0.5217  0.8471  1.4697
18963TIP3   OH278379   2.810   0.513   0.792  0.4757 -0.0607 -0.2323
18963TIP3    H178380   2.901   0.522   0.822  0.9253 -0.1570 -1.4977
18963TIP3    H278381   2.783   0.601   0.769 -0.1890  0.1588  1.2645
18964TIP3   OH278382   5.452   4.769   2.737  0.4656 -0.1887 -0.0249
18964TIP3    H178383   5.357   4.759   2.740  0.4631 -0.9693 -1.7146
18964TIP3    H278384   5.467   4.836   2.672  1.0779  0.0587  0.3641
18965TIP3   OH278385   5.322   4.390  15.316  0.2625  0.0520  0.4154
18965TIP3    H178386   5.298   4.352  15.231  0.6464 -2.3486  1.2907
18965TIP3    H278387   5.394   4.450  15.296  1.4735 -1.7040 -0.8018
18966TIP3   OH278388   5.004   6.361  13.648 -0.0648  0.1086 -0.0846
18966TIP3    H178389   5.029   6.286  13.594 -0.7949  0.1869 -0.5495
18966TIP3    H278390   5.040   6.342  13.735  1.5461  0.2188 -0.7118
18967TIP3   OH278391   5.944   3.753  12.374  0.2365 -0.1579  0.0047
18967TIP3    H178392   5.923   3.826  12.432 -0.6326 -0.0795 -0.3889
18967TIP3    H278393   5.860   3.710  12.357  0.3651  0.1549 -1.6335
18968TIP3   OH278394   2.923   4.711  15.206 -0.3689  0.3086 -0.6245
18968TIP3    H178395   2.880   4.684  15.125 -0.9646 -2.5020  0.5087
18968TIP3    H278396   3.016   4.713  15.184 -0.2883 -2.6307 -0.9519
18969TIP3   OH278397   6.131   3.083  15.129  0.3169 -0.6417  0.1593
18969TIP3    H178398   6.218   3.077  15.168 -0.1148 -1.7695  1.0066
18969TIP3    H278399   6.072   3.048  15.196 -0.7669 -0.0996 -0.4832
18970TIP3   OH278400   6.677   2.433  11.273  0.3014 -0.2026  0.4884
18970TIP3    H178401   6.762   2.425  11.316  1.1382 -0.0292 -1.0978
18970TIP3    H278402   6.636   2.508  11.316  0.7833 -0.5089  1.5177
18971TIP3   OH278403   4.316   1.347   2.313  0.6472 -0.4497  0.4231
18971TIP3    H178404   4.306   1.323   2.221 -0.9114  0.8536  0.1929
18971TIP3    H278405   4.324   1.442   2.312 -2.2986 -0.0746  1.7351
18972TIP3   OH278406   1.292   0.331   3.280 -0.6102 -0.2095  0.3993
18972TIP3    H178407   1.234   0.308   3.208 -0.0265 -1.1975  0.2176
18972TIP3    H278408   1.322   0.247   3.315  0.2042  0.2646  0.8981
18973TIP3   OH278409   3.793   2.356   0.401  0.2408  0.0081 -0.5649
18973TIP3    H178410   3.870   2.406   0.426  0.8332 -1.4184  0.6120
18973TIP3    H278411   3.720   2.418   0.410  0.9629  0.7086  0.6808
18974TIP3   OH278412   2.955   5.065  14.533 -0.2640 -0.9387  0.0059
18974TIP3    H178413   2.930   5.114  14.611 -0.7440 -1.6759  0.3295
18974TIP3    H278414   2.978   4.978  14.566  3.0389 -0.2788 -0.2205
18975TIP3   OH278415   3.898   2.100   2.307 -0.0956 -0.2932  0.1123
18975TIP3    H178416   3.979   2.145   2.284  0.8102 -1.5659  0.7310
18975TIP3    H278417   3.922   2.008   2.315 -1.7342 -0.8018 -0.3052
18976TIP3   OH278418   0.397   6.128  16.340 -0.0309  0.1702  0.5615
18976TIP3    H178419   0.373   6.216  16.369 -1.5562  0.1285 -0.5133
18976TIP3    H278420   0.379   6.127  16.247 -2.6728 -2.0803  0.9765
18977TIP3   OH278421   1.903   1.347  11.690  0.5276 -0.0867 -0.8361
18977TIP3    H178422   1.864   1.352  11.777 -3.4446 -1.2954 -2.3572
18977TIP3    H278423   1.926   1.255  11.678  2.3128  0.2961 -0.6667
18978TIP3   OH278424   5.042   5.984  14.505  0.6258 -0.1096 -0.3562
18978TIP3    H178425   5.091   5.956  14.428 -0.8011 -0.1472 -1.2859
18978TIP3    H278426   5.076   5.930  14.576  0.1775 -1.9887 -1.4871
18979TIP3   OH278427   3.556   4.130  13.057 -1.0019 -0.2762  0.2496
18979TIP3    H178428   3.583   4.170  13.140 -0.6136 -2.0393  1.0194
18979TIP3    H278429   3.500   4.196  13.016  0.6363  1.5861  0.8016
18980TIP3   OH278430   0.477   5.684   5.097  0.5864 -0.1165  0.5489
18980TIP3    H178431   0.389   5.648   5.113  0.2862 -0.0119 -0.7031
18980TIP3    H278432   0.533   5.641   5.161  0.1164 -2.3339 -0.4353
18981TIP3   OH278433   5.112   5.124   2.096  0.3981 -0.4138 -0.1217
18981TIP3    H178434   5.184   5.066   2.121  0.8523  0.4704  0.7125
18981TIP3    H278435   5.112   5.123   2.001  3.3079  1.6168 -0.3015
18982TIP3   OH278436   3.736   5.316   2.058 -0.4588  0.0435 -0.4387
18982TIP3    H178437   3.712   5.224   2.052 -2.4623  0.4957 -0.1096
18982TIP3    H278438   3.831   5.316   2.062 -0.4633 -2.1637  2.0254
18983TIP3   OH278439   0.768   5.547   4.219 -0.5575 -0.0444  0.7431
18983TIP3    H178440   0.792   5.467   4.265  1.1808  0.6942  1.2188
18983TIP3    H278441   0.832   5.612   4.249 -0.4196  0.9054 -1.4280
18984TIP3   OH278442   3.055   4.091  14.599 -0.3016  0.4014 -0.3778
18984TIP3    H178443   3.024   4.001  14.608  0.6755 -0.1779 -2.1056
18984TIP3    H278444   3.147   4.087  14.627 -0.6224  1.1829  0.8388
18985TIP3   OH278445   4.303   4.512  14.844  0.2018  0.1931 -0.1930
18985TIP3    H178446   4.237   4.544  14.782  2.2202  0.6079 -2.2726
18985TIP3    H278447   4.339   4.591  14.884 -1.1858 -0.0803  1.7093
18986TIP3   OH278448   5.635   4.568   3.305  0.0557 -0.1001 -0.0066
18986TIP3    H178449   5.593   4.527   3.230  1.4514 -1.2205 -0.2245
18986TIP3    H278450   5.608   4.516   3.380 -0.0768  0.0450  0.0462
18987TIP3   OH278451   6.345   1.613   4.973 -0.0815 -0.4877 -0.3403
18987TIP3    H178452   6.431   1.652   4.960  0.1676  0.0209  2.2768
18987TIP3    H278453   6.283   1.680   4.945  0.3805  0.1366  0.1203
18988TIP3   OH278454   5.295   0.597  16.654 -0.2295  0.2907 -0.5031
18988TIP3    H178455   5.255   0.677  16.619  0.1667  0.2326 -1.1183
18988TIP3    H278456   5.239   0.572  16.727 -1.0776  0.4444 -1.0747
18989TIP3   OH278457   2.091   4.242   3.672 -0.4603  0.0413 -0.0064
18989TIP3    H178458   2.146   4.266   3.597 -0.4284  0.4596  0.1495
18989TIP3    H278459   2.005   4.280   3.651 -0.2750  0.7491  0.4801
18990TIP3   OH278460   0.247   4.450   1.999 -0.2143 -0.3166 -0.1991
18990TIP3    H178461   0.272   4.516   2.065 -0.5875  0.5594 -0.9112
18990TIP3    H278462   0.310   4.461   1.929  0.0367 -1.0897 -0.1036
18991TIP3   OH278463   4.640   0.075  14.950 -0.5005  0.0964  0.5814
18991TIP3    H178464   4.629  -0.020  14.946  1.7548 -0.2077  0.5689
18991TIP3    H278465   4.628   0.105  14.860 -0.0073 -0.3369  0.3687
18992TIP3   OH278466   2.843   5.436  16.625 -0.0822 -0.6210  0.2460
18992TIP3    H178467   2.888   5.389  16.695  0.6854 -1.3335 -0.7009
18992TIP3    H278468   2.793   5.504  16.670  1.5286 -0.1303  1.3854
18993TIP3   OH278469   0.607   0.020  10.593 -0.2820 -0.0447  0.1363
18993TIP3    H178470   0.611  -0.075  10.605 -1.1004 -0.4746 -2.4173
18993TIP3    H278471   0.538   0.033  10.529  1.0796  2.1189 -1.0125
18994TIP3   OH278472   0.505   5.290   4.797  0.2789 -0.0927 -0.0234
18994TIP3    H178473   0.571   5.357   4.778  0.0921  0.0009 -0.3610
18994TIP3    H278474   0.542   5.209   4.763  0.3363 -0.0899  0.0324
18995TIP3   OH278475   3.272   5.984   6.218 -0.1279 -0.0193  0.2862
18995TIP3    H178476   3.361   5.948   6.213 -0.2150 -0.2100  0.0852
18995TIP3    H278477   3.281   6.073   6.185 -0.4946 -0.9139 -2.5838
18996TIP3   OH278478   0.999   1.059   2.222  0.1892  0.2606 -0.3511
18996TIP3    H178479   1.087   1.029   2.244  0.5641 -0.4231 -2.5617
18996TIP3    H278480   0.951   1.055   2.305  1.8401 -0.7481  0.6046
18997TIP3   OH278481   5.053   5.757   3.063  0.2142 -0.0092  0.1046
18997TIP3    H178482   5.028   5.847   3.084  0.2059 -0.4527  2.2067
18997TIP3    H278483   5.147   5.753   3.081  0.1393 -0.4994  0.4219
18998TIP3   OH278484   3.899   6.104  15.975 -0.3907  0.6597 -0.0440
18998TIP3    H178485   3.969   6.072  16.032 -0.5460 -1.4926 -0.9572
18998TIP3    H278486   3.872   6.187  16.014  0.4924 -0.0234  2.1636
18999TIP3   OH278487   6.188   4.236  16.023  0.0941  0.1215 -0.3045
18999TIP3    H178488   6.187   4.274  15.935 -0.6482  0.8047 -0.0130
18999TIP3    H278489   6.220   4.307  16.079 -2.2276  0.7193  0.3878
19000TIP3   OH278490   1.068   1.006   5.034 -0.0056 -0.3866 -0.4425
19000TIP3    H178491   1.016   0.947   4.979  1.7733 -0.1587 -2.5072
19000TIP3    H278492   1.016   1.086   5.039  0.4545  0.1745 -3.2315
19001TIP3   OH278493   6.081   5.882  15.474 -0.5429  0.5073  0.3525
19001TIP3    H178494   6.122   5.836  15.401 -0.0418  0.1122  0.8670
19001TIP3    H278495   6.107   5.832  15.552 -2.3980 -0.0158  0.6733
19002TIP3   OH278496   6.673   3.793   1.102 -0.1332  0.0599 -0.6080
19002TIP3    H178497   6.600   3.831   1.150 -0.4714  0.5454 -1.4712
19002TIP3    H278498   6.653   3.810   1.010  0.6001 -0.6416 -0.9188
19003TIP3   OH278499   5.424   6.618  16.605  0.1131  0.0127  0.0917
19003TIP3    H178500   5.479   6.673  16.549 -0.6519  0.7214  0.0306
19003TIP3    H278501   5.384   6.678  16.667  2.3562 -0.9376  2.6811
19004TIP3   OH278502   0.914   0.620   5.476  0.6438  0.4270  0.3022
19004TIP3    H178503   0.912   0.581   5.388  0.2143  0.5534  0.2567
19004TIP3    H278504   0.911   0.714   5.460  1.4342  0.4826  0.4234
19005TIP3   OH278505   0.014   4.356  15.170 -0.0523 -0.1702 -0.4032
19005TIP3    H178506   0.033   4.426  15.233  1.8190 -0.0953 -0.9762
19005TIP3    H278507   0.041   4.393  15.085  0.9066 -1.5414 -0.7210
19006TIP3   OH278508   3.771   6.801  12.020  0.1905 -0.0081  0.0150
19006TIP3    H178509   3.779   6.710  11.991 -1.0006  0.1301 -0.8001
19006TIP3    H278510   3.735   6.847  11.945  0.3777  1.0661  0.5641
19007TIP3   OH278511   4.378   2.950  14.314  0.7979  0.4152 -0.3795
19007TIP3    H178512   4.444   2.939  14.383  0.2006 -0.2420  0.0977
19007TIP3    H278513   4.373   2.864  14.272 -0.0554  0.3478 -0.1444
19008TIP3   OH278514   1.793   2.676   4.400  0.1528  0.4291 -0.0306
19008TIP3    H178515   1.785   2.707   4.490  0.5367 -1.6704  0.7922
19008TIP3    H278516   1.804   2.755   4.348 -0.2740  1.7133  1.7349
19009TIP3   OH278517   4.450   5.379   4.845  0.0351  0.6586  0.3172
19009TIP3    H178518   4.436   5.388   4.939  0.2411  2.8252  0.1933
19009TIP3    H278519   4.397   5.449   4.806  0.3884  0.1545 -1.1405
19010TIP3   OH278520   4.144   1.863  15.926  0.0357  0.1328  0.1027
19010TIP3    H178521   4.152   1.923  16.000 -1.6877  1.6154 -0.8304
19010TIP3    H278522   4.114   1.781  15.965  1.8041 -0.0078  1.3265
19011TIP3   OH278523   6.103   4.705   4.991  0.4785 -0.0338 -0.3889
19011TIP3    H178524   6.015   4.732   5.019 -0.0036 -1.1537 -0.7484
19011TIP3    H278525   6.094   4.693   4.896  0.7798 -0.9814 -0.3068
19012TIP3   OH278526   3.824   5.627   4.348 -0.1148  0.0672  0.0292
19012TIP3    H178527   3.800   5.719   4.362 -1.1012 -0.3462  1.2826
19012TIP3    H278528   3.893   5.610   4.412  1.2832  0.3691 -1.3577
19013TIP3   OH278529   4.839   4.544  12.048  0.1594 -0.7048  0.1071
19013TIP3    H178530   4.908   4.608  12.031 -0.5703  0.5894  1.7057
19013TIP3    H278531   4.875   4.461  12.016  2.3190 -0.0219  0.5533
19014TIP3   OH278532   1.379   3.144  12.845 -0.0315 -0.3505  0.2873
19014TIP3    H178533   1.301   3.093  12.824 -0.6755  0.8680 -0.4055
19014TIP3    H278534   1.344   3.230  12.871  1.1099  1.1089 -2.5654
19015TIP3   OH278535   1.621   5.915   1.559  0.0365  0.4146  0.0636
19015TIP3    H178536   1.565   5.965   1.500 -1.1299 -0.1377  0.6860
19015TIP3    H278537   1.582   5.927   1.646 -0.1135 -1.3383  0.2583
19016TIP3   OH278538   4.135   4.229  14.224 -0.1838 -0.3497  0.2898
19016TIP3    H178539   4.144   4.310  14.175  1.4482 -0.7281 -0.1007
19016TIP3    H278540   4.070   4.178  14.175 -0.2772  0.2138 -0.1737
19017TIP3   OH278541   1.304   2.671   2.429 -0.0482 -0.1804 -0.0628
19017TIP3    H178542   1.346   2.668   2.343  0.3432  0.8747  0.0799
19017TIP3    H278543   1.355   2.735   2.479 -0.7309 -0.2217  0.7133
19018TIP3   OH278544   6.261   5.166  14.968  0.2951 -0.3794 -0.3820
19018TIP3    H178545   6.173   5.164  15.005 -1.3649  0.1185 -3.9042
19018TIP3    H278546   6.292   5.076  14.975 -1.0173 -0.8367 -0.2152
19019TIP3   OH278547   0.833   5.253   4.349 -0.2352  0.0558 -0.0295
19019TIP3    H178548   0.910   5.258   4.405  0.4662 -2.4856 -0.6096
19019TIP3    H278549   0.761   5.233   4.409 -0.3014  1.4625  0.3941
19020TIP3   OH278550   2.291   1.867   6.657 -0.4500  0.1638  0.0294
19020TIP3    H178551   2.326   1.783   6.628  2.0885  0.8382  0.9333
19020TIP3    H278552   2.233   1.844   6.730 -1.5048 -0.9290 -1.0878
19021TIP3   OH278553   6.716   1.488   1.118 -0.0356 -0.0786  0.4469
19021TIP3    H178554   6.779   1.520   1.054  0.1698 -2.7133 -0.8034
19021TIP3    H278555   6.631   1.522   1.088  0.1474 -0.7608 -0.9153
19022TIP3   OH278556   6.540   5.999  15.684  0.0738 -0.5174  0.1649
19022TIP3    H178557   6.492   6.066  15.733  0.2780 -0.7589  0.7081
19022TIP3    H278558   6.631   6.008  15.714  0.3066 -0.2891 -0.6045
19023TIP3   OH278559   0.216   1.987  10.528  0.6564  0.2310  0.3344
19023TIP3    H178560   0.190   1.896  10.511  0.4374  0.2520  0.5589
19023TIP3    H278561   0.290   1.980  10.589  2.0757  0.1103 -1.3123
19024TIP3   OH278562   0.988   0.551   4.257  0.7287 -0.8783 -0.1129
19024TIP3    H178563   0.961   0.533   4.168  0.0569 -0.2138 -0.0502
19024TIP3    H278564   1.000   0.646   4.260 -0.6735 -0.7002  0.8745
19025TIP3   OH278565   3.475   1.924  15.633 -0.2356 -0.4263 -0.4130
19025TIP3    H178566   3.531   2.000  15.651 -1.0177  0.8862 -2.9919
19025TIP3    H278567   3.494   1.863  15.704  0.5075  2.1219  1.7735
19026TIP3   OH278568   2.214   5.601   4.389 -0.1805  0.3207 -0.2503
19026TIP3    H178569   2.136   5.625   4.440  0.1489  1.7615 -0.3984
19026TIP3    H278570   2.226   5.674   4.328  0.2111 -0.7498 -1.5135
19027TIP3   OH278571   2.539   5.016   1.332  0.6897  0.5391  0.0453
19027TIP3    H178572   2.480   4.942   1.348 -1.2038  1.3986 -2.3159
19027TIP3    H278573   2.626   4.980   1.346  0.0224 -2.8104 -2.8063
19028TIP3   OH278574   3.377   1.852  11.818  0.3162 -0.3580  0.0881
19028TIP3    H178575   3.326   1.774  11.797  0.5004 -0.0916 -1.5350
19028TIP3    H278576   3.344   1.880  11.904  0.2890 -2.2195  0.7242
19029TIP3   OH278577   3.673   1.870  11.771  0.0786  0.2949  0.1689
19029TIP3    H178578   3.617   1.794  11.762  1.2884 -0.4762 -1.3900
19029TIP3    H278579   3.625   1.941  11.728 -0.0757 -0.1442 -0.3873
19030TIP3   OH278580   0.616   5.569   2.323 -0.1056 -0.1984 -0.0656
19030TIP3    H178581   0.549   5.606   2.265 -1.5448 -0.3985  1.3970
19030TIP3    H278582   0.678   5.641   2.337  0.7081 -0.3569 -2.3733
19031TIP3   OH278583   3.380   6.500  11.782  0.6253 -0.2073  0.0366
19031TIP3    H178584   3.409   6.591  11.770  1.8407 -0.2169  2.4012
19031TIP3    H278585   3.289   6.508  11.808  0.2359  0.1948 -1.3216
19032TIP3   OH278586   4.703   2.386  10.589  0.1244 -0.4604 -0.5506
19032TIP3    H178587   4.752   2.305  10.603  1.5928  0.2759 -1.2602
19032TIP3    H278588   4.612   2.357  10.580  0.5934 -2.0081 -0.6344
19033TIP3   OH278589   4.371   1.473  16.061  0.2402 -0.8592 -0.2726
19033TIP3    H178590   4.382   1.468  15.966  0.3099 -0.4292 -0.2905
19033TIP3    H278591   4.283   1.511  16.073  1.2110  1.5567 -0.2115
19034TIP3   OH278592   3.039   4.419  16.833  0.2785 -0.5985 -0.0607
19034TIP3    H178593   2.990   4.336  16.838  0.6576 -0.9274 -1.3625
19034TIP3    H278594   2.988   4.473  16.773  0.1293  0.0609  0.6484
19035TIP3   OH278595   5.059   3.130   5.038 -0.4573 -0.2786 -0.0439
19035TIP3    H178596   4.992   3.065   5.016  0.2468 -1.4961  1.2351
19035TIP3    H278597   5.115   3.085   5.101  1.5802  0.6967 -1.0706
19036TIP3   OH278598   0.214   6.800  14.693  0.1232 -0.4467  0.0903
19036TIP3    H178599   0.184   6.729  14.635 -2.9062  1.3841 -0.7835
19036TIP3    H278600   0.172   6.782  14.777 -0.0328 -0.0929  0.0871
19037TIP3   OH278601   0.382   5.925   5.027  0.5441  0.1788 -0.4354
19037TIP3    H178602   0.398   5.831   5.032  0.7094  0.2535  2.3805
19037TIP3    H278603   0.466   5.963   4.999  1.1653 -0.3875  0.6063
19038TIP3   OH278604   3.560   2.522   3.054 -0.2184 -0.0374 -0.4777
19038TIP3    H178605   3.647   2.499   3.021  0.0496 -2.1943  1.4916
19038TIP3    H278606   3.506   2.445   3.037 -1.1992  0.4788  0.1746
19039TIP3   OH278607   2.974   2.669  15.358 -0.4369 -0.7007 -0.2244
19039TIP3    H178608   2.975   2.679  15.263  1.6037  0.3568 -0.1456
19039TIP3    H278609   2.922   2.590  15.373  0.1162 -1.5246 -2.2717
19040TIP3   OH278610   4.479   5.580   5.682  0.4632 -0.2195  0.6115
19040TIP3    H178611   4.488   5.491   5.647 -1.2542  0.2685 -1.2913
19040TIP3    H278612   4.565   5.600   5.719  1.5832 -1.8493 -0.9255
19041TIP3   OH278613   5.463   0.860  11.167  0.3377  0.0074 -0.0823
19041TIP3    H178614   5.502   0.943  11.192  2.1216 -0.8729  0.2479
19041TIP3    H278615   5.534   0.814  11.121 -0.0414 -1.9673  1.1885
19042TIP3   OH278616   0.716   3.694  10.939  0.0189 -0.8666 -0.1948
19042TIP3    H178617   0.756   3.674  10.854 -0.3158 -0.0052 -0.5610
19042TIP3    H278618   0.767   3.768  10.972 -1.5142  0.5454 -0.8688
19043TIP3   OH278619   5.909   5.415  15.422  0.3703  0.2811  0.1588
19043TIP3    H178620   5.998   5.441  15.397  0.4946 -1.1564 -1.0440
19043TIP3    H278621   5.875   5.370  15.345 -0.8833 -0.4356  1.0994
19044TIP3   OH278622   1.836   1.724  11.505  0.0970  0.0940  0.1169
19044TIP3    H178623   1.887   1.805  11.504  1.2809 -0.6227 -1.2139
19044TIP3    H278624   1.900   1.656  11.528 -0.7385 -0.5591  0.5943
19045TIP3   OH278625   2.919   0.944   2.545 -0.2518 -0.2247 -0.7586
19045TIP3    H178626   2.901   0.893   2.466  1.3660 -3.6017  0.8345
19045TIP3    H278627   3.012   0.932   2.561 -0.2389  1.5938  0.8589
19046TIP3   OH278628   4.758   3.019   0.509 -0.0424 -0.0131  0.2536
19046TIP3    H178629   4.824   3.070   0.556  1.4957 -0.6420 -1.1540
19046TIP3    H278630   4.784   2.928   0.522 -0.5433 -0.2650 -0.4627
19047TIP3   OH278631   1.501   2.512  15.368  0.5828 -0.2766 -0.5042
19047TIP3    H178632   1.484   2.599  15.403 -0.2574 -0.1647 -1.1713
19047TIP3    H278633   1.421   2.463  15.386 -0.4777  0.1892 -3.5147
19048TIP3   OH278634   2.350   5.362  10.632 -0.5524  0.1331  1.0108
19048TIP3    H178635   2.289   5.436  10.639 -0.7699 -0.1137  1.8124
19048TIP3    H278636   2.379   5.364  10.541 -0.9840  0.8686  0.8778
19049TIP3   OH278637   5.474   2.443  12.888 -0.0994  0.8370  0.3068
19049TIP3    H178638   5.525   2.515  12.925 -0.4575  1.0549  0.3742
19049TIP3    H278639   5.422   2.484  12.819  0.0646  0.5542  0.0118
19050TIP3   OH278640   5.317   2.756  11.093  0.1804 -0.0669 -0.3034
19050TIP3    H178641   5.378   2.682  11.089 -1.5627 -1.8343  2.2349
19050TIP3    H278642   5.236   2.721  11.055 -0.5190  0.6877  0.4672
19051TIP3   OH278643   2.578   3.797   4.016 -0.1082  0.2059  0.1658
19051TIP3    H178644   2.525   3.849   3.955 -2.2140 -0.7672  1.0795
19051TIP3    H278645   2.570   3.707   3.985  1.6216  0.0849 -0.0501
19052TIP3   OH278646   3.521   5.988  15.837  0.3817  0.2259 -0.3857
19052TIP3    H178647   3.506   5.894  15.843 -1.1362  0.4611 -0.2612
19052TIP3    H278648   3.520   6.019  15.928  2.8925  0.1129 -0.2465
19053TIP3   OH278649   4.629   6.619   2.896 -0.0565 -0.8066  0.5168
19053TIP3    H178650   4.705   6.663   2.935 -0.7653 -0.4375  1.5075
19053TIP3    H278651   4.569   6.604   2.969 -0.9539 -1.0799 -0.2551
19054TIP3   OH278652   3.407   6.229   1.369 -0.0359 -0.4136  0.3655
19054TIP3    H178653   3.338   6.165   1.350  0.4244 -0.3513 -1.8063
19054TIP3    H278654   3.367   6.313   1.349 -0.2206 -0.0973  1.9523
19055TIP3   OH278655   5.005   3.509   1.597 -0.2193 -0.1199 -0.3374
19055TIP3    H178656   5.091   3.548   1.577 -0.6867  1.7985  1.1152
19055TIP3    H278657   5.024   3.441   1.661  0.3692 -0.8824 -1.2836
19056TIP3   OH278658   4.271   5.816  14.754 -0.8431  0.2125  0.3562
19056TIP3    H178659   4.186   5.801  14.794 -0.8226 -1.2588 -0.0931
19056TIP3    H278660   4.255   5.883  14.687 -1.6654 -0.1443  0.1913
19057TIP3   OH278661   2.600   3.550   5.705 -0.2069 -0.0185  0.6753
19057TIP3    H178662   2.559   3.635   5.688 -1.4419 -0.6628  0.3111
19057TIP3    H278663   2.543   3.509   5.770  0.1883 -0.7105  0.5915
19058TIP3   OH278664   0.788   2.483   6.363 -0.0092  0.1135  0.2232
19058TIP3    H178665   0.851   2.554   6.374  0.9645 -0.8609  1.2250
19058TIP3    H278666   0.837   2.414   6.318 -0.4954 -0.4811  0.5883
19059TIP3   OH278667   2.784   2.327   4.556  0.1854  0.5259  0.1399
19059TIP3    H178668   2.877   2.306   4.551  0.4040  1.4030  0.2964
19059TIP3    H278669   2.767   2.338   4.650 -0.5102 -1.4010  0.2925
19060TIP3   OH278670   0.101   5.843   4.035 -0.4216  0.2932  0.2457
19060TIP3    H178671   0.020   5.888   4.008 -0.2587 -0.0441 -0.8323
19060TIP3    H278672   0.093   5.755   3.999  0.6708  0.4208 -0.3482
19061TIP3   OH278673   4.572   5.478  15.191  0.1472  0.5496 -0.5899
19061TIP3    H178674   4.544   5.428  15.269 -0.3379  0.6564 -0.6958
19061TIP3    H278675   4.666   5.489  15.203  0.2112 -0.1321 -0.4103
19062TIP3   OH278676   1.869   1.074   4.145 -0.0043 -0.6124 -0.0087
19062TIP3    H178677   1.852   0.980   4.153 -0.1241 -0.5009  1.2836
19062TIP3    H278678   1.787   1.116   4.170  0.6215 -0.1527  1.3762
19063TIP3   OH278679   2.854   2.907   3.183  0.4354 -0.7196 -0.4541
19063TIP3    H178680   2.897   2.919   3.098 -0.1101 -0.0835 -0.6499
19063TIP3    H278681   2.784   2.972   3.183  0.9005 -0.1866  0.8010
19064TIP3   OH278682   4.380   1.296  13.045  0.2696 -0.2348 -0.1386
19064TIP3    H178683   4.410   1.220  13.094 -0.7217  0.3332  1.4506
19064TIP3    H278684   4.307   1.264  12.993  0.0794 -0.4580  0.2596
19065TIP3   OH278685   4.048   3.087  15.959  0.0873  0.5003 -0.9206
19065TIP3    H178686   4.076   3.068  16.049 -2.3212  1.2026  0.0585
19065TIP3    H278687   4.004   3.007  15.931 -0.3795  0.7711 -0.9528
19066TIP3   OH278688   4.850   3.297   0.073 -0.1385 -0.1709  0.1508
19066TIP3    H178689   4.930   3.287   0.021  0.5626  1.2244  0.8975
19066TIP3    H278690   4.779   3.288   0.009  0.6187 -0.9107 -0.6202
19067TIP3   OH278691   2.668   0.131  16.380  0.3841  0.0293 -0.4472
19067TIP3    H178692   2.717   0.088  16.310  1.2948  2.2922 -1.3098
19067TIP3    H278693   2.713   0.104  16.461  2.0339  0.7286 -1.0973
19068TIP3   OH278694   4.647   1.805   5.578  0.0828 -0.8889  0.3296
19068TIP3    H178695   4.622   1.882   5.629 -1.1304 -0.8673 -0.2670
19068TIP3    H278696   4.564   1.766   5.550  0.6763 -2.1758  0.2558
19069TIP3   OH278697   1.256   6.022   1.153  0.2221 -0.5626 -0.0700
19069TIP3    H178698   1.329   6.002   1.211  0.7866  0.7395 -0.2870
19069TIP3    H278699   1.202   6.084   1.202 -0.8427 -1.6210  0.1454
19070TIP3   OH278700   1.550   6.601  14.268 -0.3415  0.5490  0.3048
19070TIP3    H178701   1.498   6.534  14.224  0.5674  0.3039 -0.4254
19070TIP3    H278702   1.507   6.613  14.353 -1.6789  0.4845 -0.3373
19071TIP3   OH278703   3.036   0.541   5.473  0.9575 -0.4037  0.2485
19071TIP3    H178704   2.989   0.573   5.550 -0.7645 -0.4321 -0.7419
19071TIP3    H278705   3.122   0.516   5.506  1.4432  2.5919  1.5985
19072TIP3   OH278706   4.171   0.790   4.009 -0.7823  0.8151 -0.4238
19072TIP3    H178707   4.267   0.795   4.009 -0.5533 -0.9959  2.2630
19072TIP3    H278708   4.151   0.731   3.936  0.3772 -0.4418  0.2091
19073TIP3   OH278709   3.670   6.067   5.242  0.0738  0.1155  0.3673
19073TIP3    H178710   3.619   6.146   5.223 -1.7419 -1.1596 -0.3889
19073TIP3    H278711   3.758   6.099   5.260 -0.3091  2.2234 -1.0902
19074TIP3   OH278712   3.425   2.059  11.181  0.6762  0.2514  0.0973
19074TIP3    H178713   3.450   2.047  11.272 -1.2268  0.2727  0.6568
19074TIP3    H278714   3.435   2.153  11.165 -1.2504  0.6779  1.0595
19075TIP3   OH278715   0.259   6.673  12.462  0.2860  0.7264  0.1030
19075TIP3    H178716   0.182   6.709  12.505  0.9558  0.7266  1.3262
19075TIP3    H278717   0.308   6.629  12.531  0.2739 -1.2311 -1.0512
19076TIP3   OH278718   2.002   0.074  13.468 -0.0059 -0.2177 -0.2880
19076TIP3    H178719   2.094   0.059  13.488  0.0590 -0.5923 -0.8330
19076TIP3    H278720   1.957  -0.005  13.499 -0.3366  0.5117  1.1641
19077TIP3   OH278721   1.731   5.394  12.491 -0.4075 -0.1243 -0.1312
19077TIP3    H178722   1.753   5.316  12.542 -2.5888 -3.1742 -3.4171
19077TIP3    H278723   1.800   5.401  12.425  0.8772  2.1441  1.2792
19078TIP3   OH278724   6.660   0.362   3.030  0.1880 -0.1492 -0.5085
19078TIP3    H178725   6.707   0.337   3.110  2.2956 -0.4224 -1.7388
19078TIP3    H278726   6.651   0.457   3.036 -0.1677 -0.2229  0.2852
19079TIP3   OH278727   5.137   2.066   3.481 -0.4346  0.1625 -0.3171
19079TIP3    H178728   5.090   2.132   3.533 -0.5000 -0.4481  0.4089
19079TIP3    H278729   5.069   2.005   3.453 -0.6810  1.3316 -2.5103
19080TIP3   OH278730   3.292   3.961  10.928 -0.3514  0.0903  0.0591
19080TIP3    H178731   3.281   4.046  10.971 -0.7917 -0.1174  0.3597
19080TIP3    H278732   3.343   3.981  10.849 -0.2354  0.5943  0.2546
19081TIP3   OH278733   0.101   2.015   4.625 -0.1631  0.6529  0.0778
19081TIP3    H178734   0.157   2.088   4.601  1.0783 -0.4149 -0.3816
19081TIP3    H278735   0.124   1.996   4.716 -0.2976  0.6685  0.1157
19082TIP3   OH278736   6.493   3.963   5.630  0.0051 -0.1322  0.6701
19082TIP3    H178737   6.477   4.043   5.679  0.0336  0.2656  0.0482
19082TIP3    H278738   6.435   3.970   5.554  0.2648 -0.5317  0.4322
19083TIP3   OH278739   0.714   0.920  14.186 -0.5325  0.1970  0.6598
19083TIP3    H178740   0.725   0.889  14.096 -1.0935 -1.7018  1.1852
19083TIP3    H278741   0.800   0.908  14.226 -0.3676  0.7260  0.4636
19084TIP3   OH278742   2.516   0.303  15.000  0.0736  0.2975  0.5705
19084TIP3    H178743   2.518   0.398  15.001  0.2583  0.3044  2.1660
19084TIP3    H278744   2.602   0.277  15.032  0.4993 -0.4451 -1.0727
19085TIP3   OH278745   0.649   1.154   1.151 -0.5190  0.3829 -0.7025
19085TIP3    H178746   0.671   1.117   1.236 -0.4437  0.8641 -0.5083
19085TIP3    H278747   0.554   1.144   1.144 -0.6150  0.9077 -0.2804
19086TIP3   OH278748   6.582   5.561   2.342 -0.0463  0.0551  0.1254
19086TIP3    H178749   6.488   5.560   2.360 -0.3069 -0.7649 -1.1562
19086TIP3    H278750   6.605   5.654   2.344 -1.3151  0.4599 -1.5252
19087TIP3   OH278751   6.391   4.584   2.475 -0.0305 -0.1862 -0.5280
19087TIP3    H178752   6.380   4.538   2.392 -1.8704  0.3663 -0.6304
19087TIP3    H278753   6.302   4.608   2.501  0.6588  1.0325  0.8213
19088TIP3   OH278754   1.504   6.555   1.595 -0.1663  0.4447 -0.0662
19088TIP3    H178755   1.413   6.558   1.566 -0.4014 -3.3909 -0.2573
19088TIP3    H278756   1.498   6.549   1.691  0.0505  1.9672  0.0721
19089TIP3   OH278757   4.297   1.884  12.941  0.2671  0.1311  0.5159
19089TIP3    H178758   4.297   1.962  12.885  1.1298  0.3371  0.7862
19089TIP3    H278759   4.217   1.838  12.918  0.6077  0.2028 -0.9213
19090TIP3   OH278760   2.013   4.665  14.151 -0.4546 -0.2686 -0.1814
19090TIP3    H178761   2.091   4.720  14.159  0.0659 -0.9500 -0.3958
19090TIP3    H278762   2.030   4.612  14.073 -0.3859 -1.5773  0.6859
19091TIP3   OH278763   5.344   2.445   6.051  0.3901 -0.0426 -0.2194
19091TIP3    H178764   5.391   2.368   6.018  0.3974 -0.1431  0.0194
19091TIP3    H278765   5.413   2.509   6.069  0.4406 -0.1902  0.1313
19092TIP3   OH278766   2.924   6.728   5.440 -0.3590  0.3710  0.0771
19092TIP3    H178767   2.946   6.661   5.376  0.0963  0.1244  0.4881
19092TIP3    H278768   2.872   6.792   5.391  0.5094  0.5098 -0.6914
19093TIP3   OH278769   3.549   5.155  11.985  0.0778  0.4208  0.1213
19093TIP3    H178770   3.462   5.184  11.957 -0.2670  1.3910  2.0398
19093TIP3    H278771   3.579   5.224  12.044  0.8062 -1.4037  1.9613
19094TIP3   OH278772   2.482   3.257  16.776  0.1507 -0.7808  0.3447
19094TIP3    H178773   2.397   3.302  16.778  0.7835  0.4577  0.1656
19094TIP3    H278774   2.486   3.219  16.689 -0.2233 -0.8562  0.3552
19095TIP3   OH278775   4.366   0.173   1.503 -0.8122  0.4110 -0.3858
19095TIP3    H178776   4.395   0.126   1.581 -1.2241  0.5379 -0.1509
19095TIP3    H278777   4.437   0.234   1.484 -0.0619 -0.6243 -0.9736
19096TIP3   OH278778   2.107   5.285  13.150  0.2617  0.4937 -0.5292
19096TIP3    H178779   2.108   5.372  13.109 -0.6988 -0.2599 -2.3054
19096TIP3    H278780   2.016   5.255  13.139  1.0553 -1.6306 -2.0776
19097TIP3   OH278781   6.653   0.894   3.471  0.0315  0.0119 -0.1132
19097TIP3    H178782   6.676   0.933   3.555 -0.2965  0.8675 -0.4024
19097TIP3    H278783   6.569   0.936   3.448 -0.2260 -0.7184 -0.5376
19098TIP3   OH278784   4.566   6.819  12.100  0.0095 -0.0671  0.1158
19098TIP3    H178785   4.604   6.795  12.184 -0.5843  1.2241  0.7850
19098TIP3    H278786   4.616   6.769  12.036  1.7050  0.3035  1.0876
19099TIP3   OH278787   3.889   4.431  10.245 -0.3622  0.0893 -0.2452
19099TIP3    H178788   3.824   4.499  10.228  0.3072  0.7712 -0.1004
19099TIP3    H278789   3.964   4.477  10.282 -0.5484 -0.9371  1.5551
19100TIP3   OH278790   5.161   6.743  14.308  0.1143 -0.3203 -0.3564
19100TIP3    H178791   5.066   6.733  14.299  0.1780 -0.3000 -1.1483
19100TIP3    H278792   5.172   6.825  14.357 -0.2871 -0.8527  0.6448
19101TIP3   OH278793   4.637   3.375  17.086 -0.5269 -0.0554 -0.6757
19101TIP3    H178794   4.596   3.334  17.162 -0.3685  1.7152  0.4238
19101TIP3    H278795   4.632   3.469  17.104  2.6925  0.3189 -1.1659
19102TIP3   OH278796   1.590   4.291   4.102  0.1242  0.4318 -0.1428
19102TIP3    H178797   1.583   4.276   4.007 -0.9330  2.0855 -0.3590
19102TIP3    H278798   1.520   4.353   4.122  0.8294  0.7210  1.6014
19103TIP3   OH278799   3.904   6.312   4.973  0.5106 -0.1451  0.0113
19103TIP3    H178800   3.970   6.331   4.906  0.6309 -0.6531 -0.0202
19103TIP3    H278801   3.844   6.386   4.969 -0.1764 -0.7360 -1.5098
19104TIP3   OH278802   6.695   0.018  13.072  0.1195 -0.2227 -0.2856
19104TIP3    H178803   6.734   0.037  12.987  1.1615 -4.3269 -0.9369
19104TIP3    H278804   6.769  -0.012  13.126 -0.8285  0.4256  1.4642
19105TIP3   OH278805   1.465   1.244   0.080 -0.3900  0.1221 -0.5496
19105TIP3    H178806   1.541   1.190   0.103 -0.3834  0.5513  0.5027
19105TIP3    H278807   1.471   1.319   0.138 -2.7621 -0.8353  1.1065
19106TIP3   OH278808   0.233   2.017  11.427 -0.4325 -0.0218  0.1850
19106TIP3    H178809   0.257   1.995  11.337 -0.7314  0.2299  0.0420
19106TIP3    H278810   0.154   1.967  11.444 -2.3776  2.4730 -0.8788
19107TIP3   OH278811   1.458   0.037  12.853 -0.1850 -0.2535  0.1568
19107TIP3    H178812   1.527   0.019  12.788 -0.4147 -2.1963  0.3766
19107TIP3    H278813   1.498   0.097  12.915 -0.5051  3.1995 -2.6519
19108TIP3   OH278814   6.036   5.561   5.819 -0.1597 -0.2922 -0.4742
19108TIP3    H178815   5.981   5.624   5.867  0.3081 -0.4709  0.3170
19108TIP3    H278816   5.996   5.476   5.838 -0.4201 -0.3028 -1.0344
19109TIP3   OH278817   4.539   1.350   4.798  0.4564  0.3010 -0.3364
19109TIP3    H178818   4.476   1.311   4.858 -1.1233  1.3680 -1.2348
19109TIP3    H278819   4.529   1.444   4.810 -0.0110  0.5513 -2.3194
19110TIP3   OH278820   3.287   3.169   5.385  0.0390 -0.0428 -0.5044
19110TIP3    H178821   3.252   3.233   5.323  0.5192 -0.8470 -1.6402
19110TIP3    H278822   3.257   3.084   5.351  1.1681 -0.5715 -0.2198
19111TIP3   OH278823   4.347   1.074  13.446 -0.3072  0.5017  0.5553
19111TIP3    H178824   4.389   1.072  13.532 -1.2959 -0.5207  1.0344
19111TIP3    H278825   4.297   0.993  13.441 -1.1611  1.0615 -0.5407
19112TIP3   OH278826   0.765   3.025   4.808  0.5097  0.4836  0.1329
19112TIP3    H178827   0.672   3.004   4.793 -1.0977  3.2057  4.3759
19112TIP3    H278828   0.802   2.945   4.846 -1.2830  0.4429  1.9816
19113TIP3   OH278829   5.224   3.689   3.187  0.3865  0.0634  0.2946
19113TIP3    H178830   5.260   3.601   3.175 -0.3391 -0.1915 -0.0921
19113TIP3    H278831   5.222   3.703   3.281 -0.1268 -0.6081  0.3867
19114TIP3   OH278832   0.510   6.374  14.193 -0.3845  0.3582  0.0950
19114TIP3    H178833   0.520   6.315  14.267 -0.2809  0.5372  0.2246
19114TIP3    H278834   0.526   6.462  14.229 -2.0812  0.6287  0.2398
19115TIP3   OH278835   3.129   0.959   5.743 -0.1393  0.0409 -0.0624
19115TIP3    H178836   3.199   0.955   5.807 -2.0664  1.2403  2.3108
19115TIP3    H278837   3.138   1.046   5.703  0.7258 -0.4922 -1.0849
19116TIP3   OH278838   2.859   1.681  14.947 -0.4632 -0.3392  0.0905
19116TIP3    H178839   2.837   1.765  14.989  0.5775  1.0239 -1.9096
19116TIP3    H278840   2.810   1.682  14.865  0.2293 -1.2932 -0.3502
19117TIP3   OH278841   4.358   0.279  10.475  0.0213  0.4004  0.2540
19117TIP3    H178842   4.411   0.356  10.454 -1.1227  1.5316  1.3131
19117TIP3    H278843   4.273   0.298  10.437 -0.4338 -0.0715  1.0063
19118TIP3   OH278844   1.575   2.521   2.669  0.2679  0.2830  0.0847
19118TIP3    H178845   1.548   2.482   2.585  0.4804 -1.7425  0.8915
19118TIP3    H278846   1.670   2.525   2.665  0.2009  2.2919 -0.6011
19119TIP3   OH278847   5.496   2.702   1.691 -0.1840 -0.1598  0.1601
19119TIP3    H178848   5.564   2.753   1.646  1.5362 -2.6791 -0.3209
19119TIP3    H278849   5.430   2.767   1.715  1.1066  2.0380 -1.7231
19120TIP3   OH278850   2.223   6.765   2.800 -0.2078 -0.1790  0.0704
19120TIP3    H178851   2.168   6.691   2.825 -0.9067 -0.3736 -1.9266
19120TIP3    H278852   2.166   6.842   2.810 -0.7631 -0.3417 -1.6329
19121TIP3   OH278853   3.183   0.099  13.237 -0.3202 -0.3666  0.0265
19121TIP3    H178854   3.174   0.055  13.322  0.5852 -2.0705 -0.7249
19121TIP3    H278855   3.093   0.105  13.204 -0.5473 -0.8060  0.5546
19122TIP3   OH278856   2.093   4.189  17.120 -0.1447 -0.4226 -0.6822
19122TIP3    H178857   2.049   4.109  17.147  0.5151  0.3674  3.4259
19122TIP3    H278858   2.186   4.169  17.127  0.0616  0.1241 -1.6880
19123TIP3   OH278859   1.734   4.810  16.044 -0.2812 -0.2455  0.0313
19123TIP3    H178860   1.806   4.769  15.997 -0.2377 -0.6332  0.4237
19123TIP3    H278861   1.740   4.774  16.133 -2.4852 -2.3013 -0.5473
19124TIP3   OH278862   4.228   4.173  11.465 -0.4439 -0.4461 -0.2057
19124TIP3    H178863   4.180   4.174  11.548  2.1733  1.2696  1.4680
19124TIP3    H278864   4.176   4.226  11.405 -2.1103 -1.2354  0.4975
19125TIP3   OH278865   5.169   6.270   4.475 -0.4461  0.6419 -0.4729
19125TIP3    H178866   5.208   6.216   4.544  0.7598  0.4394 -1.2768
19125TIP3    H278867   5.075   6.253   4.482 -0.1168 -1.7073 -0.7570
19126TIP3   OH278868   5.850   1.037  16.827  0.3588 -0.0453  0.3133
19126TIP3    H178869   5.870   1.079  16.743 -1.3006  0.4343  0.1209
19126TIP3    H278870   5.818   1.109  16.882 -1.2424 -0.8127  0.4246
19127TIP3   OH278871   0.283   2.036   3.260 -0.0601 -0.0423 -0.6402
19127TIP3    H178872   0.303   1.972   3.191  0.0988  0.1038 -0.7324
19127TIP3    H278873   0.276   2.119   3.213 -1.4532 -0.1661 -0.6906
19128TIP3   OH278874   2.852   2.440   4.260 -0.3981 -0.0960 -0.2037
19128TIP3    H178875   2.836   2.362   4.313 -0.4413 -1.2994 -1.9308
19128TIP3    H278876   2.875   2.407   4.173 -2.8863  1.7951 -1.7195
19129TIP3   OH278877   5.731   3.211   6.504 -0.6072  0.2537  0.1325
19129TIP3    H178878   5.817   3.202   6.462 -1.7499  1.8905 -2.7844
19129TIP3    H278879   5.731   3.299   6.540 -0.7795 -0.0596  0.9213
19130TIP3   OH278880   5.209   4.170  11.608 -0.3779  0.5354 -0.2170
19130TIP3    H178881   5.119   4.187  11.582 -0.7290  0.1487  0.7114
19130TIP3    H278882   5.255   4.253  11.592 -0.6435  0.4242 -1.6922
19131TIP3   OH278883   1.608   5.082   0.602  0.1689  0.0087 -0.5517
19131TIP3    H178884   1.638   5.036   0.681 -0.8210 -0.1732 -0.2693
19131TIP3    H278885   1.515   5.064   0.598  0.3238 -0.5601 -2.1629
19132TIP3   OH278886   5.370   4.320   5.681  0.3613 -0.4666 -0.2851
19132TIP3    H178887   5.393   4.266   5.606  0.5502  0.7996 -1.1655
19132TIP3    H278888   5.421   4.400   5.669 -0.1494  0.0438  0.8190
19133TIP3   OH278889   6.654   1.450  15.252  0.2501 -0.0941 -0.0367
19133TIP3    H178890   6.621   1.361  15.253 -2.6090  0.8526 -1.3876
19133TIP3    H278891   6.583   1.503  15.288  1.3194  1.7978 -0.5714
19134TIP3   OH278892   0.074   3.511  13.841 -0.3230  0.6228 -0.1829
19134TIP3    H178893   0.024   3.577  13.889  0.4826  1.1920 -0.1109
19134TIP3    H278894   0.026   3.429  13.856 -0.6258  0.9618  0.7748
19135TIP3   OH278895   6.786   2.710   5.953  0.1432  0.1797  0.1587
19135TIP3    H178896   6.775   2.802   5.932 -0.2712  0.1064  0.0598
19135TIP3    H278897   6.874   2.705   5.990  0.2819  0.5651 -0.1100
19136TIP3   OH278898   0.099   5.314  16.770  0.7530  0.8573  0.0298
19136TIP3    H178899   0.004   5.304  16.765  0.5120  2.0673  1.4282
19136TIP3    H278900   0.133   5.257  16.701 -1.0320  1.3519 -1.3251
19137TIP3   OH278901   6.357   4.131   6.126 -0.2167  0.4001 -0.1163
19137TIP3    H178902   6.398   4.116   6.040 -2.6781  0.5567 -1.3877
19137TIP3    H278903   6.305   4.211   6.114 -3.7593 -1.6749  0.2121
19138TIP3   OH278904   2.562   1.523   6.306  0.2433 -0.2783  0.2422
19138TIP3    H178905   2.627   1.579   6.263  0.9428  1.3240  3.1215
19138TIP3    H278906   2.609   1.442   6.325  1.3251  0.6336  1.7257
19139TIP3   OH278907   2.778   3.665   6.046 -0.1675 -0.4240 -0.1557
19139TIP3    H178908   2.687   3.666   6.074  0.1723  0.5893  0.9774
19139TIP3    H278909   2.793   3.753   6.011  0.4901 -0.4541  0.0444
19140TIP3   OH278910   1.033   3.780  11.912 -0.1529 -0.0027  0.4270
19140TIP3    H178911   1.015   3.743  11.999  1.9916  1.4201  1.5652
19140TIP3    H278912   0.949   3.776  11.867 -1.9740  1.2303  3.3699
19141TIP3   OH278913   3.047   4.833  14.644  0.0097  0.3705 -0.0813
19141TIP3    H178914   3.137   4.846  14.616  0.0679 -0.1211 -0.1380
19141TIP3    H278915   3.054   4.795  14.732 -0.1378  0.1484 -0.1639
19142TIP3   OH278916   5.936   0.391   3.850 -0.2218 -0.5952 -0.2812
19142TIP3    H178917   5.843   0.404   3.833 -0.0780  0.6345 -0.2257
19142TIP3    H278918   5.980   0.457   3.796  0.5978 -0.9372 -0.0533
19143TIP3   OH278919   5.109   1.662  17.057  0.1678 -0.0826  0.1385
19143TIP3    H178920   5.196   1.678  17.022  0.6986  0.5620  1.6684
19143TIP3    H278921   5.120   1.587  17.115 -0.6781 -1.1031 -0.9822
19144TIP3   OH278922   5.129   3.608   1.324 -0.5747 -0.7770  0.5137
19144TIP3    H178923   5.043   3.597   1.282 -1.1005  1.3838  0.9023
19144TIP3    H278924   5.178   3.530   1.299 -1.2333 -0.1829 -3.1984
19145TIP3   OH278925   6.319   2.155  15.965 -0.2080 -0.1933  0.8214
19145TIP3    H178926   6.394   2.101  15.940  0.9932  1.8933 -0.4018
19145TIP3    H278927   6.243   2.104  15.938  0.8161 -1.6581  0.5653
19146TIP3   OH278928   6.792   1.367  13.152  0.0212  0.2133 -0.0152
19146TIP3    H178929   6.875   1.380  13.197  0.0183  3.4124 -0.7110
19146TIP3    H278930   6.727   1.366  13.221  0.5328 -2.0095  0.5110
19147TIP3   OH278931   0.764   5.206   3.470  0.2629  0.6790  0.1948
19147TIP3    H178932   0.788   5.171   3.384 -0.2764 -0.5383  0.5313
19147TIP3    H278933   0.687   5.262   3.452 -1.0689 -1.0971  0.1258
19148TIP3   OH278934   3.122   1.063   4.117 -0.3577 -0.4273 -0.2726
19148TIP3    H178935   3.164   1.049   4.201  1.7830  0.6039 -1.0896
19148TIP3    H278936   3.124   0.977   4.074 -2.0756 -1.1166  0.9196
19149TIP3   OH278937   3.560   5.800  13.939  0.6018 -0.1210  0.2064
19149TIP3    H178938   3.505   5.879  13.947  0.2536 -0.3587  0.1917
19149TIP3    H278939   3.501   5.734  13.902  0.6994 -0.5891  0.8688
19150TIP3   OH278940   6.617   0.547  14.065  0.2209 -0.3700 -0.4126
19150TIP3    H178941   6.668   0.467  14.053 -0.5507 -0.6689 -1.8032
19150TIP3    H278942   6.651   0.607  13.998 -1.0583 -0.4843 -1.1850
19151TIP3   OH278943   4.635   2.974  11.207  0.2624 -0.7120 -0.2719
19151TIP3    H178944   4.543   2.988  11.187  0.0433 -0.7309  0.7002
19151TIP3    H278945   4.670   3.063  11.222  0.1746 -0.7781  0.3284
19152TIP3   OH278946   5.347   6.491  15.804 -0.3881 -0.4194 -0.1485
19152TIP3    H178947   5.254   6.502  15.785 -0.6067 -0.5728  0.7566
19152TIP3    H278948   5.353   6.403  15.840  0.0753 -0.3354 -0.0164
19153TIP3   OH278949   2.554   1.709  16.023  0.1962 -0.2318  0.0101
19153TIP3    H178950   2.564   1.717  15.928 -0.2942 -0.8336 -0.0950
19153TIP3    H278951   2.480   1.767  16.044 -0.0665 -0.5371 -0.0586
19154TIP3   OH278952   3.776   0.541  13.729  0.2010 -0.0792  0.0945
19154TIP3    H178953   3.743   0.451  13.724  0.1223 -0.0054 -0.7687
19154TIP3    H278954   3.863   0.537  13.689  0.9229 -0.1014  1.5948
19155TIP3   OH278955   0.318   3.711  11.702  0.4684  0.1425  0.5168
19155TIP3    H178956   0.359   3.726  11.617  0.8299  0.5775  0.7710
19155TIP3    H278957   0.231   3.677  11.680  0.2282  1.0833 -0.0421
19156TIP3   OH278958   5.260   2.986   5.162 -0.3088 -0.0641  0.0009
19156TIP3    H178959   5.204   2.941   5.225  1.6449 -0.5980  1.4445
19156TIP3    H278960   5.299   2.916   5.111  2.0366 -0.0585  1.6492
19157TIP3   OH278961   3.029   1.339   5.798  0.3774  0.1495  0.5155
19157TIP3    H178962   2.940   1.349   5.833 -0.6767 -3.0871 -0.8703
19157TIP3    H278963   3.018   1.344   5.703  1.9770  1.1577  0.3466
19158TIP3   OH278964   2.597   6.287  17.058 -0.2117  0.3145  0.1722
19158TIP3    H178965   2.504   6.310  17.052  0.2924  2.2812 -2.1058
19158TIP3    H278966   2.618   6.252  16.971  1.2174  0.0655  0.5920
19159TIP3   OH278967   1.999   0.422  14.122  0.6251 -0.0574 -0.3307
19159TIP3    H178968   2.020   0.362  14.050  1.7115 -0.9597  0.6859
19159TIP3    H278969   1.943   0.489  14.082  1.0089 -0.6465 -1.9473
19160TIP3   OH278970   3.718   6.179   3.735  1.0214 -0.2374 -0.2614
19160TIP3    H178971   3.709   6.086   3.711 -0.1799  0.0176 -0.8551
19160TIP3    H278972   3.780   6.178   3.809  1.9417 -1.3846 -0.9991
19161TIP3   OH278973   2.318   5.257  16.617  0.2304 -0.1052 -0.2949
19161TIP3    H178974   2.268   5.175  16.612 -0.2007  0.1253  0.1188
19161TIP3    H278975   2.394   5.242  16.561 -0.2866 -0.4750 -0.9136
19162TIP3   OH278976   4.165   3.165   0.078  0.1721 -0.0484  0.0171
19162TIP3    H178977   4.095   3.201   0.133  0.2616  1.1243 -0.6173
19162TIP3    H278978   4.125   3.088   0.037 -0.0162 -0.7165  1.3948
19163TIP3   OH278979   1.077   0.218  10.993 -0.3306  0.7400 -0.7257
19163TIP3    H178980   1.083   0.207  11.087  0.9093 -0.9549 -0.9620
19163TIP3    H278981   1.165   0.198  10.960 -0.3825  2.5548 -2.1480
19164TIP3   OH278982   3.136   6.560   1.212  0.4088 -0.0057 -0.0223
19164TIP3    H178983   3.120   6.654   1.198 -0.3332  0.0772  1.3050
19164TIP3    H278984   3.214   6.557   1.267 -1.4868  0.0120  2.8478
19165TIP3   OH278985   5.461   6.181  13.977 -0.0856 -0.4824 -0.0722
19165TIP3    H178986   5.544   6.224  13.955 -0.8443  0.7657 -0.6000
19165TIP3    H278987   5.477   6.138  14.061  1.4705 -1.3683 -0.7819
19166TIP3   OH278988   1.634   4.049   2.837  0.2055  0.4691 -0.4465
19166TIP3    H178989   1.545   4.037   2.802  0.5222 -0.5490 -0.9421
19166TIP3    H278990   1.664   4.131   2.797 -0.0222  0.1295 -1.3285
19167TIP3   OH278991   6.281   0.083   3.633 -0.2551 -0.0158  0.1229
19167TIP3    H178992   6.235   0.129   3.563  0.2610 -0.1881 -0.3321
19167TIP3    H278993   6.213   0.030   3.675 -0.5688  0.0904 -0.2417
19168TIP3   OH278994   4.267   2.254  14.957 -0.4022 -0.7686 -0.3634
19168TIP3    H178995   4.214   2.174  14.956  2.2414 -2.6653  0.3012
19168TIP3    H278996   4.293   2.266  14.866 -1.8893  0.1719 -0.6935
19169TIP3   OH278997   3.741   4.410  12.575  0.2667  0.2151 -0.5529
19169TIP3    H178998   3.776   4.339  12.629  0.7025  0.3132 -0.7009
19169TIP3    H278999   3.757   4.489  12.626 -1.6162  0.0866  0.3262
19170TIP3   OH279000   0.398   4.828  14.874 -0.0225  0.1625 -0.4351
19170TIP3    H179001   0.460   4.755  14.877  0.4744  0.6096  0.9845
19170TIP3    H279002   0.319   4.790  14.836 -1.0807 -2.1887  3.4765
19171TIP3   OH279003   3.938   5.863   3.594  0.0361  0.1299  0.1072
19171TIP3    H179004   3.994   5.896   3.664 -0.1024  0.0820  0.2436
19171TIP3    H279005   3.951   5.768   3.596 -0.5755  0.0475  0.6069
19172TIP3   OH279006   0.740   4.811  17.058  0.3603  0.5472 -0.4827
19172TIP3    H179007   0.734   4.770  16.972  1.2095  1.0641 -0.7992
19172TIP3    H279008   0.753   4.904  17.040 -1.2194  0.9480  0.2217
19173TIP3   OH279009   6.110   0.232   5.535 -0.2875  0.1302 -0.7267
19173TIP3    H179010   6.119   0.252   5.628 -1.3802 -0.1832 -0.5440
19173TIP3    H279011   6.198   0.206   5.507 -0.0562 -0.2517  0.3328
19174TIP3   OH279012   6.257   5.483  14.026  0.1248 -0.8460 -0.2841
19174TIP3    H179013   6.211   5.472  14.109  0.3541 -0.1100 -0.0485
19174TIP3    H279014   6.188   5.496  13.961 -0.0140  0.7085  0.1368
19175TIP3   OH279015   4.043   1.120  17.024 -0.2012  0.1151 -0.0516
19175TIP3    H179016   3.982   1.048  17.038 -0.5798  0.5584  0.6175
19175TIP3    H279017   4.130   1.078  17.026 -0.3140 -0.1388  1.8784
19176TIP3   OH279018   3.290   2.708  17.152 -0.1647  0.1439  0.0278
19176TIP3    H179019   3.255   2.776  17.210  0.7221 -0.2543  1.0811
19176TIP3    H279020   3.376   2.741  17.126  0.0346 -0.3170  0.0880
19177TIP3   OH279021   3.503   6.392   2.290 -0.3143  0.5735  0.0221
19177TIP3    H179022   3.469   6.332   2.358  0.3027 -0.1983 -0.3352
19177TIP3    H279023   3.425   6.423   2.245 -0.5816 -1.9612 -1.4468
19178TIP3   OH279024   5.005   5.384   3.016  0.0550  0.3191  0.7274
19178TIP3    H179025   5.088   5.341   2.996  0.0503  0.8138 -0.4438
19178TIP3    H279026   5.024   5.437   3.093  0.4946 -0.4956  1.1999
19179TIP3   OH279027   0.753   3.045   3.396  0.0475  0.4194 -0.3536
19179TIP3    H179028   0.667   3.044   3.353  0.1392 -1.0553 -0.5546
19179TIP3    H279029   0.799   2.969   3.359  0.4966 -0.3255  1.6063
19180TIP3   OH279030   3.891   1.829  13.983  0.2383 -0.9774  0.2715
19180TIP3    H179031   3.964   1.821  13.921  1.1601 -0.7429  1.2965
19180TIP3    H279032   3.873   1.740  14.011  1.0713 -0.8989  1.0694
19181TIP3   OH279033   2.310   5.262  14.447  0.0688 -0.2217  0.1687
19181TIP3    H179034   2.264   5.248  14.365 -3.0631  1.6758  1.4211
19181TIP3    H279035   2.259   5.214  14.512  2.1382 -1.2031  1.1747
19182TIP3   OH279036   1.351   3.581   6.332 -0.4231  0.1363  0.2266
19182TIP3    H179037   1.311   3.643   6.271  1.3543  1.0702 -0.0296
19182TIP3    H279038   1.422   3.629   6.374 -0.2388 -1.1436  1.4726
19183TIP3   OH279039   2.719   0.585   5.216 -0.2601  0.0769 -0.2110
19183TIP3    H179040   2.769   0.517   5.262 -2.5388 -0.8889  1.0188
19183TIP3    H279041   2.780   0.620   5.152  1.5230 -2.0304  0.1955
19184TIP3   OH279042   4.073   2.524   2.064 -0.2770  0.8418  0.1608
19184TIP3    H179043   3.978   2.526   2.064 -0.3073  3.1689 -0.5122
19184TIP3    H279044   4.097   2.469   1.991 -1.0775 -0.2650  0.7081
19185TIP3   OH279045   0.828   4.067   0.664  0.1637  0.2113  0.1119
19185TIP3    H179046   0.795   3.987   0.704  1.1087 -0.9935 -1.4213
19185TIP3    H279047   0.758   4.094   0.604 -0.1324  0.5128  0.5892
19186TIP3   OH279048   1.022   1.717  12.074 -0.0621  0.1841 -0.6640
19186TIP3    H179049   1.037   1.637  12.124  0.0226  0.5530 -0.0882
19186TIP3    H279050   1.078   1.708  11.997  1.5567  0.5712  0.3927
19187TIP3   OH279051   3.964   6.748   3.148  0.0887 -0.1433  0.8140
19187TIP3    H179052   3.884   6.772   3.194  1.9505  3.5734  2.5192
19187TIP3    H279053   4.011   6.690   3.208 -0.3576 -0.5817  0.7411
19188TIP3   OH279054   6.074   0.882  11.507  0.1259 -0.0980  0.0950
19188TIP3    H179055   6.085   0.923  11.422 -0.6311  2.2602  1.0456
19188TIP3    H279056   6.015   0.808  11.490  0.1084  0.2302 -1.4252
19189TIP3   OH279057   1.367   2.067  16.300  0.1223  0.4379  0.3735
19189TIP3    H179058   1.404   2.003  16.239 -1.8226 -0.3214 -0.1195
19189TIP3    H279059   1.407   2.046  16.385  0.8294 -0.2972 -0.1324
19190TIP3   OH279060   5.141   3.255   0.246 -0.3777 -0.2927  0.0676
19190TIP3    H179061   5.154   3.344   0.216 -0.2160 -0.7386 -1.2514
19190TIP3    H279062   5.056   3.255   0.290 -1.1315  0.1562 -1.3610
19191TIP3   OH279063   5.529   5.765   3.741 -0.8609 -0.2241  0.2813
19191TIP3    H179064   5.451   5.768   3.796 -1.9427  0.3922 -1.1943
19191TIP3    H279065   5.602   5.769   3.802 -1.9975  0.3672  1.6694
19192TIP3   OH279066   4.989   5.986  15.949  0.5140 -0.1247  0.1300
19192TIP3    H179067   5.082   6.009  15.950  0.4087  0.4645 -1.2163
19192TIP3    H279068   4.976   5.938  15.867  0.3680 -3.7223  2.0562
19193TIP3   OH279069   5.324   1.676   2.729 -0.1980  0.7705 -0.0134
19193TIP3    H179070   5.333   1.581   2.738  3.3543  0.6651 -2.5395
19193TIP3    H279071   5.305   1.689   2.636  1.0036  2.5637 -0.0408
19194TIP3   OH279072   3.688   0.750   4.318 -0.3107 -0.3625 -0.0730
19194TIP3    H179073   3.723   0.685   4.256 -0.0939 -1.7221  1.4202
19194TIP3    H279074   3.708   0.834   4.277  0.4188 -1.1927 -1.5381
19195TIP3   OH279075   1.417   1.966  16.831 -0.2084 -0.2124  0.4362
19195TIP3    H179076   1.462   1.881  16.827  1.9859  0.8245  1.3430
19195TIP3    H279077   1.484   2.029  16.807 -2.1001  1.2443 -1.3394
19196TIP3   OH279078   5.052   5.173   6.076  0.1265 -0.2474  0.0602
19196TIP3    H179079   5.139   5.134   6.081  1.0718  1.7447 -0.0234
19196TIP3    H279080   4.993   5.102   6.100  1.8033 -1.5036  0.6704
19197TIP3   OH279081   1.973   2.541  12.989  0.7258  0.3250  0.3542
19197TIP3    H179082   1.891   2.553  12.941  2.2391 -1.3313 -2.9606
19197TIP3    H279083   2.018   2.625  12.982  0.2214  0.5959  0.3446
19198TIP3   OH279084   2.268   2.564  14.291 -0.2640  0.0283  0.0915
19198TIP3    H179085   2.218   2.529  14.217  0.2023 -0.9841  0.2389
19198TIP3    H279086   2.259   2.659  14.283  0.6642  0.0016 -1.9195
19199TIP3   OH279087   0.787   4.492  12.975  0.0513  0.6909  0.3396
19199TIP3    H179088   0.793   4.476  13.069 -0.8191  0.2446  0.3211
19199TIP3    H279089   0.743   4.577  12.968 -3.1081 -0.8168  0.3179
19200TIP3   OH279090   2.256   4.244  12.056  0.0258  0.2586  0.1997
19200TIP3    H179091   2.228   4.218  12.144  1.7651  0.2417  0.7839
19200TIP3    H279092   2.348   4.266  12.066  0.2844  0.1527 -1.6586
19201TIP3   OH279093   3.833   4.570   2.387  0.4595 -0.0315  0.1587
19201TIP3    H179094   3.827   4.585   2.481  2.2922  0.7388  0.1957
19201TIP3    H279095   3.903   4.629   2.358 -0.2915 -0.0184 -1.7418
19202TIP3   OH279096   3.856   5.977  13.896 -0.5903 -0.1782  0.3068
19202TIP3    H179097   3.945   5.969  13.931  0.0287 -1.3975 -1.4004
19202TIP3    H279098   3.848   6.068  13.870  0.3044 -0.1366  0.1582
19203TIP3   OH279099   1.782   4.609  11.367 -0.2004  0.3627 -0.4423
19203TIP3    H179100   1.722   4.620  11.441 -0.2498 -1.8401 -0.1046
19203TIP3    H279101   1.824   4.695  11.358 -3.2325  1.9518 -0.6126
19204TIP3   OH279102   1.019   4.938   3.241 -0.8873  0.0411 -0.6644
19204TIP3    H179103   0.999   4.974   3.328  0.6685  0.3417 -0.4004
19204TIP3    H279104   0.933   4.917   3.204 -1.6841  1.3914  0.3048
19205TIP3   OH279105   5.832   2.020   2.964 -0.3947 -0.1207 -0.2929
19205TIP3    H179106   5.834   2.085   2.894 -1.5313 -0.0577 -0.2796
19205TIP3    H279107   5.925   2.003   2.983 -0.0781  0.6537 -1.0639
19206TIP3   OH279108   0.891   2.314   0.004  0.9849  0.5056  0.7863
19206TIP3    H179109   0.925   2.227   0.025 -0.3491  0.0289  1.0712
19206TIP3    H279110   0.943   2.343  -0.072  0.2712 -1.3151 -0.4685
19207TIP3   OH279111   6.316   1.718   3.231  0.1487  0.2832  0.6818
19207TIP3    H179112   6.260   1.675   3.295 -1.3909  1.3456  0.1141
19207TIP3    H279113   6.396   1.664   3.227 -0.5540 -0.8936  2.0008
19208TIP3   OH279114   5.068   5.959  13.703  0.3981  0.1454 -0.5960
19208TIP3    H179115   4.978   5.930  13.685  0.6163 -0.9005 -0.0532
19208TIP3    H279116   5.058   6.026  13.770 -0.0515  0.7398 -1.2477
19209TIP3   OH279117   4.575   2.954  16.137  0.1070 -0.0457  0.1393
19209TIP3    H179118   4.562   3.044  16.106  2.0798  0.3672  0.3326
19209TIP3    H279119   4.659   2.957  16.184  0.1049 -1.9397  0.3470
19210TIP3   OH279120   4.961   1.331   0.234 -0.4680 -0.6131 -0.3724
19210TIP3    H179121   4.995   1.330   0.323 -0.7259 -0.3955 -0.2708
19210TIP3    H279122   4.914   1.248   0.225  0.5552 -1.1712 -0.6978
19211TIP3   OH279123   3.285   0.719  13.079  0.0785  0.0711  0.1755
19211TIP3    H179124   3.357   0.675  13.124  0.3281  0.1467 -0.1503
19211TIP3    H279125   3.223   0.650  13.058  0.8751 -0.2722 -1.1280
19212TIP3   OH279126   3.599   6.668   1.597  0.0326 -0.3052 -0.1821
19212TIP3    H179127   3.604   6.724   1.519 -0.9067 -0.2464 -0.2024
19212TIP3    H279128   3.507   6.668   1.621  0.0718 -1.5851  0.0136
19213TIP3   OH279129   5.246   1.153   5.110 -0.3814  0.4887  0.5458
19213TIP3    H179130   5.324   1.198   5.079 -0.2635  0.0082  0.1415
19213TIP3    H279131   5.174   1.196   5.063 -0.5264  1.9108  1.9759
19214TIP3   OH279132   4.433   2.455  15.534  0.2620  0.1646 -0.3552
19214TIP3    H179133   4.466   2.500  15.611  1.6161 -1.9716  0.4017
19214TIP3    H279134   4.359   2.404  15.565  0.8949 -0.8114 -0.3777
19215TIP3   OH279135   0.005   4.480  10.379  0.2822  0.0916  0.1468
19215TIP3    H179136  -0.035   4.422  10.445 -0.9451 -0.8831 -1.3846
19215TIP3    H279137  -0.068   4.531  10.345  0.4753 -0.9181 -1.9137
19216TIP3   OH279138   5.393   5.358  11.985 -0.1178 -0.6362 -0.2431
19216TIP3    H179139   5.383   5.408  12.066 -0.6616  0.5373 -1.0159
19216TIP3    H279140   5.488   5.347  11.975 -0.0655 -2.0696  1.2767
19217TIP3   OH279141   5.679   1.822  16.205 -0.5208 -0.2932  0.0030
19217TIP3    H179142   5.743   1.882  16.243 -0.2830  0.0529 -0.9154
19217TIP3    H279143   5.717   1.736  16.216  0.0181 -0.1051 -0.3535
19218TIP3   OH279144   3.633   5.608   2.446  0.4376 -0.3619 -0.0896
19218TIP3    H179145   3.721   5.640   2.428 -0.3131  1.3796 -1.0179
19218TIP3    H279146   3.604   5.569   2.364  0.1737 -0.4972  0.0663
19219TIP3   OH279147   2.062   1.679  12.788 -0.2218  0.3504  0.2656
19219TIP3    H179148   1.986   1.687  12.730 -1.4427  1.0760  1.8827
19219TIP3    H279149   2.118   1.753  12.764 -0.7062  0.6381  0.0042
19220TIP3   OH279150   4.115   4.461  15.809  0.7660  0.2916  0.1842
19220TIP3    H179151   4.057   4.534  15.790 -0.1727  0.7248  3.8104
19220TIP3    H279152   4.202   4.500  15.817  0.3505  1.0260  1.5764
19221TIP3   OH279153   3.477   1.602  11.406 -0.2565 -0.1441 -0.0555
19221TIP3    H179154   3.483   1.605  11.310 -1.0228  1.4481 -0.0765
19221TIP3    H279155   3.410   1.666  11.428 -0.8056 -1.2030  1.5128
19222TIP3   OH279156   3.218   0.837   2.791  0.0518 -0.0803 -0.0241
19222TIP3    H179157   3.262   0.798   2.716  0.8547  0.4652  0.1416
19222TIP3    H279158   3.285   0.838   2.860 -0.8175 -1.0432  0.8673
19223TIP3   OH279159   2.249   5.798   4.712  0.0808  0.3810  0.4814
19223TIP3    H179160   2.305   5.838   4.645  0.9346 -0.0797  0.8909
19223TIP3    H279161   2.162   5.796   4.672  1.0694 -2.7593 -1.9999
19224TIP3   OH279162   2.855   4.399   5.562 -0.7571 -0.2437 -0.3075
19224TIP3    H179163   2.803   4.335   5.611 -0.8187 -0.3461 -0.5055
19224TIP3    H279164   2.934   4.351   5.536 -1.3487 -0.5939 -1.4885
19225TIP3   OH279165   2.385   1.909   3.063  0.2285 -0.1598  0.8821
19225TIP3    H179166   2.292   1.912   3.040 -0.2552 -1.2799  2.5022
19225TIP3    H279167   2.394   1.972   3.135  0.3201 -1.2801  1.8935
19226TIP3   OH279168   4.549   2.807  11.486  1.0318  0.7940 -0.1024
19226TIP3    H179169   4.492   2.815  11.563 -1.6675 -0.3011 -1.8260
19226TIP3    H279170   4.527   2.883  11.432  2.1114  0.9924 -0.2744
19227TIP3   OH279171   0.926   3.535  14.298  0.1033 -0.2172 -0.8130
19227TIP3    H179172   0.943   3.493  14.214 -0.6486  0.3867 -1.2807
19227TIP3    H279173   0.864   3.605  14.278 -0.1964 -0.1547  0.2662
19228TIP3   OH279174   0.692   6.714   3.819 -0.3914  0.3786  0.0922
19228TIP3    H179175   0.695   6.699   3.913  0.7375 -2.3698 -0.2819
19228TIP3    H279176   0.612   6.670   3.790  1.2286 -2.3585 -0.6191
19229TIP3   OH279177   3.681   1.915  15.341  0.2317  0.1887 -0.5684
19229TIP3    H179178   3.588   1.894  15.335  0.6467 -1.3958 -3.3056
19229TIP3    H279179   3.717   1.849  15.400 -0.1167 -0.4539 -1.0542
19230TIP3   OH279180   4.874   3.146   4.108 -0.7438 -0.9994  0.2182
19230TIP3    H179181   4.871   3.234   4.069 -2.1446 -1.3760 -0.5752
19230TIP3    H279182   4.867   3.162   4.202  2.3995 -0.0921  0.4159
19231TIP3   OH279183   4.349   1.263   0.389  0.4348  0.0336 -0.1016
19231TIP3    H179184   4.350   1.169   0.407 -1.0414 -0.3319 -1.7247
19231TIP3    H279185   4.303   1.301   0.463  0.8971 -0.5209  0.4868
19232TIP3   OH279186   1.121   2.170   4.960  0.1539 -0.1883  0.1354
19232TIP3    H179187   1.050   2.201   4.904 -1.8473 -0.0042  2.5811
19232TIP3    H279188   1.121   2.231   5.034  0.0805 -2.4793  2.1781
19233TIP3   OH279189   5.772   4.996   1.602 -0.2948 -0.4227 -0.5374
19233TIP3    H179190   5.824   5.052   1.659 -0.6568 -0.4705 -0.1560
19233TIP3    H279191   5.715   5.056   1.554  0.1845 -0.3612 -1.0351
19234TIP3   OH279192   3.167   5.430  15.357 -0.4034 -0.5932 -0.0199
19234TIP3    H179193   3.219   5.465  15.429  0.3461 -2.4760  0.4024
19234TIP3    H279194   3.229   5.384  15.302 -0.9317  0.9388 -2.0419
19235TIP3   OH279195   3.752   4.162  14.631  0.5986 -0.1529  0.4521
19235TIP3    H179196   3.835   4.207  14.646  0.3504 -0.2131  2.2262
19235TIP3    H279197   3.737   4.111  14.710  1.2291 -4.0748 -1.6996
19236TIP3   OH279198   1.754   2.672   3.433  0.0841  0.5461 -0.1007
19236TIP3    H179199   1.773   2.643   3.523 -1.2526  2.0378  0.7154
19236TIP3    H279200   1.669   2.633   3.413 -0.3732  1.5240 -0.0934
19237TIP3   OH279201   1.457   6.784   4.709  0.0614 -0.1918 -0.1125
19237TIP3    H179202   1.414   6.700   4.691 -0.8151 -0.2182  1.8596
19237TIP3    H279203   1.480   6.780   4.802 -0.7531  2.0729  0.2553
19238TIP3   OH279204   6.807   0.991  12.465 -0.1708  0.4481  0.2965
19238TIP3    H179205   6.877   1.031  12.518  0.2928 -0.2478  0.2189
19238TIP3    H279206   6.815   0.897  12.481 -0.4306  0.2781 -0.5186
19239TIP3   OH279207   2.007   1.138   6.152 -0.2780  0.0864 -0.1321
19239TIP3    H179208   2.098   1.131   6.180 -0.9006 -1.7681  1.6347
19239TIP3    H279209   1.976   1.219   6.192  0.1912 -0.0351  0.4924
19240TIP3   OH279210   0.658   0.697   2.378  0.2899 -0.2740 -0.1714
19240TIP3    H179211   0.589   0.679   2.314 -0.0221 -1.5951  0.5091
19240TIP3    H279212   0.634   0.645   2.455  1.7811 -0.3723  0.2596
19241TIP3   OH279213   3.620   6.116  10.765 -0.0420 -0.0857  0.0296
19241TIP3    H179214   3.557   6.187  10.777  0.3923  0.4413 -0.6850
19241TIP3    H279215   3.663   6.137  10.682 -0.6670 -1.7750 -0.7649
19242TIP3   OH279216   5.413   0.433  11.493 -0.4245 -0.6882 -0.4090
19242TIP3    H179217   5.383   0.504  11.549  0.4257 -0.0512 -0.7390
19242TIP3    H279218   5.403   0.354  11.546 -1.5188 -0.3521 -0.0911
19243TIP3   OH279219   6.644   1.224  14.928  0.3880  0.0324  0.2138
19243TIP3    H179220   6.685   1.309  14.940 -1.4423  1.0961 -0.7207
19243TIP3    H279221   6.569   1.224  14.988  0.5378 -1.0584  0.4331
19244TIP3   OH279222   6.300   3.348  12.250 -0.2159 -0.2039 -0.6016
19244TIP3    H179223   6.320   3.368  12.342 -0.6441  0.5852 -0.6713
19244TIP3    H279224   6.290   3.253  12.249  0.6813 -0.3260 -0.0130
19245TIP3   OH279225   2.058   2.800   4.038 -0.2314  0.1451  0.2719
19245TIP3    H179226   1.965   2.800   4.016 -0.3491 -0.2794  0.7494
19245TIP3    H279227   2.065   2.739   4.112  0.3296  0.6691  0.6573
19246TIP3   OH279228   6.182   0.229   2.952  0.3353  0.0949  0.3162
19246TIP3    H179229   6.264   0.243   2.998  1.2207 -0.6055 -0.9714
19246TIP3    H279230   6.186   0.137   2.924 -0.1850  0.4617 -1.0479
19247TIP3   OH279231   5.525   4.867   5.036  0.0961  0.4357 -0.4930
19247TIP3    H179232   5.438   4.901   5.016  0.4235  1.4382 -0.2436
19247TIP3    H279233   5.584   4.940   5.021  0.8405 -0.0710 -0.1166
19248TIP3   OH279234   6.702   3.392   1.540  0.5370  0.2485 -0.0955
19248TIP3    H179235   6.795   3.373   1.531  0.7803  0.5939  1.3964
19248TIP3    H279236   6.689   3.405   1.634 -1.4479 -1.9765  0.0520
19249TIP3   OH279237   2.684   3.738   2.150 -0.0565 -0.5375 -0.5533
19249TIP3    H179238   2.677   3.645   2.169 -0.1440 -0.2971  0.7239
19249TIP3    H279239   2.604   3.776   2.188  0.6321  0.2187  0.1889
19250TIP3   OH279240   2.534   4.531  13.246  0.1864 -0.6487 -0.4915
19250TIP3    H179241   2.627   4.540  13.269 -0.3501 -0.5655  1.9293
19250TIP3    H279242   2.504   4.456  13.299 -1.5829  0.6393  0.4319
19251TIP3   OH279243   5.809   6.258  11.604 -0.3222 -0.3719  0.4039
19251TIP3    H179244   5.791   6.194  11.673 -1.0979  1.1527  1.6754
19251TIP3    H279245   5.724   6.299  11.586  0.1980  0.4963 -0.1740
19252TIP3   OH279246   2.617   0.313   5.962 -0.4044  0.3893 -0.2080
19252TIP3    H179247   2.541   0.317   5.904 -1.3223  0.5342  0.9524
19252TIP3    H279248   2.673   0.385   5.933 -0.7798  0.3820 -0.9786
19253TIP3   OH279249   4.928   2.038   4.684 -0.4405  0.1202  0.4560
19253TIP3    H179250   4.867   2.046   4.610  0.2289  0.8006 -0.0302
19253TIP3    H279251   4.957   1.947   4.680  0.4998  0.4516 -0.8666
19254TIP3   OH279252   2.430   5.759  11.999  0.2207  0.4435  0.0676
19254TIP3    H179253   2.449   5.667  11.979 -0.2326  0.5388 -0.8350
19254TIP3    H279254   2.510   5.806  11.976  1.1392  0.0857  2.2503
19255TIP3   OH279255   5.380   0.829   4.433 -0.5457  0.0945 -0.2233
19255TIP3    H179256   5.475   0.826   4.421 -0.4067  0.8107  0.6480
19255TIP3    H279257   5.352   0.909   4.388 -0.7074  0.0359 -0.2294
19256TIP3   OH279258   4.512   5.432  11.491  0.3261 -0.7502  0.0959
19256TIP3    H179259   4.549   5.517  11.465  0.0277 -0.2286  1.2951
19256TIP3    H279260   4.587   5.382  11.524  0.4477 -0.8245 -0.2931
19257TIP3   OH279261   0.675   6.404   4.161 -0.2278 -0.3656  0.6992
19257TIP3    H179262   0.770   6.396   4.172  0.0792 -0.5917 -1.5662
19257TIP3    H279263   0.639   6.333   4.213  1.0249 -1.7760 -0.2495
19258TIP3   OH279264   6.009   5.160   3.342 -0.4818 -0.6008 -0.2111
19258TIP3    H179265   5.976   5.089   3.287  0.6740 -1.3979  0.0844
19258TIP3    H279266   5.996   5.128   3.432 -0.4718 -0.2020 -0.0681
19259TIP3   OH279267   2.801   5.153   0.886  0.0373  0.2954 -0.0551
19259TIP3    H179268   2.746   5.121   0.958  0.0420 -0.2151 -0.2767
19259TIP3    H279269   2.890   5.125   0.910  0.0297  0.0675 -0.2877
19260TIP3   OH279270   4.202   5.681   3.366 -0.4946  0.2250 -0.0781
19260TIP3    H179271   4.148   5.720   3.298  0.0796 -0.7699 -1.1404
19260TIP3    H279272   4.275   5.640   3.319  0.3836  0.2331  1.1952
19261TIP3   OH279273   5.345   5.840   4.849 -0.1874  0.0654 -0.0468
19261TIP3    H179274   5.339   5.904   4.919  0.3989  1.3745 -1.1514
19261TIP3    H279275   5.255   5.807   4.840 -0.3260  0.0855  1.0938
19262TIP3   OH279276   1.082   2.463   3.342 -0.2008 -0.2386  0.0995
19262TIP3    H179277   1.126   2.485   3.424  1.3932  0.8155 -0.9905
19262TIP3    H279278   1.044   2.545   3.312  0.5589 -0.2679 -0.9847
19263TIP3   OH279279   4.397   3.239   3.570 -0.5175  0.4267 -0.0929
19263TIP3    H179280   4.380   3.184   3.493 -0.5751 -0.3563  0.4741
19263TIP3    H279281   4.492   3.249   3.572 -0.3819 -0.8730  0.6276
19264TIP3   OH279282   2.070   5.377   3.722 -0.5630 -0.0634  0.3750
19264TIP3    H179283   2.075   5.439   3.649 -0.3981 -0.2117  0.2590
19264TIP3    H279284   2.141   5.403   3.780 -1.5840  0.9791  1.2206
19265TIP3   OH279285   0.981   3.168   0.817  0.4237 -0.3656  0.2503
19265TIP3    H179286   1.026   3.130   0.893  0.5940  0.5282  0.6044
19265TIP3    H279287   1.051   3.191   0.756  0.6822  2.5765  1.4927
19266TIP3   OH279288   2.585   2.514  11.908 -0.0655 -0.1528  0.0969
19266TIP3    H179289   2.539   2.555  11.981  0.8738  2.0770 -0.4807
19266TIP3    H279290   2.523   2.516  11.836  0.6231  2.2936 -0.5104
19267TIP3   OH279291   3.902   0.553  14.856 -0.2815 -0.7013  0.1122
19267TIP3    H179292   3.952   0.528  14.779 -1.4513 -2.7420 -0.0741
19267TIP3    H279293   3.813   0.566  14.824 -0.3900  0.4435  0.8141
19268TIP3   OH279294   2.980   2.701  13.813 -0.6623  0.3980 -0.3095
19268TIP3    H179295   2.963   2.701  13.719  1.3023  1.2171 -0.6999
19268TIP3    H279296   3.074   2.716  13.821 -0.7137 -0.0728  1.7862
19269TIP3   OH279297   1.638   5.255   3.133  0.3183  0.2338 -0.0564
19269TIP3    H179298   1.705   5.277   3.068 -0.6082  0.7727 -0.8582
19269TIP3    H279299   1.666   5.301   3.213  1.4838 -0.4624 -0.0430
19270TIP3   OH279300   0.529   5.324  13.999  0.2841  0.1432 -0.1262
19270TIP3    H179301   0.435   5.331  14.016  0.5975 -0.0170  1.9071
19270TIP3    H279302   0.535   5.268  13.921 -1.3121  1.0974 -1.0008
19271TIP3   OH279303   2.152   6.236   1.814  0.2174 -0.3041 -0.0870
19271TIP3    H179304   2.096   6.166   1.847 -0.6432 -0.5422 -1.9548
19271TIP3    H279305   2.224   6.191   1.770  2.0691 -0.0058  2.4411
19272TIP3   OH279306   5.988   4.328   1.713 -0.3534  0.1946  0.1678
19272TIP3    H179307   5.989   4.240   1.674  0.6329  0.6629 -0.9256
19272TIP3    H279308   6.078   4.342   1.742 -0.7321  0.4649  1.2707
19273TIP3   OH279309   2.306   5.978  16.229  0.1250  0.1560 -0.0472
19273TIP3    H179310   2.277   5.889  16.249  0.5171 -0.1715 -0.9028
19273TIP3    H279311   2.226   6.025  16.205 -0.7270  1.0897  3.8338
19274TIP3   OH279312   0.634   5.657  10.767 -0.6657  0.0750 -0.9027
19274TIP3    H179313   0.708   5.649  10.707  0.9149  0.4597  0.8680
19274TIP3    H279314   0.657   5.599  10.840 -1.6507  0.9157  0.1050
19275TIP3   OH279315   0.293   5.936  14.417  0.4514  0.7446 -0.0478
19275TIP3    H179316   0.357   5.931  14.488  2.9946  0.3344 -2.2283
19275TIP3    H279317   0.342   5.912  14.338 -1.4390  3.9842 -2.4583
19276TIP3   OH279318   2.755   0.077  12.287 -0.1532 -0.5390 -0.2411
19276TIP3    H179319   2.733   0.170  12.288  2.1984  0.0896  1.0824
19276TIP3    H279320   2.757   0.054  12.194  2.8931  1.7854 -0.9214
19277TIP3   OH279321   3.514   6.288  15.244 -0.1560  0.0595 -0.0140
19277TIP3    H179322   3.475   6.367  15.280 -2.3171 -0.9831  0.1003
19277TIP3    H279323   3.459   6.217  15.277 -0.8054 -1.1576 -3.3270
19278TIP3   OH279324   5.783   5.427   0.926 -0.2873  0.2634  0.2604
19278TIP3    H179325   5.691   5.427   0.901 -0.1085  0.3155 -0.4167
19278TIP3    H279326   5.785   5.385   1.012 -0.9811  0.5623  0.4294
19279TIP3   OH279327   1.576   6.526  15.571  0.6690 -0.6168  0.0201
19279TIP3    H179328   1.557   6.586  15.642  0.8004 -0.3800 -0.1437
19279TIP3    H279329   1.632   6.459  15.609 -0.9119 -1.6361  0.6592
19280TIP3   OH279330   0.031   3.314   5.013 -0.1710  0.5225  0.2284
19280TIP3    H179331   0.107   3.257   5.025  0.1201  0.9466  0.4350
19280TIP3    H279332  -0.043   3.254   5.006  0.1265  0.1209  0.4829
19281TIP3   OH279333   0.944   2.328   2.930  0.0210 -0.0450  0.3558
19281TIP3    H179334   0.882   2.291   2.867  0.6310 -0.0034 -0.2883
19281TIP3    H279335   1.027   2.285   2.910 -0.3525 -2.3776  3.1597
19282TIP3   OH279336   3.749   6.702  12.537  0.1207 -0.2234 -0.7359
19282TIP3    H179337   3.805   6.662  12.604  0.3219  0.7245 -0.3138
19282TIP3    H279338   3.803   6.701  12.457 -0.8433 -3.2049 -1.4877
19283TIP3   OH279339   3.660   1.982   2.399  0.1965 -0.2547 -0.0283
19283TIP3    H179340   3.707   2.054   2.356  0.9420 -0.9502 -0.3899
19283TIP3    H279341   3.643   1.919   2.330 -2.5635  0.5727 -0.2197
19284TIP3   OH279342   2.180   5.866  11.337  0.0669 -0.0126  0.1761
19284TIP3    H179343   2.255   5.814  11.366  0.7264  0.1069 -1.2456
19284TIP3    H279344   2.114   5.802  11.311  0.6519 -0.1376 -1.0041
19285TIP3   OH279345   0.255   2.620  10.868 -0.1712 -0.2499  0.5208
19285TIP3    H179346   0.316   2.693  10.879  0.4142 -0.9546  2.4225
19285TIP3    H279347   0.307   2.551  10.827  0.1265 -0.5591  1.3773
19286TIP3   OH279348   5.556   5.588  13.867  0.1127  0.2688 -0.3382
19286TIP3    H179349   5.627   5.527  13.886  0.3948  0.4028 -0.9388
19286TIP3    H279350   5.529   5.567  13.778  0.1995  0.9916 -0.5488
19287TIP3   OH279351   5.081   0.650  13.540  0.0264  0.5740  0.1466
19287TIP3    H179352   5.030   0.574  13.567 -0.0737  0.8662  0.8259
19287TIP3    H279353   5.153   0.615  13.489 -0.8370  0.1511 -0.8021
19288TIP3   OH279354   2.921   0.794   6.105 -0.2889 -0.5089  0.5091
19288TIP3    H179355   3.001   0.797   6.052 -0.9279 -1.7150 -0.6023
19288TIP3    H279356   2.928   0.869   6.164 -0.1704  1.8442 -2.2419
19289TIP3   OH279357   3.450   5.257  14.922  0.1753  0.7123 -0.1048
19289TIP3    H179358   3.433   5.230  14.832  0.5836  1.4124 -0.4028
19289TIP3    H279359   3.510   5.192  14.957  0.7643  0.9500 -0.6513
19290TIP3   OH279360   3.358   0.380   0.623  0.6547  0.2358  0.6720
19290TIP3    H179361   3.292   0.317   0.595 -0.2040  0.4596  2.0803
19290TIP3    H279362   3.309   0.459   0.646  1.2631  0.1107  2.5955
19291TIP3   OH279363   4.633   2.076   2.047 -0.5077  0.6694  0.5308
19291TIP3    H179364   4.612   2.005   1.986 -0.6785 -0.5709  1.9882
19291TIP3    H279365   4.549   2.097   2.089 -0.1915  0.7118  1.1542
19292TIP3   OH279366   2.892   2.835   0.333 -0.5331 -0.0318  0.1970
19292TIP3    H179367   2.939   2.875   0.260 -0.7739  2.9267  1.5137
19292TIP3    H279368   2.807   2.810   0.296 -1.1699  2.6178 -0.3791
19293TIP3   OH279369   3.458   1.195   0.995  0.2926 -0.3091 -0.7663
19293TIP3    H179370   3.503   1.184   0.911 -0.3909  1.8110 -1.4939
19293TIP3    H279371   3.488   1.281   1.026 -1.1613 -0.0592  0.0342
19294TIP3   OH279372   4.716   1.444  11.928 -0.4007 -0.0892 -0.4956
19294TIP3    H179373   4.705   1.433  11.834 -1.1704  1.0975 -0.5715
19294TIP3    H279374   4.692   1.535  11.944 -2.4125 -0.8394  1.1507
19295TIP3   OH279375   2.648   1.613   2.949 -0.1924 -0.6233 -0.1051
19295TIP3    H179376   2.615   1.668   2.878  2.4224 -0.9835 -1.7117
19295TIP3    H279377   2.651   1.672   3.025 -1.0554  0.3576 -0.8028
19296TIP3   OH279378   6.344   2.533   3.183 -0.4444  0.0752  0.5290
19296TIP3    H179379   6.270   2.515   3.124  0.1873  0.3913 -0.3913
19296TIP3    H279380   6.404   2.460   3.168 -0.3714  0.0473  0.9548
19297TIP3   OH279381   4.892   2.766   1.781 -0.0785 -0.2184  0.3312
19297TIP3    H179382   4.951   2.797   1.712  1.0160  0.0732  1.3410
19297TIP3    H279383   4.823   2.719   1.736  0.4834  0.1720 -0.9698
19298TIP3   OH279384   2.512   4.389   2.163  0.0267 -0.2876  0.3057
19298TIP3    H179385   2.589   4.346   2.124  0.2883 -1.3426  1.8743
19298TIP3    H279386   2.549   4.448   2.229 -0.4873 -1.1826  1.4328
19299TIP3   OH279387   3.042   0.712   2.117  0.3768  0.4510  0.1352
19299TIP3    H179388   3.099   0.698   2.193  0.1670  0.2527  0.2588
19299TIP3    H279389   3.096   0.762   2.055  1.1088 -0.7879 -0.2629
19300TIP3   OH279390   5.959   6.457  16.894  0.3318  0.0152 -0.2567
19300TIP3    H179391   6.015   6.401  16.947  1.5485  0.5909 -0.8997
19300TIP3    H279392   5.956   6.414  16.808 -0.0067  0.1129 -0.2952
19301TIP3   OH279393   3.264   4.611  14.214  0.2018  0.3123 -0.7555
19301TIP3    H179394   3.172   4.635  14.226 -0.4072 -1.7286 -0.8737
19301TIP3    H279395   3.274   4.530  14.265  2.5130  1.5627  0.9664
19302TIP3   OH279396   0.035   1.423  11.044  0.4041  0.2097  0.6675
19302TIP3    H179397   0.006   1.439  11.134 -0.8666 -0.1589  0.3582
19302TIP3    H279398  -0.043   1.388  11.000  0.7952  1.0413 -0.7674
19303TIP3   OH279399   0.956   4.312  11.642 -0.0522  0.0688  0.0554
19303TIP3    H179400   0.861   4.308  11.635  0.0225 -0.4693 -0.9929
19303TIP3    H279401   0.987   4.254  11.572  1.0341 -0.5491  1.0007
19304TIP3   OH279402   3.682   0.610   1.731 -0.3832 -0.3065  0.4855
19304TIP3    H179403   3.728   0.670   1.789  0.3403  1.8402 -2.1247
19304TIP3    H279404   3.607   0.659   1.699  0.2579 -0.6975 -1.7799
19305TIP3   OH279405   6.077   0.243   6.127 -0.0397 -0.3187  0.0671
19305TIP3    H179406   6.052   0.186   6.200 -0.5943 -0.9245 -0.5783
19305TIP3    H279407   6.169   0.264   6.143 -0.8608  1.8858  2.4701
19306TIP3   OH279408   1.789   1.044   0.627 -0.5200  0.7291 -0.4884
19306TIP3    H179409   1.853   1.069   0.561 -1.3969 -0.1886 -1.7428
19306TIP3    H279410   1.704   1.061   0.585 -1.0986 -0.0474  0.3302
19307TIP3   OH279411   6.509   3.799   6.032  0.1356 -0.7479  0.0126
19307TIP3    H179412   6.419   3.787   6.003  0.3074 -1.3815 -0.2844
19307TIP3    H279413   6.528   3.720   6.083  1.0987 -1.4770 -1.4279
19308TIP3   OH279414   3.048   1.898   0.387  0.3213  0.7415 -1.1192
19308TIP3    H179415   2.979   1.832   0.393  0.9046  0.2434  0.7857
19308TIP3    H279416   3.120   1.854   0.342  0.5987  0.1536 -0.1209
19309TIP3   OH279417   0.692   0.689  17.203 -0.6738  0.6008 -0.3759
19309TIP3    H179418   0.733   0.767  17.166  0.7599 -0.1643 -0.4585
19309TIP3    H279419   0.629   0.723  17.266  0.3056  1.8106 -0.0061
19310TIP3   OH279420   2.366   1.084   1.488  0.1383 -0.4671  0.7357
19310TIP3    H179421   2.450   1.124   1.470  0.9365 -2.3556  0.0104
19310TIP3    H279422   2.302   1.141   1.444  1.2270 -0.1040 -0.4320
19311TIP3   OH279423   1.012   0.872  15.064 -0.0702 -0.4510  0.0108
19311TIP3    H179424   0.939   0.818  15.033 -1.2571 -0.1814  2.0996
19311TIP3    H279425   1.024   0.845  15.155  1.0282  1.0069  0.3392
19312TIP3   OH279426   4.200   5.428  13.615 -0.1576  0.1389  0.3307
19312TIP3    H179427   4.281   5.393  13.576 -1.1645 -1.5739 -0.3409
19312TIP3    H279428   4.145   5.451  13.540 -1.2491 -1.1013  0.7077
19313TIP3   OH279429   5.391   0.197   3.489 -0.1429 -0.2143  0.3197
19313TIP3    H179430   5.329   0.128   3.513  0.8698 -1.0666  0.5617
19313TIP3    H279431   5.392   0.255   3.565  0.0045 -0.6911  0.6929
19314TIP3   OH279432   4.406   6.143   6.668 -0.2255  0.1132  0.7263
19314TIP3    H179433   4.445   6.059   6.646 -1.1456  0.1689 -1.3669
19314TIP3    H279434   4.462   6.208   6.627  0.5574  0.5713  2.4486
19315TIP3   OH279435   2.818   5.968  11.101  0.3430  0.3911  0.2533
19315TIP3    H179436   2.868   5.918  11.166 -1.2163 -1.9348 -0.2168
19315TIP3    H279437   2.750   6.013  11.153  0.9020  0.9544  0.5195
19316TIP3   OH279438   3.590   6.165   0.078 -0.0691 -0.1302 -0.0345
19316TIP3    H179439   3.593   6.251   0.120 -1.2695 -0.3420  0.5171
19316TIP3    H279440   3.523   6.174   0.010 -0.3227 -0.6712  0.1393
19317TIP3   OH279441   6.315   3.653  11.933 -0.1416 -0.8214  0.2008
19317TIP3    H179442   6.254   3.655  12.007 -0.2588  0.2793  0.0858
19317TIP3    H279443   6.265   3.688  11.859 -0.0731 -2.0490 -0.4531
19318TIP3   OH279444   5.627   3.802  12.588  0.1311 -0.2525 -0.2911
19318TIP3    H179445   5.621   3.893  12.618 -0.3076 -0.1464 -0.6894
19318TIP3    H279446   5.616   3.807  12.493  1.9735 -0.5390 -0.5648
19319TIP3   OH279447   5.470   0.983   0.859  0.5877  0.5739  0.6922
19319TIP3    H179448   5.504   1.069   0.833  0.8623  0.1961 -0.2559
19319TIP3    H279449   5.375   0.991   0.852  0.6656  0.2542 -1.3192
19320TIP3   OH279450   6.174   1.839  14.128 -0.4697 -0.2063  0.2304
19320TIP3    H179451   6.160   1.913  14.188  1.4569  0.2765  0.1307
19320TIP3    H279452   6.168   1.762  14.184  2.1411  0.2745  1.3028
19321TIP3   OH279453   5.260   5.910   1.731 -0.3835 -0.3576 -0.3742
19321TIP3    H179454   5.215   5.838   1.688  1.6135 -1.8752 -0.0811
19321TIP3    H279455   5.244   5.986   1.675 -1.9026 -1.1806 -1.0983
19322TIP3   OH279456   3.442   2.223   1.089 -0.5231  0.0042 -0.2397
19322TIP3    H179457   3.347   2.206   1.084 -0.8750  0.9709  1.8801
19322TIP3    H279458   3.453   2.310   1.051 -0.4140 -0.2445 -0.7913
19323TIP3   OH279459   3.841   2.128   0.553 -0.4246 -0.3460  0.2538
19323TIP3    H179460   3.906   2.144   0.621 -2.1861 -1.3863  2.2994
19323TIP3    H279461   3.823   2.214   0.515  2.6238 -0.1249 -0.9425
19324TIP3   OH279462   2.126   1.893  12.389 -0.0160  0.0855 -0.0703
19324TIP3    H179463   2.185   1.918  12.460 -0.7884 -0.8222  0.9244
19324TIP3    H279464   2.100   1.976  12.350 -3.2533  1.1473  3.7075
19325TIP3   OH279465   2.183   0.625  12.258  0.6546 -0.2359 -0.1492
19325TIP3    H179466   2.233   0.609  12.177  1.6192  1.1077  0.1476
19325TIP3    H279467   2.249   0.636  12.326 -0.0058  1.4153  0.2962
19326TIP3   OH279468   0.540   0.512   1.199 -0.7514 -0.3199 -0.1850
19326TIP3    H179469   0.557   0.464   1.118  0.6286  0.6492 -0.5031
19326TIP3    H279470   0.598   0.472   1.264 -0.1909  0.3605 -0.2533
19327TIP3   OH279471   4.421   2.371   4.070  0.3739 -0.5577  0.3079
19327TIP3    H179472   4.433   2.277   4.082  1.0093 -0.6538 -0.8914
19327TIP3    H279473   4.454   2.410   4.152 -0.3798 -1.3880  1.0206
19328TIP3   OH279474   5.441   2.607  13.165 -0.0954 -0.1808  0.3047
19328TIP3    H179475   5.371   2.602  13.230 -0.5106  2.0895  0.1182
19328TIP3    H279476   5.514   2.647  13.211  0.1661 -0.0634 -0.2045
19329TIP3   OH279477   6.331   1.692  13.438  0.2787 -0.1469 -0.0650
19329TIP3    H179478   6.237   1.706  13.447  0.2684 -0.2865  0.0552
19329TIP3    H279479   6.367   1.714  13.523  0.2661 -0.8050  0.1183
19330TIP3   OH279480   6.236   5.455   5.666  0.5874  0.1297  0.4737
19330TIP3    H179481   6.167   5.504   5.710  0.7472 -2.3614  3.8358
19330TIP3    H279482   6.291   5.523   5.626 -1.9372  2.3275  0.4209
19331TIP3   OH279483   6.006   2.757   0.153  0.1965 -1.0006 -0.2799
19331TIP3    H179484   5.991   2.664   0.172  0.5666 -1.0963 -0.4489
19331TIP3    H279485   6.038   2.758   0.063 -0.8372 -0.6079 -0.6556
19332TIP3   OH279486   5.614   2.071  13.619 -0.1169  0.3383  0.6086
19332TIP3    H179487   5.530   2.025  13.608 -0.5486  0.9219  1.3392
19332TIP3    H279488   5.615   2.134  13.547 -1.2393  1.6642  1.6879
19333TIP3   OH279489   5.847   4.068   5.913  0.0354  0.0290  0.4418
19333TIP3    H179490   5.852   4.112   5.828  0.2972  0.3399  0.6147
19333TIP3    H279491   5.794   3.990   5.897  1.8978 -1.1041 -0.5056
19334TIP3   OH279492   2.639   3.101   5.639  0.1295 -0.3348  0.4740
19334TIP3    H179493   2.679   3.117   5.724 -1.0335 -0.1763  1.0098
19334TIP3    H279494   2.549   3.131   5.648 -0.3622 -1.4327 -0.4350
19335TIP3   OH279495   5.630   4.337  14.765 -0.0374 -0.5355 -0.0437
19335TIP3    H179496   5.614   4.244  14.785 -0.8276 -0.7601 -1.5785
19335TIP3    H279497   5.724   4.343  14.753 -0.1090 -1.4272 -1.2184
19336TIP3   OH279498   2.038   1.488   0.942  0.0930  0.1586  0.1757
19336TIP3    H179499   2.078   1.526   1.021  2.5952 -0.1162 -0.8625
19336TIP3    H279500   2.108   1.436   0.903 -1.6808 -1.2880 -1.2316
19337TIP3   OH279501   2.054   2.160   5.976 -0.5293 -0.2770  0.4818
19337TIP3    H179502   1.963   2.187   5.989 -0.8040 -0.8423 -0.1795
19337TIP3    H279503   2.091   2.156   6.064 -0.6976  1.4468  0.6576
19338TIP3   OH279504   0.163   2.878   5.977  0.1333  0.2450 -0.0037
19338TIP3    H179505   0.180   2.849   6.067 -2.3875 -1.8727 -0.0734
19338TIP3    H279506   0.239   2.848   5.927  0.1298 -1.4442  0.9252
19339TIP3   OH279507   4.202   2.992  13.912 -0.3029 -0.3412 -0.0372
19339TIP3    H179508   4.177   3.070  13.862 -0.9564 -0.3660  0.2349
19339TIP3    H279509   4.137   2.926  13.886 -0.8484 -0.2666  1.0698
19340TIP3   OH279510   2.012   3.383   0.060  0.3975 -0.5186  0.0049
19340TIP3    H179511   1.978   3.294   0.070  0.7880 -0.6687  0.0213
19340TIP3    H279512   2.027   3.413   0.150  1.3098 -0.8518 -0.0200
19341TIP3   OH279513   4.084   4.443   0.232  0.0938  0.7130  0.1864
19341TIP3    H179514   4.170   4.455   0.190 -0.4068  0.8841 -0.8149
19341TIP3    H279515   4.037   4.524   0.213 -0.1547  0.7885  1.0899
19342TIP3   OH279516   4.802   0.470   3.275 -0.1428 -0.1460 -0.2274
19342TIP3    H179517   4.817   0.552   3.323 -0.7232 -0.4269  0.4617
19342TIP3    H279518   4.727   0.488   3.219 -0.0853 -0.1121 -0.2923
19343TIP3   OH279519   3.992   6.398  12.976  0.3004  0.0744  0.6197
19343TIP3    H179520   3.980   6.397  12.881  0.1368 -0.5631  0.6482
19343TIP3    H279521   4.028   6.312  12.997 -0.7846 -0.2340  1.2799
19344TIP3   OH279522   2.375   3.890   2.946 -0.1115  0.3438  0.0402
19344TIP3    H179523   2.296   3.867   2.897 -0.0095  2.0186 -0.9825
19344TIP3    H279524   2.426   3.809   2.947 -2.3428 -1.1850  1.8561
19345TIP3   OH279525   6.000   1.364   0.618 -0.1039 -0.3148  0.1426
19345TIP3    H179526   5.916   1.377   0.574  0.0652 -0.7543 -0.3245
19345TIP3    H279527   5.995   1.275   0.652  0.8436 -1.0206 -1.4288
19346TIP3   OH279528   4.337   6.618  11.534  0.0487 -0.1786  0.6585
19346TIP3    H179529   4.411   6.587  11.586 -1.8254 -1.2380  2.8686
19346TIP3    H279530   4.270   6.643  11.598 -0.8875  2.5418 -1.2035
19347TIP3   OH279531   0.225   2.145   4.279  0.3005 -0.0995  0.5782
19347TIP3    H179532   0.284   2.172   4.209  0.0181 -0.1637  0.3149
19347TIP3    H279533   0.237   2.211   4.347 -2.6953  2.6038 -1.2765
19348TIP3   OH279534   2.217   6.085  10.906 -0.3219  0.8355 -0.1024
19348TIP3    H179535   2.310   6.068  10.893 -0.5627 -1.7436  0.9779
19348TIP3    H279536   2.205   6.083  11.001 -1.5986  0.3859 -0.2517
19349TIP3   OH279537   5.183   1.578  15.537 -0.2116 -0.2349 -0.0053
19349TIP3    H179538   5.125   1.524  15.485 -0.2899  0.3106 -0.4983
19349TIP3    H279539   5.195   1.530  15.619 -1.3418 -0.3555  0.0923
19350TIP3   OH279540   2.678   2.841  15.716 -0.3070 -0.5689  0.0472
19350TIP3    H179541   2.622   2.914  15.689 -0.4611 -0.6306  0.2013
19350TIP3    H279542   2.637   2.764  15.676  0.1950 -0.4988 -0.6225
19351TIP3   OH279543   4.147   4.724   2.311  0.4087  0.1883 -0.6027
19351TIP3    H179544   4.094   4.672   2.251  0.6595 -0.9460  0.1384
19351TIP3    H279545   4.203   4.777   2.254 -0.8824  0.7608 -1.3860
19352TIP3   OH279546   4.673   5.610   4.250 -0.5124  0.1545 -0.5276
19352TIP3    H179547   4.630   5.681   4.297 -0.8720 -1.4267  1.7324
19352TIP3    H279548   4.757   5.599   4.295 -0.8238 -1.3476 -0.2277
19353TIP3   OH279549   0.283   6.650   3.241  0.2353 -0.0595  0.9383
19353TIP3    H179550   0.191   6.633   3.224  0.0780  0.6107  1.0765
19353TIP3    H279551   0.330   6.581   3.195 -0.2353  0.8192 -0.9486
19354TIP3   OH279552   4.498   2.277  16.910  0.0288 -0.5867 -0.0067
19354TIP3    H179553   4.589   2.278  16.882  0.2472 -0.0130  0.6961
19354TIP3    H279554   4.481   2.187  16.938  1.0722 -0.1909  2.0491
19355TIP3   OH279555   5.940   4.923  15.764  0.4817 -0.2296 -0.4712
19355TIP3    H179556   5.881   4.969  15.823  1.9032 -0.9634  1.6570
19355TIP3    H279557   5.886   4.856  15.724 -1.1162  1.8245 -2.0120
19356TIP3   OH279558   0.659   0.861   6.554 -0.0059 -0.1067  0.0819
19356TIP3    H179559   0.596   0.879   6.624 -0.1216  0.6997 -0.2086
19356TIP3    H279560   0.606   0.865   6.474  0.3761  0.4299 -0.1514
19357TIP3   OH279561   3.096   6.135  13.037  0.4270 -0.0145 -0.3725
19357TIP3    H179562   3.039   6.070  12.995  0.3600  0.0282 -0.3480
19357TIP3    H279563   3.035   6.193  13.082  0.1455  2.2779 -3.3488
19358TIP3   OH279564   5.050   6.223   0.246 -0.1219 -0.3441 -0.1336
19358TIP3    H179565   5.020   6.209   0.336 -0.4594  2.5530  0.3201
19358TIP3    H279566   5.141   6.194   0.246  0.0049 -0.0265  1.2993
19359TIP3   OH279567   2.992   4.138   5.595  0.4071  0.5019 -0.2157
19359TIP3    H179568   2.951   4.146   5.681  0.2300  0.8499 -0.3323
19359TIP3    H279569   3.031   4.050   5.595 -1.8301 -0.5566 -0.7444
19360TIP3   OH279570   0.512   0.675  16.916 -0.5144 -0.5105  0.4703
19360TIP3    H179571   0.532   0.614  16.845 -1.5450 -2.0068  1.4126
19360TIP3    H279572   0.594   0.722  16.931 -0.4262  0.3073 -2.0999
19361TIP3   OH279573   0.742   6.642  13.227  0.4242 -0.4606  0.1122
19361TIP3    H179574   0.664   6.609  13.272 -0.1489  0.2904 -0.3102
19361TIP3    H279575   0.770   6.717  13.280  1.0622 -0.9162  0.4414
19362TIP3   OH279576   4.690   4.754  14.021  0.0110  0.6222 -0.2445
19362TIP3    H179577   4.733   4.704  14.090 -1.9869 -1.2326 -0.2600
19362TIP3    H279578   4.744   4.739  13.943 -0.5024 -1.5627 -0.2461
19363TIP3   OH279579   4.609   4.463  15.475 -0.6210  0.3634 -0.4391
19363TIP3    H179580   4.693   4.475  15.430 -0.8256  0.5010 -0.7964
19363TIP3    H279581   4.594   4.546  15.520 -1.0048  0.6886 -1.1419
19364TIP3   OH279582   0.362   1.855   3.099 -0.0268  0.0548 -0.1475
19364TIP3    H179583   0.365   1.783   3.036 -1.3811 -1.0771  1.0101
19364TIP3    H279584   0.453   1.880   3.112  0.4830 -1.4996 -0.5396
19365TIP3   OH279585   1.361   6.422  14.088  0.3536 -0.1224  0.5048
19365TIP3    H179586   1.340   6.504  14.043  3.1485  0.2334 -0.3711
19365TIP3    H279587   1.299   6.358  14.053 -0.8513  1.2722  0.0227
19366TIP3   OH279588   2.550   5.604  17.125 -0.1416  0.3409  0.1977
19366TIP3    H179589   2.622   5.636  17.071 -1.1605 -0.6644 -1.8689
19366TIP3    H279590   2.481   5.670  17.115 -0.6292 -0.2456 -0.4447
19367TIP3   OH279591   2.538   1.924   1.380 -0.8183 -0.0379 -0.1630
19367TIP3    H179592   2.541   1.902   1.287 -1.0072  2.2098 -0.7710
19367TIP3    H279593   2.471   1.866   1.416 -2.6342  0.7799 -2.0031
19368TIP3   OH279594   3.203   4.609  10.991 -0.6191  0.1421  0.3099
19368TIP3    H179595   3.278   4.570  11.036 -1.2800 -1.2185  0.2592
19368TIP3    H279596   3.150   4.646  11.061 -1.1188 -1.0527  0.5831
19369TIP3   OH279597   5.323   4.995  12.165  0.1415 -0.2079  0.1821
19369TIP3    H179598   5.418   4.995  12.177  0.2193 -0.0013 -0.3791
19369TIP3    H279599   5.304   5.080  12.126  0.1043 -1.2564 -2.3240
19370TIP3   OH279600   1.247   4.794   3.214  0.3614  0.0918  0.0418
19370TIP3    H179601   1.152   4.808   3.210  0.3006 -0.2427  0.3139
19370TIP3    H279602   1.277   4.855   3.281  0.4399  0.7073 -0.5362
19371TIP3   OH279603   5.571   5.996  16.854  0.3572  0.1762 -0.2298
19371TIP3    H179604   5.610   5.997  16.766  1.7740 -0.7269  0.3511
19371TIP3    H279605   5.500   6.060  16.849  0.3066  0.0412 -2.0687
19372TIP3   OH279606   4.430   5.598  16.396 -0.0326 -0.0349 -0.2414
19372TIP3    H179607   4.455   5.676  16.446  1.3729 -0.6877  0.1154
19372TIP3    H279608   4.406   5.533  16.462 -0.6751 -0.0943 -0.5212
19373TIP3   OH279609   3.347   6.393   5.379  0.1761 -0.0449  0.4028
19373TIP3    H179610   3.371   6.339   5.454  0.2306  1.4943  1.5319
19373TIP3    H279611   3.258   6.423   5.398  1.0268  2.2665  1.0688
19374TIP3   OH279612   4.255   2.928   4.887 -0.1004 -0.0104 -0.0998
19374TIP3    H179613   4.222   3.005   4.841 -0.7839  0.7338  1.5526
19374TIP3    H279614   4.324   2.894   4.830 -1.5558  0.2455 -2.1387
19375TIP3   OH279615   5.811   6.814  16.214  0.1437 -0.1665  0.1984
19375TIP3    H179616   5.845   6.785  16.130 -0.4970 -1.9677  0.5149
19375TIP3    H279617   5.884   6.860  16.256  0.5935  0.3710 -1.1365
19376TIP3   OH279618   3.557   0.621  12.903 -0.2718  0.2391 -0.1187
19376TIP3    H179619   3.468   0.648  12.927 -0.6577 -1.1766  0.1229
19376TIP3    H279620   3.551   0.603  12.809 -0.0143  0.9481 -0.2791
19377TIP3   OH279621   0.237   3.804   3.329 -0.1690  0.1446 -0.1336
19377TIP3    H179622   0.180   3.874   3.359  0.6028  0.1812  1.3429
19377TIP3    H279623   0.249   3.748   3.406  0.4175 -0.7874 -0.8778
19378TIP3   OH279624   6.564   5.632   0.840 -0.0693  0.1342 -0.1504
19378TIP3    H179625   6.499   5.690   0.880 -0.7915 -0.4668 -0.4212
19378TIP3    H279626   6.608   5.686   0.774 -0.1243  0.6173  0.2041
19379TIP3   OH279627   1.669   5.843   6.487 -0.1069  0.0180 -0.4437
19379TIP3    H179628   1.728   5.874   6.418  0.7869  0.3971  0.4702
19379TIP3    H279629   1.707   5.760   6.516  1.8432  1.6965  2.2688
19380TIP3   OH279630   5.549   1.040   4.340 -0.6500  0.3713  0.3471
19380TIP3    H179631   5.611   0.976   4.373 -0.9785 -0.0511  0.1591
19380TIP3    H279632   5.599   1.121   4.333 -0.2372  0.1415  0.6057
19381TIP3   OH279633   2.060   0.864  12.830 -0.1177  0.0986  0.2963
19381TIP3    H179634   2.103   0.878  12.745 -1.2130 -0.7073 -0.4106
19381TIP3    H279635   2.098   0.783  12.863 -0.2691 -0.0147  0.1950
19382TIP3   OH279636   6.449   3.135  14.682 -0.0553  0.1555  0.3586
19382TIP3    H179637   6.377   3.198  14.690  0.3965  1.1683 -2.4465
19382TIP3    H279638   6.516   3.181  14.633  1.7787 -1.4154  1.2381
19383TIP3   OH279639   1.734   3.569   4.447  0.2474  0.2277  0.0417
19383TIP3    H179640   1.716   3.653   4.488  0.2260  0.4985 -0.5158
19383TIP3    H279641   1.666   3.510   4.480 -0.6717  0.8183 -0.7508
19384TIP3   OH279642   6.640   6.264  16.646 -0.2574  0.0384  0.5236
19384TIP3    H179643   6.603   6.180  16.671  0.2390 -0.9406 -1.7402
19384TIP3    H279644   6.734   6.254  16.662 -0.0973 -0.1571 -0.4584
19385TIP3   OH279645   6.451   6.309   2.576 -0.4821  0.4871 -0.8853
19385TIP3    H179646   6.442   6.301   2.671  0.0714 -0.2920 -0.8967
19385TIP3    H279647   6.384   6.373   2.551 -0.9929  0.2900 -0.0405
19386TIP3   OH279648   4.449   5.104   3.807  0.3918 -0.0659 -0.4018
19386TIP3    H179649   4.358   5.134   3.808  0.6132  0.6051  0.2875
19386TIP3    H279650   4.451   5.030   3.867  0.7871  1.4575  1.5587
19387TIP3   OH279651   4.036   2.113   0.293 -0.0269 -0.6447  0.1515
19387TIP3    H179652   3.943   2.135   0.302 -0.0991 -1.1884  0.8415
19387TIP3    H279653   4.066   2.166   0.219 -1.1685 -1.3598 -0.8606
19388TIP3   OH279654   1.870   1.432  13.035  0.0015 -0.8668  0.0198
19388TIP3    H179655   1.807   1.489  13.079  0.9174 -0.6821  1.1376
19388TIP3    H279656   1.821   1.352  13.017 -1.1217  0.0031 -0.9878
19389TIP3   OH279657   4.279   6.576  13.497  0.5744 -0.1464  0.0292
19389TIP3    H179658   4.249   6.511  13.560 -0.7265 -0.4114 -0.8253
19389TIP3    H279659   4.253   6.660  13.536 -0.3690 -0.3166 -0.2004
19390TIP3   OH279660   2.451   0.131  11.179 -0.0665  0.1709  0.2168
19390TIP3    H179661   2.511   0.056  11.177  0.2689  0.4305  0.5736
19390TIP3    H279662   2.501   0.204  11.143  0.2071  0.6498  1.5174
19391TIP3   OH279663   5.079   0.875   2.125  0.2884 -0.7152 -0.2548
19391TIP3    H179664   5.115   0.962   2.109  0.2495 -0.8094 -0.8878
19391TIP3    H279665   5.013   0.888   2.193  1.4245 -0.5210  0.8225
19392TIP3   OH279666   6.348   5.593  14.872  0.3394  0.3119  0.0508
19392TIP3    H179667   6.407   5.523  14.845  0.7880  0.7561 -0.1327
19392TIP3    H279668   6.304   5.558  14.950 -0.0979 -0.5125 -0.5457
19393TIP3   OH279669   1.721   2.301   2.305  0.8189 -0.4204 -0.2339
19393TIP3    H179670   1.731   2.394   2.287 -1.0493 -0.1344  0.0435
19393TIP3    H279671   1.715   2.260   2.219  0.2206 -0.1107 -0.3361
19394TIP3   OH279672   1.554   2.245  11.957 -0.6614 -0.0640  0.4459
19394TIP3    H179673   1.645   2.244  11.987 -0.7277  0.7527  0.6961
19394TIP3    H279674   1.534   2.338  11.942 -1.3044 -0.2747 -0.0659
19395TIP3   OH279675   1.419   0.422  14.203 -0.1061 -0.5567  0.3697
19395TIP3    H179676   1.338   0.402  14.155 -0.3477 -0.5447  0.7707
19395TIP3    H279677   1.395   0.413  14.295  1.0223 -3.1118  0.4899
19396TIP3   OH279678   1.634   2.192  11.694  0.1678 -0.0622  0.1217
19396TIP3    H179679   1.624   2.215  11.786  0.1226  0.9752 -0.1283
19396TIP3    H279680   1.728   2.199  11.678  0.9209 -4.6004  1.1482
19397TIP3   OH279681   6.555   0.348  12.236  0.0207 -0.1655 -0.0663
19397TIP3    H179682   6.550   0.439  12.208  0.0324 -0.1523 -0.0259
19397TIP3    H279683   6.476   0.307  12.200 -1.2394  0.4014  1.8674
19398TIP3   OH279684   0.069   4.856   4.095 -0.0670 -0.1823 -0.0195
19398TIP3    H179685   0.144   4.806   4.126  1.8768  1.2710 -2.0752
19398TIP3    H279686   0.098   4.897   4.014 -2.3135  2.3421  0.2813
19399TIP3   OH279687   2.411   1.155   3.291  0.6831 -0.2214  0.1522
19399TIP3    H179688   2.473   1.227   3.274  1.2960 -0.2814  1.9061
19399TIP3    H279689   2.412   1.145   3.386 -0.2672 -1.8036  0.0296
19400TIP3   OH279690   5.601   0.645  11.729 -0.0554 -0.1635 -0.5772
19400TIP3    H179691   5.513   0.613  11.749  0.8794 -2.7771 -0.2310
19400TIP3    H279692   5.616   0.618  11.638  0.6365 -0.3623 -0.4078
19401TIP3   OH279693   2.620   2.827   1.866  0.3753  0.8799 -0.0494
19401TIP3    H179694   2.533   2.801   1.896 -0.3224  1.6132 -1.3757
19401TIP3    H279695   2.606   2.865   1.780  2.1265  0.2243 -0.6646
19402TIP3   OH279696   1.909   0.144   3.272  0.1336 -0.0679 -0.3270
19402TIP3    H179697   1.949   0.231   3.275  1.1812 -0.5674  0.6373
19402TIP3    H279698   1.968   0.088   3.321 -1.2981 -1.0358  0.3611
19403TIP3   OH279699   2.392   3.722  15.970  0.8478  0.1745 -0.2369
19403TIP3    H179700   2.458   3.752  15.908  0.8906  0.9861  0.1922
19403TIP3    H279701   2.330   3.672  15.917  2.0461 -1.0379 -0.5723
19404TIP3   OH279702   3.315   4.267  12.979 -0.3674  0.2092 -0.0557
19404TIP3    H179703   3.333   4.343  12.924  0.5349 -0.2117 -0.3716
19404TIP3    H279704   3.228   4.237  12.953 -0.7236  1.1128  0.0642
19405TIP3   OH279705   2.843   2.665   5.305  0.0224  0.1191  0.0828
19405TIP3    H179706   2.888   2.651   5.388 -0.8212 -1.5708  0.2842
19405TIP3    H279707   2.888   2.608   5.243 -2.8793 -3.1689  0.7050
19406TIP3   OH279708   1.535   2.525  16.646 -0.1798  0.2521  0.1431
19406TIP3    H179709   1.622   2.552  16.616 -0.6569  1.6358 -0.0427
19406TIP3    H279710   1.489   2.502  16.565 -0.4143  0.8256  0.1106
19407TIP3   OH279711   3.617   3.837   3.742 -0.2374 -0.2204  0.2856
19407TIP3    H179712   3.636   3.778   3.814 -0.5536  0.1209  0.6596
19407TIP3    H279713   3.572   3.911   3.783  0.2654  0.3430 -0.1479
19408TIP3   OH279714   0.656   4.767  16.146 -0.6516  0.4701 -0.6608
19408TIP3    H179715   0.683   4.772  16.054 -0.3476  0.6342 -0.5646
19408TIP3    H279716   0.561   4.770  16.143 -0.6242  1.2170 -0.9337
19409TIP3   OH279717   0.760   0.847  14.887 -0.1907  0.7272  0.1244
19409TIP3    H179718   0.850   0.859  14.855 -0.5989  0.4429 -1.1896
19409TIP3    H279719   0.755   0.755  14.910  0.0617  0.9024  0.9210
19410TIP3   OH279720   1.230   5.585   0.561 -0.0433 -0.2634  0.4669
19410TIP3    H179721   1.185   5.550   0.484  0.6599 -0.5793  0.1906
19410TIP3    H279722   1.316   5.612   0.528  0.3337 -0.5733  1.1823
19411TIP3   OH279723   4.424   4.647   2.920  0.2496  0.2602  0.4278
19411TIP3    H179724   4.412   4.622   2.828  0.6275  3.2862 -0.5510
19411TIP3    H279725   4.335   4.656   2.955  0.0922  0.0703  0.0774
19412TIP3   OH279726   5.476   2.307   3.732  0.3649  1.0105 -0.0405
19412TIP3    H179727   5.488   2.340   3.822  0.3755  2.1498 -0.4465
19412TIP3    H279728   5.545   2.350   3.682  0.5680  0.1153 -0.5379
19413TIP3   OH279729   3.214   5.274   0.435  0.2666  0.5301 -0.8436
19413TIP3    H179730   3.224   5.367   0.412  1.9597  0.5084 -0.3778
19413TIP3    H279731   3.190   5.231   0.353 -2.0942  1.5625 -0.7503
19414TIP3   OH279732   4.907   3.362   3.403 -0.2599 -0.1742 -0.2589
19414TIP3    H179733   4.832   3.421   3.397 -0.0716 -0.0118 -1.0537
19414TIP3    H279734   4.875   3.279   3.369 -0.5833 -0.6044  1.0453
19415TIP3   OH279735   0.827   4.796  12.623  0.0910  0.0624  0.6050
19415TIP3    H179736   0.873   4.775  12.704  0.4307 -0.7668  0.2176
19415TIP3    H279737   0.858   4.730  12.561 -0.7389  0.2110  0.0133
19416TIP3   OH279738   3.927   6.539   5.853  0.1749  0.0740 -0.2742
19416TIP3    H179739   3.959   6.504   5.770  2.5113 -2.3662  1.5221
19416TIP3    H279740   4.006   6.563   5.901 -1.1768  4.0723  0.3339
19417TIP3   OH279741   2.976   1.355  13.643 -0.4629 -0.3812  0.7854
19417TIP3    H179742   2.945   1.266  13.631  1.7063 -1.0947  0.0086
19417TIP3    H279743   3.040   1.368  13.573  1.6007  0.6426  2.7058
19418TIP3   OH279744   1.804   5.487   1.562  0.2851  0.0756  0.0355
19418TIP3    H179745   1.765   5.429   1.627  0.5496  0.1161  0.2351
19418TIP3    H279746   1.812   5.572   1.607 -2.9702  1.1727 -1.2250
19419TIP3   OH279747   4.104   3.657   0.480  0.2061 -0.2181  0.3857
19419TIP3    H179748   4.035   3.703   0.433 -0.1227 -1.1887 -0.1131
19419TIP3    H279749   4.060   3.612   0.551  0.3094 -0.8448  0.0630
19420TIP3   OH279750   3.079   2.806   5.529  0.0190 -0.6113 -0.4769
19420TIP3    H179751   3.171   2.779   5.537  0.2837 -0.2295 -1.9715
19420TIP3    H279752   3.077   2.863   5.452 -1.3652 -0.0839 -0.0908
19421TIP3   OH279753   3.957   0.619   1.584 -0.2021 -0.7459 -0.2495
19421TIP3    H179754   3.877   0.640   1.633  0.1227  0.2570 -0.1210
19421TIP3    H279755   4.001   0.703   1.574 -0.2672 -0.8983 -2.2877
19422TIP3   OH279756   2.520   1.438   4.957  0.0044 -0.4706  0.0329
19422TIP3    H179757   2.492   1.347   4.967 -0.0490 -0.3482  1.1991
19422TIP3    H279758   2.608   1.440   4.994 -1.2009  0.5632  3.2454
19423TIP3   OH279759   6.528   5.227   0.496 -0.7450 -0.2178  0.0222
19423TIP3    H179760   6.533   5.197   0.586 -2.0985  0.7053  0.4350
19423TIP3    H279761   6.609   5.276   0.482 -0.5061 -0.4155  0.7056
19424TIP3   OH279762   0.682   4.023  13.720 -0.0793  0.2692 -0.1613
19424TIP3    H179763   0.616   4.077  13.676  0.3475  0.7010 -0.2784
19424TIP3    H279764   0.736   4.086  13.768 -0.5804 -0.2012  1.0505
19425TIP3   OH279765   5.069   4.349  16.388  0.7054 -0.3228 -0.2310
19425TIP3    H179766   5.004   4.310  16.446  1.1140 -0.8338 -0.1023
19425TIP3    H279767   5.140   4.376  16.447  0.7471 -0.0653 -0.4006
19426TIP3   OH279768   2.005   6.264  12.418  0.1484 -0.4688 -0.1491
19426TIP3    H179769   2.061   6.341  12.425  0.0136 -0.3541 -0.3345
19426TIP3    H279770   2.065   6.190  12.429  0.2387 -0.3352  0.2899
19427TIP3   OH279771   3.230   0.495   4.485  0.1860  0.2240  0.6095
19427TIP3    H179772   3.178   0.416   4.467 -0.3397  0.6141  0.3765
19427TIP3    H279773   3.313   0.480   4.441 -0.1470  0.0714  0.0220
19428TIP3   OH279774   1.710   4.524  11.116  0.0257  0.0599  0.1881
19428TIP3    H179775   1.735   4.533  11.208 -1.1528 -0.5480  0.5861
19428TIP3    H279776   1.682   4.611  11.089  1.2561  0.4519  0.1136
19429TIP3   OH279777   2.237   5.022   0.476 -0.2071 -0.4664 -0.0449
19429TIP3    H179778   2.195   4.969   0.543  0.8782 -0.7440  0.4481
19429TIP3    H279779   2.300   5.077   0.524  0.8257 -0.9066 -0.8407
19430TIP3   OH279780   5.619   3.044  16.651  0.0018  0.6030 -0.0895
19430TIP3    H179781   5.635   3.138  16.645 -3.0595  1.1331 -1.9556
19430TIP3    H279782   5.664   3.007  16.575 -0.1369  0.8009 -0.2682
19431TIP3   OH279783   5.029   6.788  11.798 -0.5087  0.4580 -0.4366
19431TIP3    H179784   5.067   6.735  11.727 -0.5023 -0.2811  0.1094
19431TIP3    H279785   4.987   6.861  11.753  0.3488  0.5368 -1.1441
19432TIP3   OH279786   4.505   4.527   1.641 -0.0936  0.1587 -0.0116
19432TIP3    H179787   4.597   4.501   1.633 -0.0326  0.8247 -2.5407
19432TIP3    H279788   4.509   4.621   1.659 -0.3137 -0.0233  1.0646
19433TIP3   OH279789   0.379   2.462  15.929  0.4161  0.1492  0.0805
19433TIP3    H179790   0.326   2.533  15.965  0.3802  0.6439 -0.9116
19433TIP3    H279791   0.387   2.399  16.001  0.3342  1.0878  0.9391
19434TIP3   OH279792   4.693   1.260  16.974 -0.3204  0.4830 -0.3268
19434TIP3    H179793   4.658   1.274  17.063 -0.4925  1.3988 -0.5282
19434TIP3    H279794   4.692   1.165  16.963 -1.3214  0.4091  0.2476
19435TIP3   OH279795   4.473   3.367   4.060  0.0521 -0.5849 -0.3368
19435TIP3    H179796   4.381   3.377   4.034  0.5351  0.1129 -1.8384
19435TIP3    H279797   4.505   3.294   4.008  0.7790  0.2129 -1.0279
19436TIP3   OH279798   0.865   5.264   0.403 -0.4806  0.3347  0.0940
19436TIP3    H179799   0.870   5.203   0.477 -0.6119  0.9868  0.6526
19436TIP3    H279800   0.910   5.219   0.332  0.1108 -0.0957  0.7227
19437TIP3   OH279801   0.400   2.377  13.519  0.0816 -0.4933 -0.4813
19437TIP3    H179802   0.378   2.382  13.612  1.0964 -0.6610 -0.2242
19437TIP3    H279803   0.435   2.463  13.497 -0.1319 -0.4627 -0.6992
19438TIP3   OH279804   6.309   0.795   1.512  0.4185 -0.1590  0.5749
19438TIP3    H179805   6.338   0.790   1.421  2.2162 -2.0495  1.1490
19438TIP3    H279806   6.345   0.877   1.545 -0.1786  0.4953 -0.3755
19439TIP3   OH279807   4.980   3.765  13.739  0.5558  0.0506  0.2542
19439TIP3    H179808   4.995   3.726  13.653  1.9541  1.0121  0.0154
19439TIP3    H279809   4.925   3.702  13.785 -0.9586 -0.0784 -1.6264
19440TIP3   OH279810   2.175   4.161   1.802  0.0376 -0.0632 -0.1240
19440TIP3    H179811   2.255   4.168   1.750 -1.1346  0.3149 -1.9408
19440TIP3    H279812   2.206   4.163   1.893  1.9067  2.5699 -0.6999
19441TIP3   OH279813   6.280   4.357  14.975 -0.6634 -0.5958 -0.2006
19441TIP3    H179814   6.240   4.278  15.013 -1.6090 -0.0936 -0.1305
19441TIP3    H279815   6.372   4.333  14.962 -0.8141 -1.5221  0.3451
19442TIP3   OH279816   5.856   2.056   0.893  0.1458 -0.6147  0.1723
19442TIP3    H179817   5.796   2.122   0.928  1.9766  0.5779  1.2046
19442TIP3    H279818   5.891   2.012   0.970  0.0897 -1.8119 -0.4508
19443TIP3   OH279819   2.020   4.925  16.739 -0.6786  0.0348  0.0021
19443TIP3    H179820   1.949   4.972  16.694 -1.2755 -0.2594  0.6266
19443TIP3    H279821   1.999   4.934  16.832  0.2306  0.1359  0.2054
19444TIP3   OH279822   0.415   2.663  13.460  0.0350  0.1491 -0.2226
19444TIP3    H179823   0.375   2.693  13.542  0.0268  0.3757 -0.3080
19444TIP3    H279824   0.493   2.719  13.450 -1.6844  2.4058 -2.0240
19445TIP3   OH279825   1.396   0.611   5.838  0.8859  0.2225 -0.1084
19445TIP3    H179826   1.315   0.575   5.873  1.7744 -0.8155  0.9781
19445TIP3    H279827   1.452   0.624   5.914  0.4275  4.7352 -0.3108
19446TIP3   OH279828   6.536   0.756   2.872 -0.0945  0.5527 -0.0745
19446TIP3    H179829   6.538   0.809   2.952 -0.3951 -1.9406  1.7443
19446TIP3    H279830   6.578   0.674   2.898 -1.5068 -0.8820 -2.0437
19447TIP3   OH279831   3.380   3.526  16.363  0.0173  0.0127  0.2814
19447TIP3    H179832   3.445   3.487  16.304 -1.3222  0.6039 -1.6772
19447TIP3    H279833   3.296   3.493  16.331 -0.9148  2.0322  0.5149
19448TIP3   OH279834   0.159   6.737   4.869 -0.3329 -0.0336  0.0268
19448TIP3    H179835   0.094   6.666   4.866  1.2784 -1.6315 -3.0837
19448TIP3    H279836   0.108   6.817   4.862 -2.0834 -1.2016 -1.7940
19449TIP3   OH279837   2.385   5.940  14.396  0.3331  0.4654  0.3797
19449TIP3    H179838   2.344   5.923  14.482 -0.4404  0.4336  0.0162
19449TIP3    H279839   2.430   6.024  14.408  0.9430  0.0548  1.0604
19450TIP3   OH279840   1.545   2.471  11.555 -0.2212  0.0935  0.5267
19450TIP3    H179841   1.495   2.526  11.616  1.8011 -0.7115  3.0942
19450TIP3    H279842   1.479   2.417  11.512 -1.7402  0.4139  2.3184
19451TIP3   OH279843   6.235   2.221  14.352 -0.3827  0.0927 -0.4003
19451TIP3    H179844   6.221   2.227  14.446 -1.0590 -0.3118 -0.4740
19451TIP3    H279845   6.180   2.148  14.324 -1.5176  1.2970 -1.3835
19452TIP3   OH279846   5.245   1.335  11.896  1.0656 -0.3926  0.4770
19452TIP3    H179847   5.309   1.321  11.965 -0.2724 -3.6341  1.2494
19452TIP3    H279848   5.289   1.306  11.816  0.9668 -1.6012  0.8386
19453TIP3   OH279849   1.362   6.614  14.454 -0.1084  0.1490  0.1700
19453TIP3    H179850   1.326   6.654  14.374  1.2180 -0.3444 -0.7119
19453TIP3    H279851   1.287   6.609  14.514 -1.0573  0.8699 -0.9034
19454TIP3   OH279852   2.232   3.688   5.799 -0.3967 -0.2930 -0.0772
19454TIP3    H179853   2.269   3.675   5.886 -0.4661 -0.8656 -0.1280
19454TIP3    H279854   2.145   3.726   5.815 -0.2092  0.0718  0.0798
19455TIP3   OH279855   2.773   0.807   5.818  0.1053 -0.1191  0.1251
19455TIP3    H179856   2.695   0.838   5.772 -0.8575 -2.4943 -0.0186
19455TIP3    H279857   2.791   0.874   5.884 -1.1165  1.2339 -0.8639
19456TIP3   OH279858   2.744   6.748   5.042 -0.6479  0.2906 -0.6420
19456TIP3    H179859   2.681   6.750   5.114 -1.5833 -1.3739 -1.3640
19456TIP3    H279860   2.789   6.832   5.047 -0.8298  0.3236  1.7517
19457TIP3   OH279861   1.759   0.157   2.132 -0.0503 -0.1085  0.8214
19457TIP3    H179862   1.825   0.183   2.197 -1.3903  0.9667  1.8259
19457TIP3    H279863   1.786   0.202   2.052  0.7210 -0.1114  1.0681
19458TIP3   OH279864   3.915   4.893   2.070  0.3521  0.5687  0.2594
19458TIP3    H179865   3.906   4.803   2.100  2.2381 -0.4099 -1.8594
19458TIP3    H279866   3.881   4.946   2.142  0.5973 -1.7649  2.1911
19459TIP3   OH279867   4.713   6.198  14.919 -0.4134 -0.0945  0.0011
19459TIP3    H179868   4.748   6.233  14.837 -1.6974 -0.6508 -0.8138
19459TIP3    H279869   4.756   6.113  14.929 -2.5338 -1.4972 -1.8159
19460TIP3   OH279870   1.970   2.215   4.353  0.3388  0.1591 -0.3876
19460TIP3    H179871   2.003   2.203   4.264  0.4835 -0.7361 -0.2175
19460TIP3    H279872   1.954   2.310   4.360  1.9769  0.4960 -0.7872
19461TIP3   OH279873   1.900   0.463  15.080 -0.5271  0.2497  0.1965
19461TIP3    H179874   1.822   0.462  15.136 -0.7240 -1.2487 -0.0777
19461TIP3    H279875   1.865   0.456  14.991 -0.0603 -0.9946  0.1039
19462TIP3   OH279876   1.875   4.105   3.047 -0.0943 -0.3228 -0.3262
19462TIP3    H179877   1.817   4.033   3.021  0.3931 -0.6712 -0.4795
19462TIP3    H279878   1.926   4.070   3.120  1.0606 -0.6093 -1.2326
19463TIP3   OH279879   2.426   0.258   6.776  0.3927  0.4394  0.2720
19463TIP3    H179880   2.487   0.323   6.809  0.3518 -0.1221  1.5245
19463TIP3    H279881   2.463   0.174   6.804  0.1486 -0.0503 -0.8152
19464TIP3   OH279882   4.888   0.413  10.636 -0.2906  0.1672  0.1677
19464TIP3    H179883   4.955   0.350  10.662 -0.5031 -0.4315 -0.7159
19464TIP3    H279884   4.920   0.450  10.553  1.6612  3.9210  2.2888
19465TIP3   OH279885   6.154   4.258   3.484  0.1003  0.0703 -0.0201
19465TIP3    H179886   6.140   4.163   3.481  2.0776 -0.2515 -0.4780
19465TIP3    H279887   6.248   4.269   3.468  0.1829  2.0289  1.4480
19466TIP3   OH279888   3.440   3.449   1.372  0.1800 -0.4757  0.4045
19466TIP3    H179889   3.388   3.403   1.307 -0.6065  0.2537  0.5044
19466TIP3    H279890   3.529   3.451   1.336 -0.3392  0.3343 -0.8772
19467TIP3   OH279891   2.517   3.284   1.475 -0.0780  0.0738  0.4182
19467TIP3    H179892   2.544   3.215   1.415  1.4962  1.2488 -0.3324
19467TIP3    H279893   2.599   3.311   1.518 -0.5895  1.5947  0.5098
19468TIP3   OH279894   0.849   0.017   5.069 -0.1622  0.4063 -0.3464
19468TIP3    H179895   0.857  -0.077   5.053 -1.8433  0.1554 -0.0035
19468TIP3    H279896   0.890   0.058   4.994  1.8073 -0.5660  0.1354
19469TIP3   OH279897   5.518   3.080  10.662  0.4050  0.2964 -0.0010
19469TIP3    H179898   5.609   3.101  10.684  0.4607 -1.8169  2.2095
19469TIP3    H279899   5.525   3.014  10.594  0.5207  0.3547 -0.0463
19470TIP3   OH279900   0.717   5.498  10.971 -0.4310 -0.3893 -0.0562
19470TIP3    H179901   0.712   5.475  11.063 -2.2729 -0.3175 -0.0912
19470TIP3    H279902   0.808   5.482  10.946  0.5396  1.1694  2.1497
19471TIP3   OH279903   0.580   2.634  14.435 -0.0620  0.1774  0.0929
19471TIP3    H179904   0.594   2.578  14.358  0.1622 -0.2517  0.4371
19471TIP3    H279905   0.642   2.600  14.499  1.8148  2.3322 -0.4568
19472TIP3   OH279906   2.861   1.503  14.471 -0.7736 -0.5622  0.4208
19472TIP3    H179907   2.806   1.474  14.544 -1.6656 -0.5186 -0.2063
19472TIP3    H279908   2.813   1.475  14.393  0.5840 -1.3603 -0.1467
19473TIP3   OH279909   0.397   1.558   0.291  0.0629 -0.1433 -0.4711
19473TIP3    H179910   0.348   1.484   0.327 -0.4630 -0.2679 -1.4290
19473TIP3    H279911   0.399   1.622   0.363 -2.1218  0.1511 -0.6125
19474TIP3   OH279912   1.919   0.414   0.970  0.2770  0.1838 -0.2018
19474TIP3    H179913   1.934   0.339   0.912 -0.6964  0.6338 -1.0718
19474TIP3    H279914   1.996   0.470   0.958  0.2625  0.0863 -0.7724
19475TIP3   OH279915   0.647   2.369  12.976  0.7216  0.5912  0.1028
19475TIP3    H179916   0.658   2.303  12.908 -0.5044  0.5900 -0.1190
19475TIP3    H279917   0.558   2.402  12.963  1.7456  3.3698 -0.7629
19476TIP3   OH279918   6.175   1.018  14.736 -0.1709  0.6306  0.3210
19476TIP3    H179919   6.105   1.077  14.764 -0.3287  1.9359 -2.4758
19476TIP3    H279920   6.131   0.952  14.684  0.5068  0.6725 -0.3269
19477TIP3   OH279921   1.986   3.491   0.329 -0.3513 -0.8199  0.1730
19477TIP3    H179922   1.995   3.419   0.392  0.1540 -0.3703  0.6268
19477TIP3    H279923   1.905   3.535   0.354 -0.5537 -1.1048  0.0237
19478TIP3   OH279924   5.809   4.415  12.454  0.1291  0.5282 -0.6459
19478TIP3    H179925   5.822   4.384  12.543  1.0040 -0.7176 -1.1745
19478TIP3    H279926   5.722   4.456  12.455  0.8808  2.2042  1.1838
19479TIP3   OH279927   2.411   5.130  16.224  0.0770  0.3865  0.0711
19479TIP3    H179928   2.397   5.043  16.263 -2.1198  0.3772 -0.5679
19479TIP3    H279929   2.433   5.111  16.132 -1.4961  0.4806 -0.3501
19480TIP3   OH279930   4.121   4.336   3.266 -0.0261 -0.4361  0.1886
19480TIP3    H179931   4.216   4.351   3.263 -0.1619  0.2828 -1.3054
19480TIP3    H279932   4.087   4.408   3.320  0.1719 -0.0890 -0.1494
19481TIP3   OH279933   4.664   2.869   3.211 -0.1911  0.6994  0.1849
19481TIP3    H179934   4.729   2.939   3.222  0.2862  0.2301  0.3590
19481TIP3    H279935   4.591   2.912   3.166  0.4184  1.1201 -0.4258
19482TIP3   OH279936   0.300   0.991  10.573  0.3095 -0.2825  0.0475
19482TIP3    H179937   0.387   0.955  10.553  0.3781  0.3528 -0.9009
19482TIP3    H279938   0.240   0.918  10.562  0.4523 -0.1830 -1.7929
19483TIP3   OH279939   0.448   3.161  11.520  0.1776 -0.1578  1.0674
19483TIP3    H179940   0.401   3.180  11.601  0.1371  0.0544  0.9958
19483TIP3    H279941   0.529   3.119  11.548  0.0466 -0.3187  1.2031
19484TIP3   OH279942   2.052   1.127   5.560  0.2289 -0.1169 -0.4664
19484TIP3    H179943   2.048   1.109   5.654 -0.7851 -1.2052 -0.6960
19484TIP3    H279944   1.961   1.145   5.535  0.1095 -2.0856 -1.6320
19485TIP3   OH279945   0.609   6.809  14.099 -0.6617  0.7083  0.1926
19485TIP3    H179946   0.673   6.845  14.038 -2.7415  2.8719 -0.8579
19485TIP3    H279947   0.580   6.728  14.058 -0.4854  1.0437 -0.6133
19486TIP3   OH279948   3.094   0.895   4.992 -0.1828 -0.0630 -0.3945
19486TIP3    H179949   3.062   0.815   5.034  4.0520  0.0188  3.8583
19486TIP3    H279950   3.041   0.965   5.029  0.5296 -0.4298  1.4383
19487TIP3   OH279951   1.935   0.930   2.992 -0.4873 -0.1215  0.9222
19487TIP3    H179952   1.867   0.866   3.009 -0.4638 -0.0119  1.4238
19487TIP3    H279953   1.926   0.995   3.061  0.1957 -0.1649  1.0612
19488TIP3   OH279954   2.562   1.825   2.087 -0.1844  0.1276 -0.0405
19488TIP3    H179955   2.625   1.754   2.097 -0.3050 -0.2278 -1.5160
19488TIP3    H279956   2.559   1.842   1.993 -2.0640  0.3472  0.0053
19489TIP3   OH279957   5.086   5.128  13.721 -0.1058 -0.2049 -0.0944
19489TIP3    H179958   5.071   5.182  13.799  0.0283 -0.4141  0.0770
19489TIP3    H279959   5.000   5.121  13.680 -0.4737 -1.2483  0.7865
19490TIP3   OH279960   6.682   4.354   6.524  0.2906 -0.2081 -0.1732
19490TIP3    H179961   6.624   4.280   6.510  2.5106 -2.1793  0.3466
19490TIP3    H279962   6.670   4.378   6.616 -1.2011  0.8455 -0.6076
19491TIP3   OH279963   1.393   4.912  12.882  0.0006  0.0742 -0.6444
19491TIP3    H179964   1.439   4.935  12.962 -0.0322  1.8506 -1.1027
19491TIP3    H279965   1.463   4.886  12.821  0.0873 -0.5150 -0.3023
19492TIP3   OH279966   2.682   0.824  12.281  0.0386 -0.1810  0.6945
19492TIP3    H179967   2.593   0.810  12.250 -0.7986  0.9767  2.4212
19492TIP3    H279968   2.726   0.869  12.208 -1.0701  0.0859  0.1777
19493TIP3   OH279969   5.920   4.299   3.345 -0.4748 -0.4818  0.1314
19493TIP3    H179970   5.956   4.387   3.336 -0.0751 -0.5889  0.6110
19493TIP3    H279971   5.991   4.249   3.387 -1.0746 -0.7634  0.8318
19494TIP3   OH279972   1.285   6.497  15.224  0.1072 -0.0228 -0.0782
19494TIP3    H179973   1.281   6.520  15.317 -2.1256  0.4842 -0.2470
19494TIP3    H279974   1.300   6.402  15.224  1.7582  0.2140  0.7493
19495TIP3   OH279975   5.308   6.448   3.536  0.0136 -0.4925  0.2143
19495TIP3    H179976   5.255   6.470   3.613  1.1967 -1.0393  1.2065
19495TIP3    H279977   5.250   6.467   3.461 -1.4423 -0.7301  1.2429
19496TIP3   OH279978   3.416   1.887  15.380 -0.2115  0.1316  0.0636
19496TIP3    H179979   3.382   1.804  15.347 -1.0880  0.7949 -0.7816
19496TIP3    H279980   3.420   1.875  15.475  3.2086 -2.1365 -0.2054
19497TIP3   OH279981   4.093   5.777  16.265  0.2589  0.0450  0.1188
19497TIP3    H179982   4.112   5.786  16.359  1.0032 -0.5145  0.0318
19497TIP3    H279983   4.150   5.841  16.223  1.0125 -0.7261 -0.0507
19498TIP3   OH279984   5.468   1.996  14.029  0.1019  0.0321 -0.1887
19498TIP3    H179985   5.471   1.944  14.109  0.3313  0.4993  0.1098
19498TIP3    H279986   5.503   1.938  13.961 -2.4014 -1.2772 -0.4783
19499TIP3   OH279987   4.132   3.473  14.795  0.4844 -0.7575  0.0955
19499TIP3    H179988   4.151   3.516  14.712 -1.9677  0.6475  0.1848
19499TIP3    H279989   4.110   3.545  14.855  0.8975 -1.8313  1.6154
19500TIP3   OH279990   6.561   6.611   3.018 -0.3093 -0.2448  0.7502
19500TIP3    H179991   6.482   6.658   2.991 -0.9566 -1.6519  0.0733
19500TIP3    H279992   6.557   6.610   3.114 -0.9912 -0.1029  0.7280
19501TIP3   OH279993   4.604   5.892  16.210  0.3065  0.2687 -0.2672
19501TIP3    H179994   4.646   5.949  16.274  1.2113 -0.8380  0.1675
19501TIP3    H279995   4.631   5.927  16.125  0.9431  0.4404 -0.0007
19502TIP3   OH279996   1.875   4.216   4.377 -0.2271 -0.3149  0.5687
19502TIP3    H179997   1.855   4.124   4.395  0.1737 -0.4765  0.2092
19502TIP3    H279998   1.922   4.214   4.294  1.1399  0.0653  1.3094
19503TIP3   OH279999   2.492   4.249   3.702  0.2684  0.4095  0.1113
19503TIP3    H180000   2.519   4.340   3.687 -0.7454  0.6201 -0.6263
19503TIP3    H280001   2.404   4.244   3.662  0.2149 -0.8311  0.3448
19504TIP3   OH280002   5.680   3.473   0.759  0.1269  0.3339  0.4927
19504TIP3    H180003   5.736   3.510   0.691  0.0476  2.1020  1.3307
19504TIP3    H280004   5.617   3.419   0.710  2.0946 -1.2097 -0.5116
19505TIP3   OH280005   0.432   4.235  10.771 -0.0290  0.7673  0.2188
19505TIP3    H180006   0.450   4.207  10.860 -0.1018  0.0725  0.0194
19505TIP3    H280007   0.336   4.241  10.767 -0.0131  1.0933  0.2700
19506TIP3   OH280008   6.273   1.871   1.933 -0.2102 -0.5109 -0.0060
19506TIP3    H180009   6.288   1.937   1.866  0.6407 -1.5327 -0.8403
19506TIP3    H280010   6.320   1.794   1.903  2.0616 -0.3865  2.8063
19507TIP3   OH280011   2.714   2.699   2.604 -1.0997 -0.1556 -0.1853
19507TIP3    H180012   2.662   2.671   2.528 -1.1110 -1.8616  0.4066
19507TIP3    H280013   2.707   2.626   2.665  1.6235 -0.2503  0.1019
19508TIP3   OH280014   2.220   3.492   4.979  0.1509  0.0039  0.0574
19508TIP3    H180015   2.300   3.447   4.955 -0.3816 -0.3380 -1.1664
19508TIP3    H280016   2.162   3.480   4.904 -0.9484  0.4778  0.7979
19509TIP3   OH280017   0.797   1.068   1.392  0.2876 -0.1651  0.4580
19509TIP3    H180018   0.704   1.067   1.415  0.5511 -0.4877  1.5672
19509TIP3    H280019   0.826   1.157   1.413  0.4391 -0.3438  1.0190
19510TIP3   OH280020   0.622   3.212  14.777 -0.0575  0.1555 -0.4602
19510TIP3    H180021   0.641   3.228  14.870  0.6765 -0.2789 -0.5253
19510TIP3    H280022   0.537   3.168  14.777 -0.0493  0.1351  0.0095
19511TIP3   OH280023   5.206   6.775   2.468  0.4561  0.3139 -0.2239
19511TIP3    H180024   5.216   6.690   2.426  2.2078  0.5058 -0.2635
19511TIP3    H280025   5.262   6.833   2.417 -0.0252  1.3021  0.3526
19512TIP3   OH280026   0.817   3.381  11.172  0.1709 -0.3498  0.1574
19512TIP3    H180027   0.879   3.452  11.190  2.1729 -2.1475  0.8323
19512TIP3    H280028   0.778   3.362  11.257 -1.1890  0.6085 -0.2218
19513TIP3   OH280029   2.809   6.193   1.098  0.9100  0.1983  0.0969
19513TIP3    H180030   2.739   6.253   1.073  1.7788  1.1777 -0.0235
19513TIP3    H280031   2.812   6.129   1.027 -0.4591 -0.4144  0.5438
19514TIP3   OH280032   5.113   3.267  15.844  0.0859 -0.5813 -0.3796
19514TIP3    H180033   5.180   3.332  15.824  0.5661 -1.2654 -1.1006
19514TIP3    H280034   5.073   3.247  15.759  0.9248 -2.2499 -0.4206
19515TIP3   OH280035   2.386   3.044  14.155 -0.3310  0.2248  0.1324
19515TIP3    H180036   2.474   3.076  14.133  0.3248 -1.3784  0.2786
19515TIP3    H280037   2.341   3.038  14.071  0.0495  0.0769 -0.0647
19516TIP3   OH280038   5.701   1.946   5.385 -0.5160  0.4295  0.1828
19516TIP3    H180039   5.773   1.885   5.404  0.2066  0.9114 -0.8999
19516TIP3    H280040   5.723   2.026   5.433  1.3523  1.6766 -2.5096
19517TIP3   OH280041   5.543   3.253  14.435  0.6431  0.3275 -0.6934
19517TIP3    H180042   5.536   3.316  14.363  1.1658  1.5780  0.3054
19517TIP3    H280043   5.633   3.223  14.432  0.9799  1.2108  0.0758
19518TIP3   OH280044   4.980   2.280   5.302  0.1849  0.0510  0.5912
19518TIP3    H180045   4.980   2.196   5.257 -0.3477  1.1463 -1.6120
19518TIP3    H280046   5.014   2.261   5.390  0.9107 -2.2809 -0.1276
19519TIP3   OH280047   5.722   1.353  13.076  0.0402  0.2707 -0.4208
19519TIP3    H180048   5.717   1.407  13.155 -0.1469 -0.4337  0.0569
19519TIP3    H280049   5.798   1.297  13.091  0.0334  0.1690 -0.7656
19520TIP3   OH280050   1.112   2.237   4.621  0.0343  0.8146 -0.3455
19520TIP3    H180051   1.139   2.149   4.648  3.7003  1.2272 -2.0566
19520TIP3    H280052   1.035   2.256   4.675  0.7834 -2.3051  2.1358
19521TIP3   OH280053   6.691   4.974   0.166  0.1682 -0.1584 -0.5174
19521TIP3    H180054   6.644   4.943   0.243  1.0895 -1.1629 -0.3323
19521TIP3    H280055   6.746   4.900   0.140  2.4465  1.2874 -0.0884
19522TIP3   OH280056   6.335   2.014   1.694 -0.2751  0.0819 -0.0426
19522TIP3    H180057   6.316   1.939   1.637  0.7725 -0.4279  0.2640
19522TIP3    H280058   6.425   2.039   1.671  0.7514 -1.0927  2.4360
19523TIP3   OH280059   4.166   3.698  16.587 -0.3136  0.3705  0.8631
19523TIP3    H180060   4.260   3.700  16.607  0.0026 -1.1025 -0.2561
19523TIP3    H280061   4.162   3.673  16.495 -1.8017  1.2155  0.6746
19524TIP3   OH280062   2.918   2.673  13.552  0.0862  0.2979  0.1580
19524TIP3    H180063   2.902   2.734  13.480 -0.9350 -1.1655 -0.9061
19524TIP3    H280064   2.947   2.592  13.510 -1.6047 -0.9545  1.2794
19525TIP3   OH280065   1.110   2.365  12.814 -0.2049  0.2935  0.2562
19525TIP3    H180066   1.129   2.278  12.848  0.2513 -0.0816 -0.8975
19525TIP3    H280067   1.116   2.355  12.719 -2.5093  1.0125 -0.0448
19526TIP3   OH280068   2.634   5.006   4.123 -0.0039  0.7484  0.0105
19526TIP3    H180069   2.671   4.995   4.210 -1.2749 -2.3671  0.2797
19526TIP3    H280070   2.596   5.094   4.124  0.2989  0.9150  2.4674
19527TIP3   OH280071   3.008   1.880   3.043  0.0874  0.8129 -0.3709
19527TIP3    H180072   2.929   1.929   3.022  0.9885  1.2999 -2.9185
19527TIP3    H280073   2.983   1.826   3.118 -2.1837  2.0451 -0.1517
19528TIP3   OH280074   6.710   0.634   3.075  0.0044  0.0706  0.0220
19528TIP3    H180075   6.711   0.646   3.169 -2.4530  1.0138 -0.0044
19528TIP3    H280076   6.785   0.683   3.043  0.5933  0.1185  1.4413
19529TIP3   OH280077   0.754   3.741   3.493  0.5315  0.2071  0.2929
19529TIP3    H180078   0.664   3.775   3.497  0.9118  1.1259  1.5680
19529TIP3    H280079   0.760   3.680   3.567  1.0657  0.4197  0.4261
19530TIP3   OH280080   2.384   1.788   5.224 -0.0064  0.0524 -0.1826
19530TIP3    H180081   2.399   1.874   5.185  2.5961 -1.2537 -2.3706
19530TIP3    H280082   2.384   1.804   5.319  2.1411  2.2717 -0.4717
19531TIP3   OH280083   0.544   5.984  12.050  0.5635  0.1553 -0.0961
19531TIP3    H180084   0.611   6.051  12.038  0.9691  0.2819  2.4178
19531TIP3    H280085   0.568   5.940  12.131 -3.5847  1.7776  2.3514
19532TIP3   OH280086   3.717   3.182   2.532  0.5003  0.1511 -0.0948
19532TIP3    H180087   3.626   3.181   2.503  0.4427  1.4232 -0.0222
19532TIP3    H280088   3.747   3.093   2.518 -0.7939 -0.3271  0.0076
19533TIP3   OH280089   3.238   3.485  13.947 -0.5238  0.4064 -1.0478
19533TIP3    H180090   3.250   3.392  13.970  1.0893  0.9156  0.4166
19533TIP3    H280091   3.200   3.483  13.859  0.4458 -1.6475 -1.4973
19534TIP3   OH280092   2.793   5.525   0.281  0.1965 -0.0915 -0.3111
19534TIP3    H180093   2.812   5.487   0.195 -0.4150 -0.4857 -0.2817
19534TIP3    H280094   2.731   5.463   0.320  0.6511 -0.0383  0.5085
19535TIP3   OH280095   6.466   6.147  13.718  0.2232 -0.3474 -0.1284
19535TIP3    H180096   6.475   6.062  13.676 -1.5384 -0.3633 -0.5326
19535TIP3    H280097   6.464   6.210  13.646 -0.1709 -0.1296  0.0655
19536TIP3   OH280098   0.467   2.580   3.066 -0.3939  0.5339  0.2500
19536TIP3    H180099   0.549   2.546   3.030 -1.2882  0.3569 -1.7323
19536TIP3    H280100   0.398   2.537   3.016 -1.6807  1.8077  0.8278
19537TIP3   OH280101   2.786   4.232   4.515 -0.3899 -0.5286  0.2468
19537TIP3    H180102   2.851   4.222   4.585 -0.0857  0.8858  0.1873
19537TIP3    H280103   2.775   4.143   4.481  2.2460 -0.7036 -0.3849
19538TIP3   OH280104   6.013   2.649   4.919  0.4804 -0.7119  0.1668
19538TIP3    H180105   5.972   2.609   4.996 -0.1179 -0.3921  0.0155
19538TIP3    H280106   5.995   2.743   4.928 -0.7901 -0.8104 -1.0701
19539TIP3   OH280107   4.846   4.787  15.951  0.5340 -0.3122  0.0847
19539TIP3    H180108   4.884   4.699  15.954 -0.8598 -0.9712 -0.5258
19539TIP3    H280109   4.777   4.785  16.018  0.3344  0.2384 -0.0996
19540TIP3   OH280110   4.309   1.371   0.970  0.1447 -0.3279  0.4447
19540TIP3    H180111   4.272   1.283   0.981  1.2768 -0.8986 -0.1528
19540TIP3    H280112   4.233   1.429   0.974 -0.5331 -1.2462  1.6944
19541TIP3   OH280113   5.418   2.232   5.279 -0.1606  0.1107  0.1108
19541TIP3    H180114   5.462   2.317   5.267  0.1285  0.0992  1.0126
19541TIP3    H280115   5.330   2.255   5.311 -0.8068  0.1298 -1.5946
19542TIP3   OH280116   1.557   2.627   4.272  0.8663  0.6912  0.7862
19542TIP3    H180117   1.520   2.547   4.311 -1.4746  2.0707  1.6060
19542TIP3    H280118   1.646   2.632   4.307  0.1453 -0.1755  2.9228
19543TIP3   OH280119   3.731   3.716  16.927  0.0330  0.3634 -0.2202
19543TIP3    H180120   3.725   3.626  16.897  1.3906  0.4072 -0.7234
19543TIP3    H280121   3.690   3.768  16.859 -0.7300  0.1314  0.0606
19544TIP3   OH280122   5.330   6.739   2.739  0.0539  0.2100 -0.5958
19544TIP3    H180123   5.336   6.731   2.834 -1.2423 -0.1323 -0.5197
19544TIP3    H280124   5.413   6.705   2.706  0.7322  0.8580  0.4360
19545TIP3   OH280125   0.244   2.047   0.586  0.3371  0.5036 -0.2035
19545TIP3    H180126   0.294   2.126   0.567 -0.6171  1.2082  0.1517
19545TIP3    H280127   0.179   2.042   0.517 -0.7703  1.0459  0.7738
19546TIP3   OH280128   2.762   3.933   3.637  0.5674 -0.1376 -0.3258
19546TIP3    H180129   2.850   3.955   3.669  0.7430  0.5353 -1.2155
19546TIP3    H280130   2.758   3.837   3.641  0.4530 -0.0858  1.9492
19547TIP3   OH280131   1.262   3.899  11.985 -0.3410 -0.4182 -0.7403
19547TIP3    H180132   1.182   3.863  11.947 -1.5316 -1.7874  2.6550
19547TIP3    H280133   1.306   3.824  12.024  1.0498  0.7434  0.0367
19548TIP3   OH280134   3.497   2.056   3.990  0.5312 -0.4616  0.0351
19548TIP3    H180135   3.424   2.090   3.937  1.2115 -0.4481 -0.9070
19548TIP3    H280136   3.528   1.979   3.942  2.0224  0.3247 -0.3068
19549TIP3   OH280137   0.304   2.196  11.628  0.4558  0.1071 -0.2262
19549TIP3    H180138   0.321   2.145  11.707  0.5272  1.0660  0.3955
19549TIP3    H280139   0.299   2.131  11.558  0.5209 -0.7466  0.5431
19550TIP3   OH280140   1.490   4.044  14.075 -0.3532  0.1329  0.0740
19550TIP3    H180141   1.407   4.043  14.028  0.6998  2.3444 -2.0223
19550TIP3    H280142   1.475   4.102  14.150 -1.1593 -0.9179  0.7493
19551TIP3   OH280143   0.234   5.996   5.821 -0.2528  0.2111  0.5105
19551TIP3    H180144   0.144   5.999   5.854 -0.2105 -0.0713  0.6617
19551TIP3    H280145   0.286   6.040   5.888 -0.5669  2.4613 -0.6473
19552TIP3   OH280146   5.205   2.107   4.428 -0.3147 -0.4730  0.3941
19552TIP3    H180147   5.184   2.014   4.418  3.0086 -1.1962 -1.0997
19552TIP3    H280148   5.245   2.113   4.515 -2.3595  0.0566  1.3678
19553TIP3   OH280149   1.507   5.258   0.366 -0.2848  1.1660  0.8170
19553TIP3    H180150   1.482   5.333   0.312 -0.4067 -0.5115 -1.6120
19553TIP3    H280151   1.433   5.244   0.425 -1.1141  1.7512 -0.0667
19554TIP3   OH280152   4.391   6.766   3.760 -0.0417 -0.0934  0.1644
19554TIP3    H180153   4.452   6.692   3.753  0.0482 -0.2109  1.8662
19554TIP3    H280154   4.342   6.749   3.840 -1.6322  0.5266 -0.6400
19555TIP3   OH280155   2.818   4.085  15.121  0.4286 -0.1559 -0.1763
19555TIP3    H180156   2.892   4.052  15.071  0.0900 -0.4119 -0.5093
19555TIP3    H280157   2.858   4.126  15.198  0.8284 -1.7677  0.5092
19556TIP3   OH280158   5.615   1.765   5.877 -0.3104  0.4097 -0.4069
19556TIP3    H180159   5.666   1.763   5.797 -1.2095  0.1441 -0.9906
19556TIP3    H280160   5.633   1.851   5.915  1.3807 -0.0736 -0.0320
19557TIP3   OH280161   5.024   2.101   0.741 -1.0515 -0.5047  0.6556
19557TIP3    H180162   5.111   2.139   0.756 -0.7918 -0.7274 -0.2208
19557TIP3    H280163   5.002   2.127   0.651 -1.9391 -0.3652  0.9008
19558TIP3   OH280164   0.159   4.637   5.459 -0.1308  0.4424 -0.1058
19558TIP3    H180165   0.162   4.543   5.445  0.7985  0.3059  0.9033
19558TIP3    H280166   0.068   4.654   5.485  0.0073 -0.3962  1.0216
19559TIP3   OH280167   2.795   3.805  14.235  0.4302 -0.7458  0.3959
19559TIP3    H180168   2.885   3.821  14.207  0.0060  0.2674 -0.4491
19559TIP3    H280169   2.753   3.765  14.159 -0.4106  0.8838 -0.0248
19560TIP3   OH280170   3.133   5.737  11.552  0.3170  0.5890 -0.7312
19560TIP3    H180171   3.114   5.773  11.638  1.0521 -0.3411 -0.1694
19560TIP3    H280172   3.227   5.749  11.541  0.8302 -2.2176  0.0071
19561TIP3   OH280173   1.091   1.046   1.595  0.2400 -0.1267  0.4483
19561TIP3    H180174   1.011   0.993   1.597  1.8604 -3.0273 -2.0772
19561TIP3    H280175   1.073   1.119   1.654 -3.8836 -1.0964  0.7105
19562TIP3   OH280176   0.166   1.027  11.367  0.3733 -0.6604 -0.1336
19562TIP3    H180177   0.190   0.989  11.451  1.0615 -0.0128 -0.0167
19562TIP3    H280178   0.088   1.080  11.385  1.0190  0.1720  0.3003
19563TIP3   OH280179   4.648   3.488  15.445  0.5877  0.1540  0.1088
19563TIP3    H180180   4.689   3.502  15.360  0.1668 -0.0978 -0.1392
19563TIP3    H280181   4.721   3.483  15.507  0.9553 -0.7107 -0.3836
19564TIP3   OH280182   2.698   1.149  14.698  0.3403 -0.1349 -0.3787
19564TIP3    H180183   2.689   1.132  14.792 -2.3313 -0.2987 -0.5749
19564TIP3    H280184   2.757   1.081  14.667  1.2550 -0.0878  1.1717
19565TIP3   OH280185   4.061   1.011  13.127 -0.6917 -0.3254  0.0769
19565TIP3    H180186   4.098   1.074  13.066  3.6790 -1.7166  0.9483
19565TIP3    H280187   4.067   0.927  13.081 -4.1081 -0.5967 -0.1327
19566TIP3   OH280188   1.924   4.170  11.180  0.1878 -0.0883 -0.2467
19566TIP3    H180189   1.955   4.115  11.108  1.5220  0.1829  0.0963
19566TIP3    H280190   1.833   4.189  11.158  0.3348 -0.6829 -1.4421
19567TIP3   OH280191   6.451   0.473  15.906 -0.1006  0.1393  0.1806
19567TIP3    H180192   6.485   0.392  15.868  0.3650  0.1272  0.6116
19567TIP3    H280193   6.408   0.518  15.833  1.3954  0.4541 -0.5437
19568TIP3   OH280194   3.666   0.047   1.046 -0.5590  0.2106  0.5921
19568TIP3    H180195   3.752   0.080   1.073 -0.9509 -0.3399  2.6974
19568TIP3    H280196   3.607   0.122   1.054 -0.8344 -0.1392  2.2451
19569TIP3   OH280197   6.245   1.485  15.550 -0.1924  0.8426  0.0301
19569TIP3    H180198   6.210   1.445  15.630 -1.2857  0.7097 -0.4871
19569TIP3    H280199   6.180   1.463  15.483  0.2675  1.6948 -0.7083
19570TIP3   OH280200   1.171   4.150   4.248  0.3998 -0.2349 -0.2281
19570TIP3    H180201   1.230   4.203   4.301  0.1873 -0.5005  0.2734
19570TIP3    H280202   1.225   4.123   4.173  2.1399 -3.4783  1.9306
19571TIP3   OH280203   4.327   4.678  15.881 -0.1045  0.3585 -1.0404
19571TIP3    H180204   4.417   4.657  15.855  0.8201  1.3735  1.0841
19571TIP3    H280205   4.303   4.754  15.828  0.2755  0.1040 -1.5902
19572TIP3   OH280206   6.017   5.522  17.179  0.3487 -0.4073 -0.0622
19572TIP3    H180207   6.018   5.572  17.097  1.9633 -0.0756  0.1122
19572TIP3    H280208   6.010   5.430  17.150 -1.8797 -0.1703 -0.4123
19573TIP3   OH280209   1.066   1.332  16.982 -0.0001 -0.5089 -0.0104
19573TIP3    H180210   1.114   1.407  17.016 -1.4022  0.6100 -0.4016
19573TIP3    H280211   1.134   1.272  16.951  1.1820  0.0664  1.3753
19574TIP3   OH280212   5.302   1.026  16.464  0.1242  0.1549 -0.6912
19574TIP3    H180213   5.389   1.005  16.498  0.1017 -0.1085 -0.7938
19574TIP3    H280214   5.242   0.987  16.528  0.0789 -0.6263 -1.1927
19575TIP3   OH280215   1.187   4.600  14.715  0.5180  0.4144 -0.1797
19575TIP3    H180216   1.277   4.596  14.683  1.6371 -0.3158  2.7503
19575TIP3    H280217   1.137   4.637  14.642  2.9296 -0.3619 -2.3678
19576TIP3   OH280218   2.929   0.470  12.051  0.4182  0.1246 -0.4103
19576TIP3    H180219   2.891   0.387  12.082  0.5648 -0.4981 -1.8015
19576TIP3    H280220   2.859   0.512  12.003  1.2785 -0.8727 -2.7048
19577TIP3   OH280221   1.107   4.888   5.539  0.3209 -0.0605  0.8544
19577TIP3    H180222   1.030   4.879   5.483  0.8620 -1.7689  0.3549
19577TIP3    H280223   1.098   4.976   5.577 -2.2276 -0.4430  1.3354
19578TIP3   OH280224   3.198   5.731   3.229  0.1670  0.0843 -0.0522
19578TIP3    H180225   3.209   5.674   3.153 -0.0530 -0.2787  0.1887
19578TIP3    H280226   3.275   5.788   3.227  2.2236 -2.4572  1.6467
19579TIP3   OH280227   0.701   1.670   2.118  0.4899 -0.7772  0.0019
19579TIP3    H180228   0.719   1.692   2.210  1.3355 -1.5486  0.0463
19579TIP3    H280229   0.770   1.715   2.069  0.4123 -0.8640 -0.1871
19580TIP3   OH280230   5.248   2.336  14.110 -0.2969  0.2676  0.1111
19580TIP3    H180231   5.222   2.262  14.055 -1.7496  0.4188  0.5614
19580TIP3    H280232   5.306   2.298  14.175 -0.2595 -0.2915 -0.2399
19581TIP3   OH280233   1.676   1.408  16.758  0.1264 -0.0079  0.0993
19581TIP3    H180234   1.673   1.393  16.852  0.9827  0.1649  0.1636
19581TIP3    H280235   1.657   1.502  16.748  0.2283  0.0138  0.1118
19582TIP3   OH280236   1.583   5.297   3.866  0.2594  0.7334 -0.3841
19582TIP3    H180237   1.565   5.391   3.872  1.8736  1.0758 -0.5452
19582TIP3    H280238   1.676   5.289   3.886 -0.0979 -0.9803  0.8200
19583TIP3   OH280239   5.104   0.787   4.316 -0.4076  0.4334  0.0673
19583TIP3    H180240   5.191   0.751   4.332 -0.8848 -0.6839  0.2927
19583TIP3    H280241   5.113   0.837   4.236  0.5107  0.5969  0.2594
19584TIP3   OH280242   0.946   0.072   6.068  0.2577  0.3816  0.3714
19584TIP3    H180243   0.946   0.165   6.047  0.0793 -0.0821 -2.0687
19584TIP3    H280244   0.985   0.030   5.991 -2.1501 -1.7711  0.1659
19585TIP3   OH280245   0.368   0.927  15.038 -0.2260  0.1099 -1.0291
19585TIP3    H180246   0.414   0.990  15.092 -2.4891  0.5374  0.5669
19585TIP3    H280247   0.428   0.854  15.029  1.9691  1.8965 -1.8426
19586TIP3   OH280248   1.373   1.420   1.510 -0.0564 -0.5223 -0.1564
19586TIP3    H180249   1.414   1.358   1.570 -1.8028  1.0216  2.8820
19586TIP3    H280250   1.445   1.474   1.479  0.8676 -1.0531  0.9899
19587TIP3   OH280251   1.359   1.378  11.414 -0.1626  0.2467  0.2630
19587TIP3    H180252   1.383   1.342  11.328  0.8984 -0.4981  0.8515
19587TIP3    H280253   1.352   1.472  11.399 -0.2133  0.1021 -0.6939
19588TIP3   OH280254   3.914   1.330  13.103 -0.5704  0.5977 -0.3296
19588TIP3    H180255   3.873   1.324  13.189  2.0263 -0.9059  0.9082
19588TIP3    H280256   3.900   1.245  13.063 -0.3217  0.7393 -0.7231
19589TIP3   OH280257   3.787   3.206  12.177  0.1805 -0.0919 -0.3856
19589TIP3    H180258   3.745   3.143  12.119 -0.3717 -0.6587  0.5973
19589TIP3    H280259   3.854   3.248  12.123  1.2532 -2.2219 -0.8138
19590TIP3   OH280260   0.041   5.247  14.407  0.0990 -0.0664  0.4947
19590TIP3    H180261   0.038   5.155  14.380 -0.6867 -0.3748  1.5511
19590TIP3    H280262  -0.009   5.293  14.340  1.1223 -0.2875 -0.4416
19591TIP3   OH280263   5.904   4.121  12.807 -0.1744  0.0981 -0.8295
19591TIP3    H180264   5.852   4.139  12.885  0.3522 -1.1230 -0.1553
19591TIP3    H280265   5.968   4.056  12.836  1.0827  0.8186 -1.8783
19592TIP3   OH280266   1.166   5.982  14.684  0.4784 -0.1701  0.0876
19592TIP3    H180267   1.213   6.024  14.611 -1.0205  1.5894  0.0627
19592TIP3    H280268   1.231   5.979  14.755  1.0932  0.8382 -0.4085
19593TIP3   OH280269   0.822   0.377   4.386 -0.5572 -0.5911 -0.9616
19593TIP3    H180270   0.893   0.424   4.342 -0.6050 -0.6441 -1.0959
19593TIP3    H280271   0.762   0.353   4.316 -0.1869 -1.4689 -0.9852
19594TIP3   OH280272   6.514   5.205   2.212 -0.2074  0.0040 -0.0598
19594TIP3    H180273   6.556   5.123   2.241 -1.6003  0.2303  2.9785
19594TIP3    H280274   6.433   5.177   2.171 -0.4052 -0.1859  0.4481
19595TIP3   OH280275   1.915   2.633   0.894  0.5267 -0.8401  0.1134
19595TIP3    H180276   1.827   2.616   0.861  0.6240  0.2010 -0.6919
19595TIP3    H280277   1.901   2.670   0.981  0.1021  0.4815 -0.4946
19596TIP3   OH280278   3.516   0.210   4.901 -0.0581  0.2072  0.3063
19596TIP3    H180279   3.512   0.117   4.920  2.1570 -0.3418 -1.4741
19596TIP3    H280280   3.425   0.240   4.909 -0.4518 -1.4335  3.6194
19597TIP3   OH280281   2.473   2.642  14.460 -0.6028  0.2344  0.2119
19597TIP3    H180282   2.412   2.613  14.393  0.8561 -0.8360 -0.7065
19597TIP3    H280283   2.524   2.564  14.482 -1.0557  0.5354  2.6301
19598TIP3   OH280284   3.462   5.272  15.767 -0.0056  0.1126 -0.5130
19598TIP3    H180285   3.505   5.351  15.801  0.1457 -0.3008  0.2912
19598TIP3    H280286   3.372   5.299  15.752 -0.6802 -0.1887  2.3230
19599TIP3   OH280287   2.223   4.635  11.857  0.2543  0.0588 -0.1931
19599TIP3    H180288   2.261   4.640  11.944 -0.9638 -2.9230  0.6392
19599TIP3    H280289   2.128   4.634  11.872  0.0288 -1.1365 -1.4565
19600TIP3   OH280290   0.145   6.694   4.115  0.1904 -0.0656  0.3315
19600TIP3    H180291   0.203   6.718   4.188  0.2748  1.3271 -0.1629
19600TIP3    H280292   0.141   6.773   4.061  0.2128 -1.0992 -1.2431
19601TIP3   OH280293   3.383   2.184  16.683  0.5159 -0.2916  0.1858
19601TIP3    H180294   3.434   2.202  16.762 -0.2894  1.3516  0.3839
19601TIP3    H280295   3.298   2.225  16.700  0.4258  0.3798 -1.6501
19602TIP3   OH280296   4.491   2.696   3.358 -0.1991  0.1519  0.0722
19602TIP3    H180297   4.421   2.666   3.299 -1.1767  1.2462  0.6463
19602TIP3    H280298   4.554   2.739   3.300  0.5407 -1.6902 -0.5839
19603TIP3   OH280299   3.806   2.678   1.950 -0.2920  0.0960  0.1211
19603TIP3    H180300   3.886   2.671   1.897  1.3107 -1.3600  2.5406
19603TIP3    H280301   3.761   2.755   1.915 -0.1177 -1.4827 -4.1780
19604TIP3   OH280302   5.559   6.418   2.440  0.6242 -0.2715 -0.0195
19604TIP3    H180303   5.594   6.476   2.373  0.8779  1.8307  1.8165
19604TIP3    H280304   5.520   6.477   2.504  1.2557 -2.1024  2.1642
19605TIP3   OH280305   0.237   5.606   0.145  0.7193  0.3657  0.7653
19605TIP3    H180306   0.199   5.521   0.121  1.2940 -0.1342  1.5973
19605TIP3    H280307   0.237   5.606   0.240  2.6330  0.4164  0.7868
19606TIP3   OH280308   0.864   0.152   5.318  0.6426  0.0125  0.1315
19606TIP3    H180309   0.874   0.095   5.242 -1.1447  0.5731 -0.5571
19606TIP3    H280310   0.952   0.186   5.333  1.0587 -0.1791 -1.6304
19607TIP3   OH280311   0.758   2.927  16.902  0.5507  0.0644 -0.0333
19607TIP3    H180312   0.852   2.947  16.909  0.7274 -0.3351 -1.1768
19607TIP3    H280313   0.740   2.872  16.979  1.7852 -1.8013 -1.0104
19608TIP3   OH280314   5.312   2.387  11.703  0.1010  0.3359 -0.0001
19608TIP3    H180315   5.318   2.305  11.753  0.7382 -0.2499 -0.9882
19608TIP3    H280316   5.220   2.393  11.679  0.1211 -0.3194 -0.2616
19609TIP3   OH280317   1.218   6.572  12.675 -0.1555  0.1581 -0.2017
19609TIP3    H180318   1.150   6.629  12.638  0.8712  0.8774 -1.0301
19609TIP3    H280319   1.201   6.486  12.635 -0.9676  0.1544  0.1157
19610TIP3   OH280320   1.709   5.193  12.859  0.0565  0.1378  0.1214
19610TIP3    H180321   1.673   5.114  12.901 -0.2899 -0.5220 -1.3639
19610TIP3    H280322   1.685   5.264  12.919 -3.6287 -0.2719 -0.5769
19611TIP3   OH280323   0.966   5.705   0.619  0.4109 -0.8288 -0.1396
19611TIP3    H180324   1.011   5.644   0.561  2.1483  0.1961  0.0618
19611TIP3    H280325   0.903   5.651   0.667  0.8565 -2.1754 -1.0303
19612TIP3   OH280326   0.893   5.567  16.602  0.8480  0.2755  0.0881
19612TIP3    H180327   0.959   5.502  16.627 -1.1006 -1.1850  1.6658
19612TIP3    H280328   0.889   5.627  16.677  0.0280  0.0405  0.2424
19613TIP3   OH280329   3.120   1.116   2.851 -0.8775 -0.1750  0.2885
19613TIP3    H180330   3.061   1.125   2.926 -0.3603 -0.8561  0.7944
19613TIP3    H280331   3.115   1.023   2.829 -0.9811  0.0083 -0.5002
19614TIP3   OH280332   6.317   5.055   2.808 -0.0241  0.5476  0.0026
19614TIP3    H180333   6.250   5.068   2.876 -0.5126 -0.2632 -0.3034
19614TIP3    H280334   6.365   4.977   2.836 -0.6835 -0.2157 -0.9161
19615TIP3   OH280335   6.157   5.958  13.563  0.4406 -0.4145 -0.0386
19615TIP3    H180336   6.225   6.025  13.551 -0.0806  0.0016 -0.7022
19615TIP3    H280337   6.075   6.007  13.564  0.1845 -0.8130  1.6642
19616TIP3   OH280338   1.813   4.863   4.753  0.0487 -0.0753  0.2616
19616TIP3    H180339   1.741   4.802   4.766  0.2992 -0.2648  0.7750
19616TIP3    H280340   1.845   4.882   4.841  0.2263  0.4872  0.0778
19617TIP3   OH280341   6.623   1.424  12.857 -0.2217 -0.4916 -0.1016
19617TIP3    H180342   6.576   1.480  12.918 -0.9317 -0.3937 -0.7247
19617TIP3    H280343   6.633   1.477  12.778  0.2334 -0.7996 -0.2578
19618TIP3   OH280344   4.608   6.506   0.791 -0.1122 -0.5515 -0.1826
19618TIP3    H180345   4.580   6.415   0.781  0.6303 -0.8369  0.1816
19618TIP3    H280346   4.563   6.536   0.870  1.3110 -1.3243  0.9868
19619TIP3   OH280347   0.206   6.581  11.477  0.6852 -0.0134 -0.1675
19619TIP3    H180348   0.258   6.646  11.526  0.9100  0.0811 -0.5245
19619TIP3    H280349   0.212   6.610  11.386 -1.1537  0.7972 -0.0681
19620TIP3   OH280350   6.040   3.417  12.356  0.0723  0.2860  0.1873
19620TIP3    H180351   6.076   3.342  12.310 -0.2968  0.1207  0.1644
19620TIP3    H280352   6.113   3.453  12.405  0.4990  0.5252 -0.6107
19621TIP3   OH280353   5.879   4.024   0.296 -0.6735  0.1034  0.2651
19621TIP3    H180354   5.841   4.103   0.336 -1.2797 -0.3334  0.5673
19621TIP3    H280355   5.815   3.996   0.231  0.6360  1.2278 -1.6093
19622TIP3   OH280356   5.535   1.228  16.748 -0.0472  0.4641  0.5859
19622TIP3    H180357   5.441   1.209  16.743  0.2478 -0.9701  0.0654
19622TIP3    H280358   5.560   1.247  16.658  0.7522 -2.3691  0.1201
19623TIP3   OH280359   4.505   0.712  15.824 -0.1647  0.3112  0.2241
19623TIP3    H180360   4.488   0.618  15.827  3.4314 -0.5002 -0.0872
19623TIP3    H280361   4.473   0.745  15.908 -0.7071 -1.3305  0.6923
19624TIP3   OH280362   3.181   2.599  15.843 -0.0634  0.0144 -0.4212
19624TIP3    H180363   3.261   2.572  15.888 -0.2577 -2.3741 -1.3871
19624TIP3    H280364   3.118   2.613  15.914  0.0891 -2.1182  0.2005
19625TIP3   OH280365   1.061   5.421  13.378 -0.0220 -0.7066 -0.6681
19625TIP3    H180366   1.036   5.494  13.322 -0.2136 -0.2360  0.0084
19625TIP3    H280367   1.003   5.350  13.353 -1.8273  0.2325  0.5799
19626TIP3   OH280368   1.368   0.963  14.917  0.0811 -0.1254 -0.7320
19626TIP3    H180369   1.450   0.971  14.868  1.6636 -0.3902  1.6766
19626TIP3    H280370   1.334   0.877  14.894 -0.7684  0.8461 -3.4402
19627TIP3   OH280371   2.384   5.154  13.657 -0.4343  0.4178 -0.4802
19627TIP3    H180372   2.380   5.226  13.594 -1.6693 -0.3215 -1.2914
19627TIP3    H280373   2.387   5.075  13.603 -0.5404 -0.1955  0.3916
19628TIP3   OH280374   2.644   3.634   0.755  0.1394 -0.1911 -0.0351
19628TIP3    H180375   2.554   3.667   0.750  0.4110  0.3928 -1.5315
19628TIP3    H280376   2.663   3.632   0.849 -1.2712  0.1119  0.2864
19629TIP3   OH280377   4.574   4.621  12.051  0.2213  0.4078 -0.0252
19629TIP3    H180378   4.668   4.638  12.060  0.5637 -1.4263  0.3740
19629TIP3    H280379   4.566   4.572  11.970 -0.1373 -0.8649  0.7454
19630TIP3   OH280380   5.436   1.542   0.387  0.4026 -0.6167  0.0980
19630TIP3    H180381   5.513   1.600   0.390  1.7218 -2.2309  3.7732
19630TIP3    H280382   5.468   1.459   0.422 -2.6187 -1.9444 -0.0414
19631TIP3   OH280383   1.779   1.333   2.836 -0.4199  0.4343  0.4887
19631TIP3    H180384   1.721   1.396   2.879  0.2916  0.3022  1.6853
19631TIP3    H280385   1.827   1.292   2.908  1.1776  0.5560 -0.4627
19632TIP3   OH280386   4.774   3.031  11.667 -0.4121  0.6359 -0.3986
19632TIP3    H180387   4.821   3.019  11.585 -0.6795  1.1360 -0.6333
19632TIP3    H280388   4.681   3.026  11.642 -0.5933  3.4034 -0.6145
19633TIP3   OH280389   6.477   0.261  13.943  0.2130  0.2253 -0.0354
19633TIP3    H180390   6.462   0.273  14.037 -3.1324  0.4320 -0.4705
19633TIP3    H280391   6.495   0.168  13.933 -1.2073 -0.1524  0.6766
19634TIP3   OH280392   5.932   5.659   0.971 -0.2941  0.1577  0.3139
19634TIP3    H180393   5.868   5.597   0.937 -2.7773  2.9267 -0.5372
19634TIP3    H280394   6.004   5.657   0.908 -1.8345  0.4314 -1.5517
19635TIP3   OH280395   5.044   6.422  11.414 -0.2959 -0.5329 -0.2633
19635TIP3    H180396   4.961   6.421  11.462 -0.6912 -2.0793 -0.9247
19635TIP3    H280397   5.025   6.379  11.331  0.8532  0.3340 -1.0153
19636TIP3   OH280398   4.731   0.871  12.919  0.3252 -0.3813 -0.3569
19636TIP3    H180399   4.646   0.826  12.910  0.0441 -0.1216  0.7951
19636TIP3    H280400   4.759   0.850  13.008  0.8036  0.6800 -0.2465
19637TIP3   OH280401   3.942   6.289   3.328 -0.2336  0.3557 -0.3492
19637TIP3    H180402   3.911   6.299   3.238  1.4183  1.3014 -0.8570
19637TIP3    H280403   4.003   6.215   3.324 -1.2291 -0.5349  0.3267
19638TIP3   OH280404   1.438   4.504  14.626 -0.0817 -0.4945  0.5394
19638TIP3    H180405   1.476   4.494  14.714 -0.1668 -0.9491  0.5261
19638TIP3    H280406   1.496   4.566  14.582 -2.1809  2.9174  2.1793
19639TIP3   OH280407   3.945   2.666   4.299 -0.1349 -0.1315 -0.1050
19639TIP3    H180408   3.994   2.599   4.347 -0.0516 -0.2342 -0.3331
19639TIP3    H280409   4.011   2.730   4.272 -0.2657  0.2405  0.4361
19640TIP3   OH280410   4.444   4.064  16.407 -0.2301  0.0657  0.2041
19640TIP3    H180411   4.430   4.156  16.429  0.6269  0.1358  0.4915
19640TIP3    H280412   4.508   4.034  16.471  1.2988 -0.0935 -1.3057
19641TIP3   OH280413   4.678   1.230  12.413  0.1610  0.2447 -0.2165
19641TIP3    H180414   4.714   1.209  12.327 -0.4082 -1.2262 -0.1112
19641TIP3    H280415   4.754   1.249  12.467  0.5935 -0.0868 -0.7056
19642TIP3   OH280416   0.033   6.308   0.906 -0.1838 -0.0342  0.5345
19642TIP3    H180417  -0.011   6.352   0.833  0.1542 -0.3404  0.1416
19642TIP3    H280418   0.126   6.324   0.890 -0.0020 -1.5172 -0.0344
19643TIP3   OH280419   3.609   4.690  11.891 -0.0376 -0.4031  0.6892
19643TIP3    H180420   3.587   4.614  11.837 -0.7996  0.6133 -0.5017
19643TIP3    H280421   3.532   4.747  11.883  0.1741  0.1365  2.2232
19644TIP3   OH280422   2.466   0.343   2.133 -0.1689 -0.0914  0.1410
19644TIP3    H180423   2.470   0.358   2.228  0.0511  0.8646 -0.0120
19644TIP3    H280424   2.425   0.257   2.125  1.3740 -0.9794  1.1483
19645TIP3   OH280425   1.817   6.672  13.232 -0.6845  0.1798 -0.3509
19645TIP3    H180426   1.750   6.649  13.297 -1.3159  0.9924 -0.6952
19645TIP3    H280427   1.803   6.610  13.160  1.0179 -1.7527  0.8921
19646TIP3   OH280428   3.804   1.224  13.341  0.1129 -0.7523 -0.4817
19646TIP3    H180429   3.877   1.165  13.362 -1.4949 -2.4304  0.7638
19646TIP3    H280430   3.727   1.182  13.381 -1.4356  1.2941 -1.1298
19647TIP3   OH280431   3.515   3.237  12.420  0.1898 -0.1184  0.7010
19647TIP3    H180432   3.458   3.303  12.380  2.6720  0.5161 -2.1989
19647TIP3    H280433   3.592   3.287  12.448  0.4286 -1.2761  2.1836
19648TIP3   OH280434   4.782   0.330  16.774  0.3005 -0.1453  0.9331
19648TIP3    H180435   4.857   0.339  16.715  0.9411  0.5022  1.8186
19648TIP3    H280436   4.807   0.380  16.852 -2.2737  2.7411  0.0893
19649TIP3   OH280437   5.793   5.153   4.758  0.4643 -0.3506  0.3855
19649TIP3    H180438   5.755   5.220   4.701  0.9348 -0.5838 -0.2117
19649TIP3    H280439   5.768   5.180   4.846 -1.1859 -0.5620  0.0097
19650TIP3   OH280440   5.435   6.811  11.966  0.1599  0.3460 -0.8330
19650TIP3    H180441   5.343   6.829  11.985  0.1749 -0.0084 -0.4049
19650TIP3    H280442   5.468   6.766  12.045  0.2619 -1.0326 -1.6193
19651TIP3   OH280443   0.094   3.756  13.116 -0.2064  0.3088  0.2507
19651TIP3    H180444   0.048   3.840  13.120 -2.0723 -0.6357 -0.1157
19651TIP3    H280445   0.031   3.693  13.152  1.2854 -0.8930  0.8347
19652TIP3   OH280446   5.875   6.587   3.805 -0.1175  0.5546 -0.3583
19652TIP3    H180447   5.834   6.500   3.809 -1.2195  1.1017  1.9628
19652TIP3    H280448   5.889   6.611   3.896  1.2590  2.3612 -0.9774
19653TIP3   OH280449   3.073   6.676  16.571 -0.0823  0.0938 -0.1431
19653TIP3    H180450   3.032   6.594  16.600  0.7636  0.4719  2.3121
19653TIP3    H280451   3.165   6.654  16.560  0.1089  0.6592  0.2969
19654TIP3   OH280452   3.951   1.575  15.284  0.2562  0.1698 -0.0043
19654TIP3    H180453   3.907   1.642  15.231  0.6615  0.2386 -0.2575
19654TIP3    H280454   3.895   1.565  15.361  0.0607  0.6175 -0.0844
19655TIP3   OH280455   4.625   4.112   0.984  0.2069  0.3908 -0.0938
19655TIP3    H180456   4.713   4.103   1.021  0.5202  0.1448 -0.8815
19655TIP3    H280457   4.596   4.198   1.014  1.5259  1.3613 -1.4643
19656TIP3   OH280458   0.295   3.583  14.744 -0.0341 -0.4998  0.1049
19656TIP3    H180459   0.331   3.524  14.678  0.2601 -1.3398  0.9856
19656TIP3    H280460   0.313   3.671  14.711  1.5063 -0.8995 -0.1723
19657TIP3   OH280461   5.892   5.254  14.260  0.6453  0.7948  0.2583
19657TIP3    H180462   5.811   5.229  14.215  0.1890  2.7951 -0.1379
19657TIP3    H280463   5.888   5.209  14.344  0.4239 -1.2308 -0.7896
19658TIP3   OH280464   5.500   6.105   2.168 -0.4133 -0.3080 -0.5443
19658TIP3    H180465   5.456   6.056   2.237  0.6941 -0.9641 -0.2959
19658TIP3    H280466   5.491   6.197   2.195  1.3072 -0.6197  1.2868
19659TIP3   OH280467   2.839   2.222   6.225 -0.0650 -0.0701  0.6779
19659TIP3    H180468   2.824   2.139   6.271  0.5169 -0.2815  0.4927
19659TIP3    H280469   2.757   2.271   6.237 -0.0304 -0.2361  1.6933
19660TIP3   OH280470   5.300   4.354  16.565 -0.1650 -0.0995  0.5330
19660TIP3    H180471   5.321   4.288  16.631  0.6643  0.2899  0.6779
19660TIP3    H280472   5.385   4.386  16.535 -0.5360 -0.0372 -0.4932
19661TIP3   OH280473   5.840   0.414  15.349  0.3603 -0.2174  0.1224
19661TIP3    H180474   5.871   0.414  15.258 -1.1137 -0.2796 -0.4009
19661TIP3    H280475   5.876   0.495  15.386  1.8219 -0.6938 -0.1991
19662TIP3   OH280476   4.323   2.591  11.144  0.6586  0.4162 -0.0795
19662TIP3    H180477   4.288   2.680  11.137  0.7041  0.3989 -0.6108
19662TIP3    H280478   4.318   2.570  11.237 -0.2468  0.6121 -0.0776
19663TIP3   OH280479   0.911   2.260  16.319 -0.6729 -0.1978  0.8087
19663TIP3    H180480   0.855   2.213  16.381 -2.0095 -0.4198 -0.4873
19663TIP3    H280481   0.922   2.198  16.246  0.0922  0.3747  0.4258
19664TIP3   OH280482   5.127   4.897   4.189  0.1945  0.3395 -0.2453
19664TIP3    H180483   5.127   4.817   4.242 -1.1923 -0.0625 -0.8369
19664TIP3    H280484   5.039   4.932   4.198  0.5670  1.4048 -0.6081
19665TIP3   OH280485   2.158   0.633  12.943  0.1841  0.4368 -0.5879
19665TIP3    H180486   2.207   0.596  13.017  0.0656 -0.0875 -0.7692
19665TIP3    H280487   2.079   0.581  12.937 -0.8463  1.8416  0.2509
19666TIP3   OH280488   4.360   6.540  12.083 -0.4114 -0.2097  0.1768
19666TIP3    H180489   4.418   6.468  12.106 -0.9940 -1.1109 -1.0937
19666TIP3    H280490   4.378   6.607  12.149  0.6223 -1.2435  0.9800
19667TIP3   OH280491   4.499   2.058  10.414  0.0847  0.3307  0.3889
19667TIP3    H180492   4.448   1.977  10.416 -1.1416  1.0732  0.1965
19667TIP3    H280493   4.446   2.121  10.464  0.3672  1.3674 -0.5769
19668TIP3   OH280494   0.595   2.671   0.522 -0.8837 -0.0996  0.4811
19668TIP3    H180495   0.595   2.622   0.604 -0.2418 -1.1761 -0.1460
19668TIP3    H280496   0.680   2.715   0.521 -1.2289  0.5898  0.7738
19669TIP3   OH280497   0.914   4.857   4.166  0.4378  0.3377 -0.0331
19669TIP3    H180498   0.840   4.841   4.109  1.1039 -1.9586 -0.3693
19669TIP3    H280499   0.887   4.823   4.251  1.4847 -1.7517 -0.4668
19670TIP3   OH280500   1.709   5.903   1.217  0.7133 -0.4867 -0.1821
19670TIP3    H180501   1.647   5.842   1.175 -0.1745 -1.1276  1.9017
19670TIP3    H280502   1.653   5.972   1.252  1.2466 -0.6750  1.0740
19671TIP3   OH280503   2.631   0.525  13.382 -0.2161 -0.1339 -0.2731
19671TIP3    H180504   2.712   0.484  13.413  0.8117  1.3715 -0.8516
19671TIP3    H280505   2.613   0.483  13.299  1.0265  0.7681 -1.0343
19672TIP3   OH280506   1.439   1.493   3.529 -0.0708  0.3610 -0.1026
19672TIP3    H180507   1.426   1.413   3.578 -1.3512 -0.6781 -1.9840
19672TIP3    H280508   1.413   1.471   3.439 -1.3743  3.1072 -0.5215
19673TIP3   OH280509   3.053   6.723  13.816  0.4901  0.0331  0.0564
19673TIP3    H180510   3.007   6.774  13.749  0.1406 -0.4346 -0.0712
19673TIP3    H280511   3.000   6.644  13.825 -0.5238  0.8894  2.2477
19674TIP3   OH280512   6.051   2.778   2.924 -0.5425 -0.4202  0.5776
19674TIP3    H180513   6.050   2.780   2.828  0.4328  0.3951  0.5621
19674TIP3    H280514   5.989   2.846   2.950 -1.7279 -1.4637  0.5555
19675TIP3   OH280515   4.024   0.591   1.937  0.8201  0.0927 -0.2261
19675TIP3    H180516   3.968   0.659   1.898  0.2759 -0.4504 -0.4102
19675TIP3    H280517   3.973   0.559   2.011  0.6400 -0.7927 -0.7229
19676TIP3   OH280518   5.572   0.250   4.562  0.0621  0.2605  0.5321
19676TIP3    H180519   5.548   0.157   4.573 -0.6835  0.5441  1.4437
19676TIP3    H280520   5.665   0.253   4.584  0.0571 -0.2476  0.6440
19677TIP3   OH280521   3.487   2.177  13.490 -0.4174  0.2115  0.4114
19677TIP3    H180522   3.563   2.177  13.431 -1.6380  0.9118 -1.2461
19677TIP3    H280523   3.429   2.110  13.454 -0.8804  0.1389  1.2675
19678TIP3   OH280524   2.669   1.827  16.249 -0.4777  0.2134 -0.0030
19678TIP3    H180525   2.676   1.921  16.233 -1.3655  0.4536  0.9356
19678TIP3    H280526   2.617   1.794  16.176  0.2088  0.3585 -0.5777
19679TIP3   OH280527   6.449   6.774   0.250  0.5142  0.1549 -0.0747
19679TIP3    H180528   6.372   6.794   0.196  1.2767  3.1058 -0.2461
19679TIP3    H280529   6.499   6.711   0.198 -1.8719 -2.1736  0.2252
19680TIP3   OH280530   1.345   5.511  16.050 -0.6812  0.6556  0.4922
19680TIP3    H180531   1.323   5.542  15.962  0.3449  0.2896  0.0954
19680TIP3    H280532   1.365   5.418  16.039  0.8891  0.9254  0.8405
19681TIP3   OH280533   0.575   2.639  11.334 -0.0639 -0.3722  0.2433
19681TIP3    H180534   0.481   2.620  11.337 -0.9475  3.0646 -0.5229
19681TIP3    H280535   0.609   2.587  11.262 -2.0471  0.4235 -1.3592
19682TIP3   OH280536   1.182   2.451  14.059  0.1045  0.4014  0.2767
19682TIP3    H180537   1.139   2.536  14.063 -0.1108  0.3868 -1.1151
19682TIP3    H280538   1.275   2.471  14.064  0.0466  0.7048  0.1851
19683TIP3   OH280539   5.473   5.189   2.673 -0.0019  0.6528 -0.2374
19683TIP3    H180540   5.386   5.152   2.690  0.4665  0.2138  1.4485
19683TIP3    H280541   5.519   5.121   2.623 -0.1340  0.2149  0.2291
19684TIP3   OH280542   0.562   5.497   2.591  0.0407 -0.7241 -0.5569
19684TIP3    H180543   0.545   5.581   2.635 -2.8200 -0.4501 -1.9679
19684TIP3    H280544   0.582   5.521   2.501  0.3985 -1.5161 -0.6919
19685TIP3   OH280545   3.447   3.484  17.029  0.2323  0.2631 -0.0417
19685TIP3    H180546   3.383   3.459  17.095  0.8587  0.4756  0.6630
19685TIP3    H280547   3.456   3.579  17.038 -0.6478  0.4974 -1.3383
19686TIP3   OH280548   6.148   1.365   5.954  0.4658 -0.0195 -0.1235
19686TIP3    H180549   6.099   1.283   5.947 -0.4146 -0.0144  3.8070
19686TIP3    H280550   6.239   1.337   5.968  0.2091 -0.3464  0.9506
19687TIP3   OH280551   2.086   0.282  12.398 -0.0405  0.4052 -0.1942
19687TIP3    H180552   2.170   0.241  12.382 -0.3515 -0.1311 -0.4780
19687TIP3    H280553   2.107   0.362  12.446  0.6435  0.3851 -0.4478
19688TIP3   OH280554   0.229   5.860   6.544  0.3960 -0.1203 -0.3677
19688TIP3    H180555   0.258   5.865   6.453  1.4446  0.3524 -0.0215
19688TIP3    H280556   0.260   5.774   6.574  1.6444  0.4585  0.0552
19689TIP3   OH280557   4.471   6.280  13.085  0.6139  0.4645  0.1465
19689TIP3    H180558   4.429   6.363  13.108  0.7882  0.7068 -0.4099
19689TIP3    H280559   4.477   6.233  13.168  2.3523  1.8187  0.8520
19690TIP3   OH280560   6.449   2.596   2.484 -0.1269 -0.4061  0.2830
19690TIP3    H180561   6.498   2.525   2.526  0.0082 -0.0945  0.6595
19690TIP3    H280562   6.380   2.551   2.435 -0.9289 -0.7435  1.6601
19691TIP3   OH280563   1.907   5.578  10.899  0.1988  0.5085 -0.6741
19691TIP3    H180564   1.952   5.506  10.944 -1.6595  0.0196  0.5202
19691TIP3    H280565   1.975   5.619  10.845  1.6703 -1.1617 -0.1872
19692TIP3   OH280566   4.647   0.843  15.038  0.3128 -0.7990 -0.3317
19692TIP3    H180567   4.687   0.915  15.087 -2.2817 -0.2057  1.0832
19692TIP3    H280568   4.607   0.886  14.962 -0.6057 -0.8246  0.1251
19693TIP3   OH280569   4.308   0.689  13.936 -0.1055  0.3715  0.1213
19693TIP3    H180570   4.287   0.783  13.931  0.5142  0.5280  0.4230
19693TIP3    H280571   4.228   0.646  13.904 -0.3626  1.0002 -0.1157
19694TIP3   OH280572   1.706   6.652  16.354  0.0337 -0.7309  0.9650
19694TIP3    H180573   1.713   6.635  16.260 -2.0525 -0.2615  0.6826
19694TIP3    H280574   1.795   6.642  16.387  0.6444 -1.8602 -0.8955
19695TIP3   OH280575   3.388   3.280   4.811  0.4768 -0.3367 -0.6990
19695TIP3    H180576   3.318   3.337   4.781  1.4442  0.8720 -0.7273
19695TIP3    H280577   3.464   3.304   4.757  1.1297 -1.0603 -0.1363
19696TIP3   OH280578   2.666   4.330  14.584  0.4233  0.2620  0.8686
19696TIP3    H180579   2.577   4.349  14.556  0.2664  2.6322  2.6506
19696TIP3    H280580   2.719   4.400  14.545  1.0750  0.3199  1.8281
19697TIP3   OH280581   4.004   0.103   1.675 -1.4921 -0.6280  0.7026
19697TIP3    H180582   4.014   0.190   1.636 -0.9341 -1.8159 -2.0333
19697TIP3    H280583   4.087   0.088   1.721 -0.8160 -0.4187 -0.4057
19698TIP3   OH280584   5.836   5.541   2.361 -0.0966 -0.2676 -0.2482
19698TIP3    H180585   5.885   5.527   2.280  0.8030 -1.0474  0.4172
19698TIP3    H280586   5.804   5.454   2.385  1.0034 -0.3434  1.0682
19699TIP3   OH280587   1.137   2.892  16.033 -0.2783 -0.0384 -0.3754
19699TIP3    H180588   1.212   2.917  15.978 -0.1391  0.0514 -0.1446
19699TIP3    H280589   1.175   2.844  16.106 -0.3208  1.0734  0.3935
19700TIP3   OH280590   1.866   2.921  12.178  0.1762  0.0322  0.0448
19700TIP3    H180591   1.821   2.928  12.263 -1.5897  0.4585 -0.8689
19700TIP3    H280592   1.882   3.011  12.152  2.3236 -0.1082  0.6706
19701TIP3   OH280593   6.401   4.880  13.591  0.2541  0.2380  0.1445
19701TIP3    H180594   6.316   4.848  13.560 -0.2745  1.6795  0.0491
19701TIP3    H280595   6.465   4.844  13.529 -0.3485 -0.3543 -0.1393
19702TIP3   OH280596   6.031   3.400   4.705 -0.4441  0.5277  0.1757
19702TIP3    H180597   6.122   3.390   4.676 -0.9715 -1.8737 -0.9586
19702TIP3    H280598   5.985   3.430   4.627 -0.7966  0.6774  0.4416
19703TIP3   OH280599   0.126   5.327   3.212 -0.1228 -0.3698 -0.2146
19703TIP3    H180600   0.045   5.306   3.166  0.2993  2.0895 -2.3559
19703TIP3    H280601   0.099   5.389   3.280 -0.5563 -2.9815  2.1468
19704TIP3   OH280602   0.313   5.860   1.710  0.2018 -0.3476  0.4155
19704TIP3    H180603   0.243   5.926   1.701 -0.9936 -1.6984 -0.7223
19704TIP3    H280604   0.272   5.778   1.682  1.7137 -1.5631  1.6006
19705TIP3   OH280605   1.456   5.620   1.518 -0.1377 -0.4296  0.1927
19705TIP3    H180606   1.547   5.634   1.546  0.1001  1.1577 -1.1517
19705TIP3    H280607   1.406   5.684   1.568  0.0098  0.9954 -1.3545
19706TIP3   OH280608   6.779   4.802   2.082  0.0900  0.4987  0.3989
19706TIP3    H180609   6.749   4.889   2.056  1.5456  0.9672  0.1537
19706TIP3    H280610   6.859   4.819   2.133  0.4733 -0.7021  0.2305
19707TIP3   OH280611   4.979   2.409   2.319 -0.3375  0.2873 -0.0488
19707TIP3    H180612   4.888   2.396   2.345 -0.5884 -0.9012 -1.3988
19707TIP3    H280613   4.981   2.497   2.282 -0.8086  0.5437  0.5249
19708TIP3   OH280614   3.253   5.977  13.386 -0.6098 -0.2113 -0.4154
19708TIP3    H180615   3.262   5.909  13.452  0.8034  1.1148  0.8531
19708TIP3    H280616   3.241   5.930  13.304 -1.5525 -1.9204  0.6502
19709TIP3   OH280617   1.778   1.657   3.094  0.2269 -0.1709  0.4978
19709TIP3    H180618   1.860   1.632   3.136  0.6924  1.7213  0.7762
19709TIP3    H280619   1.744   1.729   3.147 -0.4306  0.6160 -0.9430
19710TIP3   OH280620   1.374   5.996  16.797  0.6126 -0.6454 -0.3981
19710TIP3    H180621   1.453   5.947  16.817  1.0620  0.8079  1.7766
19710TIP3    H280622   1.308   5.929  16.779  1.9878 -1.9216 -0.8754
19711TIP3   OH280623   1.099   1.633  13.988  0.0505 -0.2388  0.1941
19711TIP3    H180624   1.113   1.590  13.903  0.3402  0.1104  0.0621
19711TIP3    H280625   1.042   1.707  13.967 -1.2589 -1.0966  0.5734
19712TIP3   OH280626   4.074   5.592  16.590 -0.0264  0.0876  0.0961
19712TIP3    H180627   3.983   5.623  16.595 -0.3492 -0.7286 -0.5618
19712TIP3    H280628   4.125   5.672  16.575 -0.8174  0.3835 -1.2609
19713TIP3   OH280629   2.649   6.555   4.857 -0.4071 -0.5062  0.4823
19713TIP3    H180630   2.597   6.613   4.801 -3.0346 -1.7208  1.4767
19713TIP3    H280631   2.690   6.614   4.920 -1.2201  0.4748  0.1286
19714TIP3   OH280632   0.920   3.784  16.453  0.3096 -0.3380 -0.3337
19714TIP3    H180633   0.902   3.757  16.363  0.9153  1.0807 -0.9006
19714TIP3    H280634   0.981   3.857  16.445  2.0856 -1.5187  1.2982
19715TIP3   OH280635   5.417   0.451  12.543 -0.2343 -0.6073 -0.5209
19715TIP3    H180636   5.426   0.358  12.567  0.9089 -0.4960 -0.4473
19715TIP3    H280637   5.342   0.454  12.485  0.7858 -1.8738 -1.9759
19716TIP3   OH280638   4.849   4.092   5.977  0.3596 -0.3588  0.2453
19716TIP3    H180639   4.831   4.117   5.887  0.2754 -0.5890  0.1981
19716TIP3    H280640   4.921   4.029   5.972  0.7838  0.1035  0.3885
19717TIP3   OH280641   4.615   1.672  15.522 -0.0338  0.9061  0.2751
19717TIP3    H180642   4.658   1.587  15.529 -0.6331  0.5626 -0.0978
19717TIP3    H280643   4.618   1.692  15.428  0.7338  1.6335  0.4460
19718TIP3   OH280644   2.566   6.331  14.826 -0.7767 -0.6229  0.5313
19718TIP3    H180645   2.479   6.290  14.831 -1.3099  0.4707  0.4975
19718TIP3    H280646   2.623   6.272  14.876 -1.1186 -2.3678 -1.0225
19719TIP3   OH280647   5.403   3.453  12.224  1.3061  0.3171 -0.4342
19719TIP3    H180648   5.468   3.487  12.163 -0.2541  0.2547 -2.2161
19719TIP3    H280649   5.325   3.507  12.210  1.2354  1.1284  2.4332
19720TIP3   OH280650   1.153   2.020  12.408  0.1412  0.8009  0.3271
19720TIP3    H180651   1.083   2.048  12.468 -3.1461 -2.4717 -1.5673
19720TIP3    H280652   1.109   2.009  12.324  3.0948 -0.9270 -1.1364
19721TIP3   OH280653   6.686   0.553  16.323  0.3512 -0.2787 -0.1005
19721TIP3    H180654   6.626   0.607  16.374  1.1734 -0.1210  0.7255
19721TIP3    H280655   6.692   0.471  16.372  0.0317 -0.6658 -0.7118
19722TIP3   OH280656   6.321   0.571  16.898 -0.1355 -0.0103 -0.1031
19722TIP3    H180657   6.238   0.606  16.866  0.6291  1.3008 -0.7324
19722TIP3    H280658   6.321   0.479  16.869 -1.3954 -0.0579 -0.0007
19723TIP3   OH280659   4.804   1.836  10.691  0.1000  0.6346  0.1207
19723TIP3    H180660   4.848   1.917  10.666  1.7753  0.2796  1.6869
19723TIP3    H280661   4.809   1.834  10.787 -0.5982 -0.9274  0.1653
19724TIP3   OH280662   3.029   3.154  12.569 -0.0629  0.2867  0.0494
19724TIP3    H180663   2.991   3.230  12.525 -0.6627  0.3593  0.6789
19724TIP3    H280664   3.026   3.084  12.503  0.7025  0.8526 -0.6095
19725TIP3   OH280665   2.041   1.918  15.562 -0.2572 -0.4268  0.2766
19725TIP3    H180666   2.027   1.995  15.508 -1.2095  0.6280  1.9257
19725TIP3    H280667   2.086   1.856  15.505  0.7481  1.4183 -1.0502
19726TIP3   OH280668   2.517   2.116  16.514 -0.2723  0.0862  0.3055
19726TIP3    H180669   2.478   2.174  16.449  2.2631  0.8302 -0.6875
19726TIP3    H280670   2.450   2.050  16.532 -2.9186  2.6667  0.7214
19727TIP3   OH280671   3.439   6.236  17.077 -0.2507  0.0503  0.3276
19727TIP3    H180672   3.447   6.271  16.989  1.5837  1.4382  0.9589
19727TIP3    H280673   3.350   6.259  17.105 -1.4217 -1.7746 -1.6356
19728TIP3   OH280674   2.741   2.941   2.379 -0.6448 -0.3659 -0.0279
19728TIP3    H180675   2.750   2.941   2.283  1.8626 -2.8059  0.0540
19728TIP3    H280676   2.778   2.856   2.406  0.7605  1.1097  3.2454
19729TIP3   OH280677   3.272   5.794  15.859  0.0255 -0.4346  0.1850
19729TIP3    H180678   3.241   5.738  15.930  1.0356  1.2866  2.1034
19729TIP3    H280679   3.224   5.876  15.871 -0.3651 -0.3374 -1.6623
19730TIP3   OH280680   5.654   2.045   1.674 -0.3167 -0.2931 -0.3267
19730TIP3    H180681   5.664   2.115   1.609 -0.9851 -0.8371 -1.0282
19730TIP3    H280682   5.729   1.987   1.658  0.6349  0.6051  0.7194
19731TIP3   OH280683   5.115   1.880  16.178  0.3742 -0.3260  0.6986
19731TIP3    H180684   5.149   1.842  16.097 -2.2314  0.3759 -0.8496
19731TIP3    H280685   5.151   1.969  16.179  0.0420 -0.1808  0.0536
19732TIP3   OH280686   2.798   5.987  15.275 -0.0148 -0.6365 -0.1347
19732TIP3    H180687   2.747   6.067  15.273 -0.4272 -0.8893 -1.8260
19732TIP3    H280688   2.735   5.918  15.297  0.1304 -0.6333  0.3025
19733TIP3   OH280689   1.556   1.957   3.637 -0.4382  0.2824  0.9666
19733TIP3    H180690   1.625   1.961   3.703  1.0431 -0.1621 -0.5002
19733TIP3    H280691   1.557   2.043   3.595  0.4967 -0.2882 -0.2514
19734TIP3   OH280692   4.420   0.929   6.716  0.6489  1.2520  0.5261
19734TIP3    H180693   4.342   0.984   6.709 -1.1857 -1.3160 -1.8191
19734TIP3    H280694   4.434   0.897   6.627 -0.2725 -4.1817  1.9556
19735TIP3   OH280695   1.928   6.301   0.237  0.0971 -0.2189 -0.4078
19735TIP3    H180696   1.853   6.361   0.231  0.1565  0.0724  1.2149
19735TIP3    H280697   1.896   6.220   0.197 -1.2928 -0.2492  0.6393
19736TIP3   OH280698   3.485   5.228   4.531  0.0738  0.0039 -0.0480
19736TIP3    H180699   3.463   5.246   4.622 -0.8289  0.0515 -0.2718
19736TIP3    H280700   3.532   5.306   4.502  0.0727  0.1281  0.2822
19737TIP3   OH280701   3.400   4.853   0.104 -0.1491 -0.6259 -0.2474
19737TIP3    H180702   3.464   4.784   0.090  0.8245  0.2613 -0.2610
19737TIP3    H280703   3.445   4.934   0.079 -0.9919  0.1083  0.5277
19738TIP3   OH280704   6.466   6.420   2.225  0.1298 -0.2153  0.4821
19738TIP3    H180705   6.513   6.494   2.261 -0.3097  0.7787 -0.9122
19738TIP3    H280706   6.373   6.441   2.238 -0.0376  0.1456 -1.1203
19739TIP3   OH280707   3.216   0.917   4.729  0.3093 -0.1458  0.0669
19739TIP3    H180708   3.141   0.920   4.669  1.5589  0.4542 -1.5405
19739TIP3    H280709   3.181   0.950   4.812 -1.5609 -1.2812 -0.1953
19740TIP3   OH280710   4.016   6.050  15.012 -0.5422 -0.5842  0.2895
19740TIP3    H180711   3.977   6.047  15.099  0.6461  2.1545  1.0366
19740TIP3    H280712   3.965   6.115  14.964  0.5540  0.0550 -0.0589
19741TIP3   OH280713   5.597   0.751  13.286  0.0326 -0.3139 -0.3416
19741TIP3    H180714   5.569   0.842  13.288  2.3893  0.4615  0.1516
19741TIP3    H280715   5.634   0.739  13.198 -1.8988 -1.3801 -1.0656
19742TIP3   OH280716   4.659   0.531  13.842 -0.1444  0.2778 -0.0589
19742TIP3    H180717   4.642   0.468  13.772 -1.5593  0.6351 -0.0783
19742TIP3    H280718   4.714   0.484  13.905 -2.4353 -1.5691  0.6913
19743TIP3   OH280719   4.204   5.254  16.308  0.0775  0.0780  0.9993
19743TIP3    H180720   4.224   5.163  16.328 -2.3586 -0.6203  0.5814
19743TIP3    H280721   4.169   5.290  16.389 -0.7548  0.0532  0.6672
19744TIP3   OH280722   4.465   0.565   3.884  0.3832 -0.2721 -0.1504
19744TIP3    H180723   4.482   0.595   3.973 -0.2320  0.5856 -0.3105
19744TIP3    H280724   4.480   0.470   3.887  1.1994 -0.1288  0.6482
19745TIP3   OH280725   4.578   2.355   5.329 -0.4399 -0.7057  0.2230
19745TIP3    H180726   4.488   2.339   5.302 -0.7761  2.3763 -0.8490
19745TIP3    H280727   4.632   2.314   5.262 -1.1906  1.1346 -1.6080
19746TIP3   OH280728   3.362   2.143  15.298 -0.0137  0.2621 -0.5456
19746TIP3    H180729   3.405   2.066  15.336 -1.1696  0.3479  1.0323
19746TIP3    H280730   3.318   2.109  15.220 -1.0199 -0.8686  0.4540
19747TIP3   OH280731   2.275   3.372  15.994  0.5098  0.9363  0.1893
19747TIP3    H180732   2.317   3.303  15.942 -0.3683  0.7508 -0.2796
19747TIP3    H280733   2.344   3.400  16.054  0.6784 -0.8717  0.9203
19748TIP3   OH280734   3.258   4.883   0.667 -0.0107 -0.1612 -0.0352
19748TIP3    H180735   3.329   4.858   0.727  0.5193  0.6489 -0.2950
19748TIP3    H280736   3.192   4.815   0.678  0.4692 -0.5132  0.7985
19749TIP3   OH280737   5.758   3.833  15.367 -0.7149  0.3086  0.3514
19749TIP3    H180738   5.828   3.819  15.303 -0.1235  0.7492  0.8905
19749TIP3    H280739   5.747   3.928  15.370 -2.1640  0.1925 -0.5896
19750TIP3   OH280740   3.441   4.222   1.333  0.2447  0.0476 -0.4221
19750TIP3    H180741   3.503   4.293   1.347  0.6572 -0.5090  0.8049
19750TIP3    H280742   3.453   4.166   1.410 -1.2981 -0.4284 -0.5087
19751TIP3   OH280743   6.279   6.070  11.007 -0.3036  0.0262  0.2640
19751TIP3    H180744   6.237   6.145  10.964  1.6631  1.3588  0.5466
19751TIP3    H280745   6.222   6.051  11.081 -1.3635  0.5861 -0.3692
19752TIP3   OH280746   4.989   0.759  14.513  0.0549  0.3040 -0.1376
19752TIP3    H180747   4.975   0.823  14.583 -0.2869 -0.8728  0.9236
19752TIP3    H280748   4.903   0.747  14.474 -0.2172 -0.6284  0.7037
19753TIP3   OH280749   2.199   2.231  16.159 -0.0284 -0.5767 -0.0883
19753TIP3    H180750   2.269   2.228  16.225 -0.3633  2.0228  0.4595
19753TIP3    H280751   2.119   2.248  16.209 -0.7471 -1.3986 -0.9268
19754TIP3   OH280752   1.109   6.010  11.245  0.2727 -0.2442 -0.3838
19754TIP3    H180753   1.021   5.996  11.212 -0.1273 -1.6706  1.1422
19754TIP3    H280754   1.105   6.096  11.288 -0.5870 -0.5764  0.2351
19755TIP3   OH280755   2.103   2.760  10.873  0.1805 -0.2626 -0.1036
19755TIP3    H180756   2.072   2.815  10.945  0.6035 -0.1170 -0.0289
19755TIP3    H280757   2.189   2.795  10.851  0.6280 -1.1453  0.2080
19756TIP3   OH280758   0.988   6.659   4.487 -0.1599 -0.4145 -0.1729
19756TIP3    H180759   1.026   6.690   4.569  0.2630 -0.4394 -0.3600
19756TIP3    H280760   0.906   6.617   4.513 -0.5008  0.4167  0.1367
19757TIP3   OH280761   4.987   4.946  13.027  0.5032 -0.1291  0.0203
19757TIP3    H180762   5.038   4.925  12.949  0.6147 -1.7637  0.4973
19757TIP3    H280763   4.910   4.890  13.021  0.1822  0.2244  0.7406
19758TIP3   OH280764   1.372   5.691   2.450  0.0080  0.1058 -0.4127
19758TIP3    H180765   1.358   5.779   2.486 -0.8180 -0.5262  0.8947
19758TIP3    H280766   1.409   5.706   2.363 -0.5299  1.7554 -0.3874
19759TIP3   OH280767   3.764   5.346  15.538  0.0189  0.2921 -0.9029
19759TIP3    H180768   3.858   5.338  15.556 -0.5761 -0.7578  2.4243
19759TIP3    H280769   3.745   5.438  15.554  0.5234  0.6369 -2.1442
19760TIP3   OH280770   0.113   0.484  12.152 -0.9086 -0.2189 -0.5290
19760TIP3    H180771   0.194   0.506  12.105  0.3619 -0.3450  1.5014
19760TIP3    H280772   0.091   0.397  12.121  1.9159 -1.8589  1.5661
19761TIP3   OH280773   1.864   0.869   1.768 -0.4277  0.1198  0.0561
19761TIP3    H180774   1.820   0.833   1.691  1.6528 -1.1188 -0.6309
19761TIP3    H280775   1.957   0.870   1.745  0.0891  1.3355  1.9393
19762TIP3   OH280776   5.211   6.599  16.769 -0.0651 -0.1275 -0.6999
19762TIP3    H180777   5.250   6.548  16.698 -1.2059 -2.3152  0.1346
19762TIP3    H280778   5.121   6.567  16.775  0.2075 -0.6195  2.2056
19763TIP3   OH280779   0.221   5.684  15.019  0.0278 -0.0545 -0.5045
19763TIP3    H180780   0.142   5.663  15.068  0.2400 -1.4790 -0.7333
19763TIP3    H280781   0.189   5.708  14.932 -0.1784 -0.1509 -0.4568
19764TIP3   OH280782   4.738   6.334   3.945  0.3811  0.0766  0.1483
19764TIP3    H180783   4.791   6.412   3.965 -0.1996  0.4032  0.4252
19764TIP3    H280784   4.648   6.366   3.941  0.3181 -0.1815 -1.8129
19765TIP3   OH280785   5.061   4.626  15.364 -0.2684 -0.4321 -0.2775
19765TIP3    H180786   5.132   4.642  15.302 -0.3236 -0.2911 -0.3056
19765TIP3    H280787   5.000   4.698  15.350 -0.2493 -0.3620 -0.0158
19766TIP3   OH280788   5.137   5.252  12.129 -0.1530 -0.1512  0.0602
19766TIP3    H180789   5.158   5.287  12.215  1.2924  0.3484 -0.4713
19766TIP3    H280790   5.089   5.171  12.148 -1.7992  1.0298  1.3013
19767TIP3   OH280791   6.329   0.801   1.793  0.1367  0.0264 -0.3608
19767TIP3    H180792   6.268   0.868   1.826 -0.7089  0.3477 -2.4329
19767TIP3    H280793   6.305   0.790   1.701  1.5948 -1.6897 -0.5865
19768TIP3   OH280794   2.754   5.389   4.861  0.0968  0.0357 -0.5594
19768TIP3    H180795   2.661   5.408   4.850 -0.2747 -1.5966 -0.4950
19768TIP3    H280796   2.761   5.351   4.949  0.7287 -0.4380 -0.8080
19769TIP3   OH280797   3.338   2.294   3.899 -0.4060  0.1937 -0.2380
19769TIP3    H180798   3.326   2.355   3.972  0.5407 -1.5066  1.4199
19769TIP3    H280799   3.386   2.345   3.833  1.2820  0.9933  1.5102
19770TIP3   OH280800   5.954   2.862   0.977  0.2102  0.1731 -0.2162
19770TIP3    H180801   5.909   2.784   1.009  0.7065  0.7663  2.2053
19770TIP3    H280802   6.030   2.828   0.930  0.7339 -0.8519  1.2917
19771TIP3   OH280803   6.496   5.468  16.572  0.2107 -0.5782  0.0916
19771TIP3    H180804   6.417   5.498  16.617 -0.9924 -1.5965 -1.2662
19771TIP3    H280805   6.466   5.442  16.485  2.5252  1.8489 -1.5953
19772TIP3   OH280806   2.392   6.583  14.043  0.2529 -0.0588 -0.7800
19772TIP3    H180807   2.343   6.504  14.068  0.3527 -0.0997 -0.7075
19772TIP3    H280808   2.479   6.550  14.019  1.0101  0.2259  1.3288
19773TIP3   OH280809   5.435   1.662  12.161 -0.6078  0.4089  0.4135
19773TIP3    H180810   5.491   1.628  12.091 -1.8992  0.6445 -0.7801
19773TIP3    H280811   5.478   1.743  12.189 -1.1833  1.5134 -1.6917
19774TIP3   OH280812   3.510   5.694   5.522 -0.1085  0.0820  0.5808
19774TIP3    H180813   3.428   5.651   5.498  0.0485 -0.2573  0.6372
19774TIP3    H280814   3.578   5.630   5.498  0.2255  0.8470 -0.6193
19775TIP3   OH280815   4.797   3.625  14.122 -0.4879  0.8714 -0.4660
19775TIP3    H180816   4.746   3.604  14.044 -0.9239  0.4365 -0.0703
19775TIP3    H280817   4.778   3.717  14.140 -1.2381  0.6829 -0.2527
19776TIP3   OH280818   2.685   4.737  12.895 -0.4612  0.1815  0.4392
19776TIP3    H180819   2.712   4.820  12.856  0.1386 -0.2067 -0.0080
19776TIP3    H280820   2.764   4.704  12.938 -0.4493 -0.5456 -0.1068
19777TIP3   OH280821   1.218   6.292  12.651  0.6251 -0.0223 -0.4353
19777TIP3    H180822   1.231   6.268  12.743  1.0649  1.1274 -0.1817
19777TIP3    H280823   1.260   6.221  12.602 -1.0268 -1.5090  0.1844
19778TIP3   OH280824   4.705   2.725  12.424  0.4455  0.2929  0.0205
19778TIP3    H180825   4.713   2.701  12.332  1.9017 -1.0851  0.4671
19778TIP3    H280826   4.669   2.814  12.422  2.6273  1.2326 -1.9544
19779TIP3   OH280827   5.824   1.296   3.431  0.3378 -0.5915  0.0406
19779TIP3    H180828   5.814   1.219   3.487  0.6832 -0.4943  0.2357
19779TIP3    H280829   5.781   1.367   3.480  1.0272 -0.4086  0.3913
19780TIP3   OH280830   2.779   1.350   5.082 -0.1714 -0.4119 -0.9127
19780TIP3    H180831   2.761   1.263   5.047  0.9666 -1.7068  1.4273
19780TIP3    H280832   2.744   1.347   5.171  0.2806  1.3777 -0.6421
19781TIP3   OH280833   0.367   1.096  16.644 -0.0644  0.0564  0.7306
19781TIP3    H180834   0.274   1.110  16.662 -0.5609 -1.4862 -0.4284
19781TIP3    H280835   0.411   1.123  16.724 -1.3755  2.0447  0.8551
19782TIP3   OH280836   3.131   4.338  13.627  0.4971 -0.8093 -0.2111
19782TIP3    H180837   3.067   4.332  13.698  0.1322  0.9776 -0.3416
19782TIP3    H280838   3.180   4.256  13.632  0.7488 -0.5999  2.3663
19783TIP3   OH280839   0.150   5.960   1.109 -0.1239  0.2215 -0.0527
19783TIP3    H180840   0.106   5.889   1.062  0.6473 -0.1884 -0.1680
19783TIP3    H280841   0.096   5.975   1.186 -0.2442 -0.5680  0.0296
19784TIP3   OH280842   3.764   1.447  16.346 -0.7282  0.1557 -0.0774
19784TIP3    H180843   3.805   1.499  16.415  0.3126  1.9065 -1.9226
19784TIP3    H280844   3.749   1.509  16.275 -0.8602 -1.7771 -1.8159
19785TIP3   OH280845   0.084   5.084   0.446  0.0135  0.4408  0.5144
19785TIP3    H180846   0.129   5.162   0.416 -1.2444  1.6068  1.5283
19785TIP3    H280847   0.154   5.021   0.464  1.0104  1.0697 -0.9615
19786TIP3   OH280848   5.313   4.202  11.276  0.2905  0.3002  0.0571
19786TIP3    H180849   5.352   4.194  11.188 -0.7598 -0.1422 -0.3824
19786TIP3    H280850   5.388   4.194  11.336  0.9492  0.0082 -0.7786
19787TIP3   OH280851   5.569   0.556   1.240 -0.8194 -0.1956  0.7536
19787TIP3    H180852   5.654   0.523   1.211 -0.4350  2.3631 -1.4873
19787TIP3    H280853   5.529   0.483   1.287  2.3659 -1.6674  1.4442
19788TIP3   OH280854   3.910   2.298   0.007  0.1594 -0.7816 -0.3460
19788TIP3    H180855   3.991   2.247   0.007  0.4710 -0.3144 -1.8646
19788TIP3    H280856   3.884   2.302  -0.085 -0.2015  1.2461 -0.1883
19789TIP3   OH280857   1.041   0.311   0.718 -0.0067 -0.3177 -0.4634
19789TIP3    H180858   0.976   0.256   0.673 -0.1074  1.0084 -1.9862
19789TIP3    H280859   1.115   0.253   0.732 -1.3496 -1.7970  1.0579
19790TIP3   OH280860   4.824   1.610   6.405  0.3883  0.2596 -0.5493
19790TIP3    H180861   4.920   1.612   6.406  0.4445 -0.6399 -1.7129
19790TIP3    H280862   4.798   1.696   6.373  0.8110  0.4629 -0.3538
19791TIP3   OH280863   6.173   1.228   1.908  0.0519  0.1604 -0.2757
19791TIP3    H180864   6.101   1.287   1.931 -0.8052 -0.5353 -1.0504
19791TIP3    H280865   6.149   1.145   1.948  0.7845  0.0985  0.0413
19792TIP3   OH280866   2.206   4.662   6.214  0.4182 -0.2118 -0.5084
19792TIP3    H180867   2.144   4.728   6.246  0.1925  0.0982 -1.5571
19792TIP3    H280868   2.206   4.594   6.281  0.6536  0.8480  0.5980
19793TIP3   OH280869   5.272   3.982  13.806  0.2019 -0.0591  0.1661
19793TIP3    H180870   5.262   3.984  13.901  1.0723  1.1737  0.2598
19793TIP3    H280871   5.358   3.942  13.791  0.8839  1.4048  0.0077
19794TIP3   OH280872   1.864   3.612  13.951 -0.2307 -0.6416 -0.7466
19794TIP3    H180873   1.839   3.555  14.023  2.6254 -1.1804 -0.0630
19794TIP3    H280874   1.941   3.659  13.983 -0.1211  0.6642 -2.7189
19795TIP3   OH280875   0.918   4.515   5.687  0.1322  0.0439  0.0550
19795TIP3    H180876   0.863   4.586   5.653 -1.6314 -1.2947  0.0114
19795TIP3    H280877   0.892   4.508   5.779  1.2708  0.3209  0.4096
19796TIP3   OH280878   6.084   0.885  14.096 -0.8881  0.0316  0.8757
19796TIP3    H180879   6.044   0.821  14.156  1.9579 -2.2730  0.5283
19796TIP3    H280880   6.177   0.863  14.096 -0.0760  2.9392 -0.9006
19797TIP3   OH280881   4.386   3.866   3.743  0.1364 -0.1296 -0.6139
19797TIP3    H180882   4.303   3.894   3.706 -0.1477  1.5701  1.1611
19797TIP3    H280883   4.449   3.933   3.714  0.7005 -0.8891 -1.1733
19798TIP3   OH280884   0.410   0.303   0.465 -1.0557  0.1844  0.0455
19798TIP3    H180885   0.327   0.255   0.474 -0.1377 -1.4302  0.2293
19798TIP3    H280886   0.415   0.325   0.372 -0.7394 -1.5634 -0.3857
19799TIP3   OH280887   1.721   5.234  11.508  0.0030  0.2146 -0.1058
19799TIP3    H180888   1.729   5.154  11.560 -0.1763  0.7641  0.7732
19799TIP3    H280889   1.628   5.241  11.490 -0.0224  0.3978  0.0940
19800TIP3   OH280890   2.426   5.097   4.577  0.3089  0.5659 -0.1811
19800TIP3    H180891   2.369   5.099   4.654  3.2209  0.1967  2.1585
19800TIP3    H280892   2.369   5.067   4.506 -2.6033  1.2425  1.7177
19801TIP3   OH280893   5.977   1.614  10.484 -0.7952 -0.1772  0.4321
19801TIP3    H180894   5.932   1.659  10.555  1.4779  1.6763  0.7939
19801TIP3    H280895   5.998   1.683  10.421 -2.5455 -1.7107 -2.0346
19802TIP3   OH280896   6.666   2.263   2.510 -0.2732  0.1826 -0.1749
19802TIP3    H180897   6.692   2.171   2.510 -0.1546  0.1700 -1.9886
19802TIP3    H280898   6.614   2.273   2.589  1.1468 -0.9994  0.9661
19803TIP3   OH280899   6.123   1.382   2.846 -0.2756 -0.1516 -0.8918
19803TIP3    H180900   6.066   1.373   2.770 -0.5786 -0.3304 -0.6417
19803TIP3    H280901   6.184   1.452   2.821 -1.5984  1.1666 -0.5492
19804TIP3   OH280902   4.898   6.282   6.134  0.6875 -0.2849 -0.2910
19804TIP3    H180903   4.957   6.353   6.162  0.4149  0.6584 -1.9785
19804TIP3    H280904   4.815   6.301   6.178  0.1957  1.3005 -1.8055
19805TIP3   OH280905   3.675   1.391  12.944  0.5042  0.1404  0.6276
19805TIP3    H180906   3.629   1.428  13.019 -0.1948  0.7476 -0.0833
19805TIP3    H280907   3.718   1.312  12.978 -2.1260 -1.2145  1.0419
19806TIP3   OH280908   6.264   1.657  15.941  0.1565 -0.0908  0.5733
19806TIP3    H180909   6.178   1.692  15.919 -0.1238 -1.4120 -0.5548
19806TIP3    H280910   6.277   1.683  16.033 -0.3863  2.1515  0.0940
19807TIP3   OH280911   5.930   3.171   1.844  0.3385 -0.1511 -0.5748
19807TIP3    H180912   5.862   3.232   1.813 -0.3067 -0.1466  0.7742
19807TIP3    H280913   6.011   3.205   1.807 -0.2960  0.2501 -1.6559
19808TIP3   OH280914   0.545   4.341  10.457 -0.0092  0.1772  0.0255
19808TIP3    H180915   0.586   4.380  10.381 -0.9698 -0.7029 -0.9806
19808TIP3    H280916   0.460   4.310  10.426 -0.6245  0.1946  1.5605
19809TIP3   OH280917   0.103   2.678  13.118 -0.1646 -0.3582 -0.1459
19809TIP3    H180918   0.103   2.663  13.023  0.0567 -0.8082 -0.0732
19809TIP3    H280919   0.112   2.591  13.156  1.1147 -0.0510  0.2723
19810TIP3   OH280920   2.065   2.904  15.405 -0.3098  0.2087  0.4083
19810TIP3    H180921   1.996   2.838  15.404 -0.8737  0.7899  0.3889
19810TIP3    H280922   2.065   2.941  15.317  0.5567 -0.3105  0.1712
19811TIP3   OH280923   1.886   5.544  17.174  0.5994  0.3504  0.6175
19811TIP3    H180924   1.918   5.518  17.087  1.6155  1.0786  0.7580
19811TIP3    H280925   1.928   5.483  17.234  2.1151  1.5797  0.8444
19812TIP3   OH280926   5.699   2.827   2.957  0.3069  0.0668  0.1472
19812TIP3    H180927   5.610   2.863   2.956  0.5630  0.9804  2.7580
19812TIP3    H280928   5.710   2.788   2.871 -1.6514  2.3149 -1.2385
19813TIP3   OH280929   0.049   5.346   4.604 -0.3666 -0.2843  0.1575
19813TIP3    H180930  -0.009   5.281   4.644 -0.6854 -0.1789 -0.1246
19813TIP3    H280931   0.123   5.296   4.571 -0.3956 -0.4480  0.3413
19814TIP3   OH280932   1.677   6.692   1.956 -0.4148 -0.8327 -0.2189
19814TIP3    H180933   1.684   6.610   2.005 -0.3787  0.2064  1.6167
19814TIP3    H280934   1.766   6.727   1.956 -0.7627  0.0844  0.6433
19815TIP3   OH280935   4.958   2.455   2.603  0.2231  0.1950 -0.1860
19815TIP3    H180936   4.882   2.402   2.628 -0.6666  1.3772 -0.3042
19815TIP3    H280937   4.982   2.423   2.516 -1.6705  1.3737 -1.2182
19816TIP3   OH280938   5.148   5.831  14.700 -0.0770 -0.3995  0.1974
19816TIP3    H180939   5.130   5.823  14.793 -1.0856  1.3256  0.1956
19816TIP3    H280940   5.244   5.828  14.693 -0.0326 -1.6596  1.1333
19817TIP3   OH280941   5.859   0.213  14.640  0.2356 -0.3017 -0.1305
19817TIP3    H180942   5.926   0.197  14.573 -0.4343  0.8582 -1.1328
19817TIP3    H280943   5.803   0.281  14.602 -2.0840 -1.8716  0.2788
19818TIP3   OH280944   1.439   0.399   6.818  0.2503  0.3209  0.1679
19818TIP3    H180945   1.497   0.333   6.782 -0.4638  0.2874 -0.9754
19818TIP3    H280946   1.455   0.397   6.913  2.7977  0.9908 -0.1684
19819TIP3   OH280947   6.270   0.771  12.475 -0.1385  0.1872 -0.3037
19819TIP3    H180948   6.354   0.770  12.430  0.1715  1.5553  0.2018
19819TIP3    H280949   6.231   0.855  12.452 -1.3860 -0.4214 -0.5373
19820TIP3   OH280950   0.173   2.775  15.459  0.3293  0.5867 -0.1822
19820TIP3    H180951   0.123   2.857  15.457  0.8249  0.8790 -0.6381
19820TIP3    H280952   0.214   2.775  15.546 -0.1290  0.5384  0.0399
19821TIP3   OH280953   4.596   0.817   5.934 -0.5118 -0.8347  0.5088
19821TIP3    H180954   4.577   0.825   6.027 -0.3755  1.8353  0.3873
19821TIP3    H280955   4.519   0.856   5.890  0.5430  0.3936 -0.3422
19822TIP3   OH280956   2.398   5.268   5.452 -0.3361 -0.4086 -0.5241
19822TIP3    H180957   2.433   5.262   5.541 -1.4315  0.4205 -0.0232
19822TIP3    H280958   2.404   5.361   5.430 -2.0338 -0.2616 -0.4800
19823TIP3   OH280959   3.602   5.561  11.803 -0.1235 -0.1957  0.1390
19823TIP3    H180960   3.667   5.628  11.824 -0.1365 -0.3805  0.7771
19823TIP3    H280961   3.520   5.609  11.790  0.1648  0.0618 -0.8740
19824TIP3   OH280962   2.510   2.606   2.444 -0.0247  0.1693 -0.1790
19824TIP3    H180963   2.505   2.537   2.511 -0.0742  1.3426  1.0606
19824TIP3    H280964   2.522   2.558   2.362 -0.2798 -1.3282  0.6164
19825TIP3   OH280965   4.977   0.761  17.075 -0.0341  0.2184 -0.0012
19825TIP3    H180966   4.900   0.755  17.132  1.2407  0.0940  1.8064
19825TIP3    H280967   4.996   0.854  17.069 -0.0392  0.2163 -0.0536
19826TIP3   OH280968   5.781   0.552  16.226 -0.6123 -0.5242 -0.5635
19826TIP3    H180969   5.731   0.471  16.237  2.1116 -2.1399  1.0655
19826TIP3    H280970   5.866   0.533  16.265 -0.0229  3.3522  0.4363
19827TIP3   OH280971   6.674   3.785  17.012  0.0864  0.0817 -0.4227
19827TIP3    H180972   6.685   3.690  17.011 -0.6547 -0.0551  1.1666
19827TIP3    H280973   6.737   3.816  17.077  0.4082  0.6912 -1.0208
19828TIP3   OH280974   0.641   5.709  15.740 -0.0617 -0.4013  0.0314
19828TIP3    H180975   0.692   5.634  15.710 -0.2353 -0.6583  0.3750
19828TIP3    H280976   0.550   5.686  15.721  0.0013  0.4737 -1.5141
19829TIP3   OH280977   5.548   6.292  13.161  0.7038 -0.5204 -0.2880
19829TIP3    H180978   5.545   6.302  13.256 -0.0877 -0.1220 -0.3462
19829TIP3    H280979   5.489   6.219  13.142  0.9040 -0.6376 -0.4747
19830TIP3   OH280980   1.688   1.238   3.221 -0.3486 -0.3059 -0.4115
19830TIP3    H180981   1.728   1.262   3.137  1.2354 -0.8120  0.1509
19830TIP3    H280982   1.752   1.178   3.262 -1.0198  0.0191  1.2020
19831TIP3   OH280983   5.043   2.036   2.936 -0.2755  0.0402 -0.1213
19831TIP3    H180984   4.990   1.980   2.880 -0.0694 -0.4043  0.1185
19831TIP3    H280985   5.013   2.016   3.025 -0.4441  0.5708 -0.0567
19832TIP3   OH280986   3.312   0.914  11.906 -0.1284 -0.0692 -0.4732
19832TIP3    H180987   3.281   0.841  11.851 -1.5233  0.1051  0.0200
19832TIP3    H280988   3.379   0.875  11.962 -1.0962 -1.0905  0.0166
19833TIP3   OH280989   5.074   4.241   4.792  0.4730 -0.2568  0.3547
19833TIP3    H180990   5.059   4.165   4.736 -1.9014  0.3205  0.0800
19833TIP3    H280991   5.104   4.310   4.732 -0.2079 -0.1872  0.0788
19834TIP3   OH280992   6.176   6.643   1.870  0.2729  0.3752  0.0010
19834TIP3    H180993   6.186   6.711   1.935  0.3615 -0.2393  0.6419
19834TIP3    H280994   6.244   6.579   1.890 -0.7346 -0.6381  0.3682
19835TIP3   OH280995   2.359   1.189  13.758  0.2204 -0.0159 -0.4027
19835TIP3    H180996   2.304   1.142  13.694 -0.3741 -0.9502  0.7554
19835TIP3    H280997   2.448   1.169  13.731 -0.0131 -2.0479  0.1618
19836TIP3   OH280998   1.721   3.461  14.877  0.1264  0.0271 -0.9195
19836TIP3    H180999   1.812   3.490  14.871  1.9875 -4.8921 -1.4854
19836TIP3    H281000   1.690   3.461  14.787 -0.1687  0.9001 -0.8247
19837TIP3   OH281001   4.937   1.449  11.643 -0.0291  0.5601  0.4654
19837TIP3    H181002   4.961   1.533  11.605  0.1250 -0.3474 -1.5755
19837TIP3    H281003   4.845   1.459  11.668 -0.1393  1.2123 -0.1711
19838TIP3   OH281004   1.829   4.945  15.334 -0.0651  0.2063 -0.2905
19838TIP3    H181005   1.778   4.932  15.254 -0.6061  0.3238  0.0294
19838TIP3    H281006   1.919   4.928  15.308 -0.3709 -0.9320 -0.6444
19839TIP3   OH281007   5.573   5.777  16.201  0.5741  0.0225 -0.7532
19839TIP3    H181008   5.481   5.752  16.199 -0.0071  1.8429  0.2488
19839TIP3    H281009   5.586   5.825  16.120  0.0826  1.3623 -0.0795
19840TIP3   OH281010   4.535   0.258  17.117  0.5982  0.5874  0.3245
19840TIP3    H181011   4.548   0.181  17.172  0.5134 -0.0326 -0.5111
19840TIP3    H281012   4.557   0.229  17.029 -1.2370  0.9733 -0.3028
19841TIP3   OH281013   5.004   0.099  15.457 -0.0445 -0.0349  0.1190
19841TIP3    H181014   4.931   0.161  15.452  0.8999  1.1893  0.9446
19841TIP3    H281015   5.046   0.105  15.371  0.3873  0.9405  0.3848
19842TIP3   OH281016   0.680   5.687   3.931  0.4410 -0.6612 -0.2494
19842TIP3    H181017   0.736   5.662   3.858  0.3375 -0.2209 -0.4847
19842TIP3    H281018   0.720   5.646   4.008  1.5391  0.2812 -0.2918
19843TIP3   OH281019   4.845   1.908  13.570 -0.2315 -0.0754  0.2785
19843TIP3    H181020   4.891   1.912  13.654  2.3359  0.1739 -1.0560
19843TIP3    H281021   4.838   1.814  13.552  2.3213 -0.1367 -0.7514
19844TIP3   OH281022   0.951   6.358  10.876 -0.0279 -0.4934 -0.4189
19844TIP3    H181023   1.013   6.389  10.810  1.5160  1.5491  1.8418
19844TIP3    H281024   0.887   6.428  10.883  0.7867  0.1298  1.3758
19845TIP3   OH281025   2.207   2.415  11.674  0.3719 -0.6224  0.0169
19845TIP3    H181026   2.133   2.355  11.677  0.2741 -0.5201 -0.2641
19845TIP3    H281027   2.174   2.496  11.712  0.1050 -0.3406 -0.7739
19846TIP3   OH281028   0.387   4.640   4.830  0.2606 -0.4502 -0.7091
19846TIP3    H181029   0.375   4.583   4.755  1.6721 -1.9646  0.1497
19846TIP3    H281030   0.482   4.644   4.842  0.1131  0.7361  0.2662
19847TIP3   OH281031   6.050   2.735  16.884  0.2838  0.5466 -1.0960
19847TIP3    H181032   6.099   2.809  16.848  0.9231  0.9784  0.5697
19847TIP3    H281033   5.958   2.756  16.867  0.5329  1.0511 -1.8450
19848TIP3   OH281034   3.963   1.335   1.198 -0.1586 -0.4850  0.1559
19848TIP3    H181035   4.013   1.386   1.135  1.8129 -2.3349  0.0741
19848TIP3    H281036   3.872   1.359   1.183  0.4564  0.8055 -1.8233
19849TIP3   OH281037   6.740   3.091  13.598  0.7483 -0.3439  0.1992
19849TIP3    H181038   6.650   3.062  13.582  0.4708 -0.2362  1.4766
19849TIP3    H281039   6.793   3.012  13.588  0.1892 -0.9927  2.0455
19850TIP3   OH281040   3.006   5.271  15.028 -0.3052  0.3421 -0.4887
19850TIP3    H181041   2.949   5.196  15.046  0.0820 -0.3668 -2.0796
19850TIP3    H281042   3.054   5.285  15.109 -1.5806 -0.0527  0.3732
19851TIP3   OH281043   5.267   6.520  14.217 -0.1733 -0.8097 -0.3293
19851TIP3    H181044   5.307   6.535  14.132 -0.2530 -1.2267 -0.4430
19851TIP3    H281045   5.243   6.607  14.248  0.9888 -0.5258 -0.1721
19852TIP3   OH281046   1.949   2.039  15.121 -0.1765 -0.3385  0.2345
19852TIP3    H181047   1.909   1.959  15.156 -3.1078  1.0054  0.2537
19852TIP3    H281048   1.876   2.099  15.109  1.9083  2.3803  0.1708
19853TIP3   OH281049   3.498   4.476   3.079 -0.5901  0.3014 -0.3299
19853TIP3    H181050   3.470   4.550   3.133 -1.3325  3.0781 -4.0765
19853TIP3    H281051   3.589   4.461   3.104 -0.9420  1.2616  1.7356
19854TIP3   OH281052   5.126   6.697   1.878 -0.3796 -0.3220  0.6015
19854TIP3    H181053   5.170   6.678   1.795 -2.5371  1.2570 -1.0192
19854TIP3    H281054   5.197   6.705   1.942  1.7320  1.9452 -1.8057
19855TIP3   OH281055   1.848   3.723  13.685 -0.0546  0.1980  0.0595
19855TIP3    H181056   1.826   3.767  13.767  1.8382 -0.5603  1.0457
19855TIP3    H281057   1.795   3.643  13.685  0.5680 -0.2249  0.9889
19856TIP3   OH281058   0.421   1.787  16.082 -0.4392  0.2995  0.0085
19856TIP3    H181059   0.448   1.701  16.117 -0.9927 -0.3196 -1.0360
19856TIP3    H281060   0.330   1.774  16.056 -0.1991  0.8985 -1.1622
19857TIP3   OH281061   3.791   5.523  16.440  0.1380  0.4682 -0.3542
19857TIP3    H181062   3.809   5.561  16.354  1.1771 -0.0963 -0.3980
19857TIP3    H281063   3.762   5.434  16.420 -0.0384  0.4758 -0.1361
19858TIP3   OH281064   0.555   0.294   5.991  0.4594  0.0286 -0.7613
19858TIP3    H181065   0.592   0.281   6.078  1.3443  0.6697 -1.0310
19858TIP3    H281066   0.505   0.375   5.998 -2.1069 -1.4870 -0.0377
19859TIP3   OH281067   5.868   5.489  16.239  0.3948 -0.1896  0.2409
19859TIP3    H181068   5.946   5.450  16.279  0.7752  1.7913  1.5775
19859TIP3    H281069   5.903   5.561  16.186 -0.4658  0.0903  0.0502
19860TIP3   OH281070   5.942   2.838   5.871 -0.7535  0.1264  0.0239
19860TIP3    H181071   5.999   2.840   5.948 -0.5603 -0.0346 -0.1161
19860TIP3    H281072   5.854   2.852   5.907 -0.7675 -0.7986  0.3734
19861TIP3   OH281073   0.156   2.571   4.253 -0.0336 -0.7902 -0.8332
19861TIP3    H181074   0.215   2.509   4.295  0.0258 -0.7770 -0.8962
19861TIP3    H281075   0.077   2.570   4.307  0.7774  0.7435  0.4629
19862TIP3   OH281076   6.397   2.567  13.085 -0.5435  0.7010  1.0027
19862TIP3    H181077   6.337   2.500  13.053 -0.0045 -0.9303  3.2262
19862TIP3    H281078   6.474   2.560  13.028 -0.0434 -1.3846  1.8404
19863TIP3   OH281079   3.597   1.471   2.788  0.8368  0.3757  0.3489
19863TIP3    H181080   3.590   1.462   2.883  1.0119  0.1680  0.3416
19863TIP3    H281081   3.677   1.521   2.774  0.6121  0.7324  0.3261
19864TIP3   OH281082   2.865   4.162   6.312  0.2458 -0.2872 -0.3191
19864TIP3    H181083   2.899   4.099   6.376 -0.0300 -0.1944 -0.0778
19864TIP3    H281084   2.779   4.127   6.288 -0.9889  1.2044  1.6106
19865TIP3   OH281085   4.365   6.421  14.327  0.2717  0.0720 -0.0454
19865TIP3    H181086   4.385   6.404  14.235 -0.4196  1.4841 -0.4831
19865TIP3    H281087   4.410   6.503  14.346  1.9605 -1.1175  1.4396
19866TIP3   OH281088   1.730   4.941  17.103 -0.5525  0.6458  0.6778
19866TIP3    H181089   1.676   4.933  17.181  0.6631 -0.4611  1.4487
19866TIP3    H281090   1.811   4.981  17.134  0.5953 -1.3021  0.3536
19867TIP3   OH281091   0.843   3.957  15.062  0.0511 -0.0036 -0.2907
19867TIP3    H181092   0.894   3.882  15.092  0.3428 -0.7730 -2.5773
19867TIP3    H281093   0.801   3.990  15.142 -1.0524 -3.3113  0.6660
19868TIP3   OH281094   1.027   1.589  10.840 -0.3443  0.1928 -0.1574
19868TIP3    H181095   0.946   1.544  10.816 -1.2207  1.3955  0.4503
19868TIP3    H281096   1.002   1.681  10.848  0.5207  0.2826  2.3878
19869TIP3   OH281097   2.047   5.116  11.605 -0.2769 -0.0047 -0.4729
19869TIP3    H181098   1.991   5.126  11.682  0.9920 -0.0024  0.4792
19869TIP3    H281099   2.099   5.038  11.622  0.3040  0.2206 -1.1464
19870TIP3   OH281100   6.716   1.254   2.644 -0.3126  0.0155  0.4719
19870TIP3    H181101   6.690   1.254   2.737  1.4987 -0.5607  1.0239
19870TIP3    H281102   6.656   1.191   2.603 -2.2148  1.4721  0.8697
19871TIP3   OH281103   0.992   4.721   1.840  0.6386 -0.4511 -0.0463
19871TIP3    H181104   0.991   4.625   1.844  0.5348 -0.4816 -0.6937
19871TIP3    H281105   0.914   4.748   1.889 -0.6584 -0.7890 -1.8285
19872TIP3   OH281106   3.970   4.833   0.876 -0.3252 -0.1550 -0.1610
19872TIP3    H181107   3.969   4.879   0.792 -2.2900 -0.9850 -0.6465
19872TIP3    H281108   4.057   4.794   0.880  0.4304  1.3402 -0.9674
19873TIP3   OH281109   6.146   4.882   3.212 -0.1390 -0.8941 -0.3346
19873TIP3    H181110   6.138   4.874   3.307 -1.4112  1.5715 -0.1358
19873TIP3    H281111   6.055   4.883   3.180  0.1735  0.4392 -1.2871
19874TIP3   OH281112   0.095   4.608  16.518 -0.5928  0.1831 -0.2145
19874TIP3    H181113   0.183   4.647  16.526  0.1498 -1.5085  0.4677
19874TIP3    H281114   0.047   4.642  16.593 -0.1047  0.1564  0.1168
19875TIP3   OH281115   1.151   3.565   4.364  0.2951 -0.3437  0.0088
19875TIP3    H181116   1.065   3.528   4.385  0.0144 -0.0675 -0.6287
19875TIP3    H281117   1.132   3.634   4.301  1.0133 -0.4641 -0.3480
19876TIP3   OH281118   0.924   3.611  11.253  0.4434  0.1202  0.7010
19876TIP3    H181119   0.908   3.607  11.347 -0.5031  0.9436  0.5916
19876TIP3    H281120   0.940   3.704  11.235  0.7380 -0.0468  0.0752
19877TIP3   OH281121   5.554   1.243  10.702 -0.2915  0.1385  0.2351
19877TIP3    H181122   5.637   1.238  10.654  0.5929  1.7848  1.5019
19877TIP3    H281123   5.511   1.321  10.669 -1.7896 -1.1396 -1.0026
19878TIP3   OH281124   2.609   6.212  15.219 -1.0128  0.4224 -0.7698
19878TIP3    H181125   2.567   6.295  15.245 -1.6038 -0.0440 -0.2061
19878TIP3    H281126   2.538   6.160  15.182 -0.4262  0.5743 -2.1606
19879TIP3   OH281127   1.062   3.451   0.459 -0.0954  0.5203  0.0736
19879TIP3    H181128   1.130   3.385   0.477  1.2095  1.4602 -1.1358
19879TIP3    H281129   0.999   3.405   0.404 -0.1662 -0.2167  0.7444
19880TIP3   OH281130   5.439   4.277   0.675  0.2914 -0.5455 -0.0256
19880TIP3    H181131   5.500   4.305   0.743  0.8058  0.2558 -0.7977
19880TIP3    H281132   5.434   4.352   0.615 -0.4868 -1.0738 -0.6372
19881TIP3   OH281133   1.985   5.242   5.497 -0.2006  0.0279 -0.9203
19881TIP3    H181134   1.927   5.182   5.544  0.6543  0.4300  0.7584
19881TIP3    H281135   1.961   5.329   5.529 -1.5539  0.6810 -3.4651
19882TIP3   OH281136   1.510   2.353  15.666 -0.0255 -0.0483 -0.1466
19882TIP3    H181137   1.523   2.327  15.575 -0.4353 -0.4661 -0.0870
19882TIP3    H281138   1.436   2.414  15.664  0.6437  0.7843 -0.2269
19883TIP3   OH281139   5.559   5.424  16.145 -0.3964  0.3080 -0.5363
19883TIP3    H181140   5.553   5.328  16.142  0.5210  0.2655 -1.5614
19883TIP3    H281141   5.534   5.446  16.234 -1.3680 -0.8323 -0.4954
19884TIP3   OH281142   0.843   4.084   3.861 -0.6457 -0.0080  0.4122
19884TIP3    H181143   0.790   4.077   3.782 -1.9436  0.1105  1.2465
19884TIP3    H281144   0.860   4.177   3.870 -2.0711  0.2051  1.2417
19885TIP3   OH281145   2.442   0.688  11.497 -0.3988  0.4911  0.0292
19885TIP3    H181146   2.423   0.780  11.478  0.7093  1.4043  2.6986
19885TIP3    H281147   2.358   0.650  11.521 -0.8653  0.7912 -1.0850
19886TIP3   OH281148   2.515   0.584  15.274 -0.0273  0.3317  0.0676
19886TIP3    H181149   2.472   0.609  15.192 -0.6039 -0.4055  0.1296
19886TIP3    H281150   2.492   0.654  15.335  0.4375  0.9053 -0.4080
19887TIP3   OH281151   4.961   5.789   2.792 -0.3934  0.9924 -0.1007
19887TIP3    H181152   5.002   5.784   2.879  0.6153 -0.2560 -0.6150
19887TIP3    H281153   5.034   5.778   2.731 -1.0464  2.1941 -1.1349
19888TIP3   OH281154   0.916   3.649   2.081  0.2347 -0.3693 -0.5177
19888TIP3    H181155   0.967   3.637   2.160  0.3131  0.9446 -0.3470
19888TIP3    H281156   0.935   3.572   2.028  2.6266  0.2179 -0.5972
19889TIP3   OH281157   4.256   6.107   1.314  0.3707  0.3192 -0.0824
19889TIP3    H181158   4.305   6.027   1.336 -1.8045 -1.9276 -2.6320
19889TIP3    H281159   4.193   6.117   1.386  0.2056 -0.7040 -0.0708
19890TIP3   OH281160   3.671   4.431  14.843 -0.4131  0.1988 -0.5628
19890TIP3    H181161   3.588   4.457  14.804 -1.0491 -0.3841  0.3829
19890TIP3    H281162   3.648   4.363  14.905  1.2893 -4.2001 -4.1856
19891TIP3   OH281163   1.751   0.322  14.400 -0.0712  0.2956  0.3295
19891TIP3    H181164   1.763   0.375  14.321 -1.2576  0.1758  0.0523
19891TIP3    H281165   1.745   0.232  14.368 -1.2699  0.3094  0.4594
19892TIP3   OH281166   1.721   1.245  12.363 -0.1063 -0.4588 -0.0179
19892TIP3    H181167   1.788   1.297  12.407 -0.0167  0.7403 -1.4803
19892TIP3    H281168   1.640   1.267  12.407  0.0817  0.1787  0.0247
19893TIP3   OH281169   2.247   2.328   1.160 -0.0907  0.7853  0.0729
19893TIP3    H181170   2.270   2.252   1.214 -2.1790  0.6982  0.9414
19893TIP3    H281171   2.224   2.396   1.224 -1.5878  1.0301 -0.6836
19894TIP3   OH281172   5.771   2.752  12.093  0.3551 -0.0631 -0.2334
19894TIP3    H181173   5.785   2.736  12.187 -0.9222  0.4953  0.0767
19894TIP3    H281174   5.676   2.747  12.082  0.4845 -0.0292 -1.4903
19895TIP3   OH281175   6.713   2.887  15.792  0.2437 -0.3068  0.1379
19895TIP3    H181176   6.765   2.916  15.867 -0.3104 -1.1345  0.8715
19895TIP3    H281177   6.634   2.941  15.794  0.7361  0.4620 -0.5531
19896TIP3   OH281178   4.742   2.686  13.847 -0.3769  0.1076 -0.2853
19896TIP3    H181179   4.748   2.640  13.763  1.8904 -2.2747  1.0330
19896TIP3    H281180   4.832   2.715  13.864 -0.9693  1.3383  0.9463
19897TIP3   OH281181   1.028   6.197   1.793 -0.7093  0.1304  0.3741
19897TIP3    H181182   0.999   6.277   1.837 -2.0682 -0.5752  0.7976
19897TIP3    H281183   1.061   6.228   1.708  1.2637  1.4211  1.5289
19898TIP3   OH281184   6.819   4.500   5.947  0.0967 -0.2292  0.5481
19898TIP3    H181185   6.909   4.480   5.974 -0.4803 -1.5478  1.6190
19898TIP3    H281186   6.781   4.545   6.023 -0.7834 -1.6792  1.0091
19899TIP3   OH281187   3.533   5.173  16.182 -0.4271 -0.0866 -0.0397
19899TIP3    H181188   3.517   5.153  16.090  0.9178  1.1028 -0.5585
19899TIP3    H281189   3.528   5.269  16.188  0.4097 -0.0849  0.9394
19900TIP3   OH281190   6.202   0.402  13.478  0.3036 -0.2613 -0.5496
19900TIP3    H181191   6.218   0.422  13.386 -0.4322 -0.9695 -0.8382
19900TIP3    H281192   6.268   0.336  13.500  0.3511 -0.2369 -0.6172
19901TIP3   OH281193   3.474   6.115  11.680 -0.6639 -0.3180 -0.7656
19901TIP3    H181194   3.402   6.160  11.636 -0.9791 -1.4455 -1.4464
19901TIP3    H281195   3.551   6.135  11.628 -0.9346 -1.1598 -1.5213
19902TIP3   OH281196   0.432   4.621  10.305 -0.0069  0.1636 -0.2370
19902TIP3    H181197   0.517   4.609  10.263 -2.7417 -2.7786 -6.0483
19902TIP3    H281198   0.400   4.705  10.273  0.2881  0.8725  1.2559
19903TIP3   OH281199   4.021   5.180   1.852  0.4213  0.3550 -0.2180
19903TIP3    H181200   4.017   5.213   1.942 -1.3427 -0.5120  0.0547
19903TIP3    H281201   4.077   5.102   1.857  0.3501  0.3237  0.1202
19904TIP3   OH281202   3.916   2.876  15.880 -0.0568 -0.0347  0.1751
19904TIP3    H181203   3.935   2.783  15.896  1.2268 -0.2527 -2.1187
19904TIP3    H281204   3.836   2.876  15.829 -0.5819  0.2131  0.9791
19905TIP3   OH281205   5.147   0.287  13.746 -0.2951 -0.3719 -0.2544
19905TIP3    H181206   5.235   0.267  13.715 -0.2388  0.6900 -0.8506
19905TIP3    H281207   5.092   0.282  13.667 -0.3949  0.9594 -0.2976
19906TIP3   OH281208   5.002   0.470   3.855  0.0554 -0.1220 -0.1318
19906TIP3    H181209   4.918   0.429   3.873 -1.5702  1.9634 -2.2534
19906TIP3    H281210   5.036   0.425   3.777  0.5384 -0.4368  0.2527
19907TIP3   OH281211   5.696   5.095   4.068  0.0455 -0.0400 -0.3271
19907TIP3    H181212   5.690   5.105   4.163  3.0822  2.8505 -0.2319
19907TIP3    H281213   5.783   5.059   4.053  0.3725  1.3022 -2.0103
19908TIP3   OH281214   6.745   5.171   0.948 -0.8353 -0.5798 -0.1198
19908TIP3    H181215   6.708   5.259   0.954 -0.8178 -0.4714 -1.4027
19908TIP3    H281216   6.774   5.163   0.857  0.5121 -1.3762  0.3501
19909TIP3   OH281217   2.356   5.940   5.814  0.0485 -0.2402  0.5336
19909TIP3    H181218   2.414   5.865   5.801 -1.4549 -1.1639 -1.3025
19909TIP3    H281219   2.411   6.017   5.796  0.9030 -1.0480 -0.4111
19910TIP3   OH281220   3.131   3.758   5.874 -0.6984 -0.4338  0.1281
19910TIP3    H181221   3.133   3.836   5.930  1.6347 -1.1899  1.2232
19910TIP3    H281222   3.114   3.686   5.934 -2.4441 -0.8624 -0.8214
19911TIP3   OH281223   5.074   4.030   2.353  0.1703 -0.0266 -0.3130
19911TIP3    H181224   5.015   4.057   2.423  0.4985 -0.5206  0.1572
19911TIP3    H281225   5.064   3.934   2.349  1.9907 -0.2995  0.7431
19912TIP3   OH281226   0.082   3.454   4.428 -0.2502  0.0664 -0.4312
19912TIP3    H181227   0.069   3.443   4.334 -1.5426 -0.5133 -0.2033
19912TIP3    H281228   0.150   3.521   4.435 -0.3699  0.3536 -1.7710
19913TIP3   OH281229   4.634   1.360  10.770  0.2667  0.1264  0.0958
19913TIP3    H181230   4.539   1.355  10.775  0.3463 -1.1327  0.9041
19913TIP3    H281231   4.655   1.450  10.793 -0.7393  0.5132 -0.4661
19914TIP3   OH281232   2.377   5.948  17.045 -0.1382 -0.6867 -0.6568
19914TIP3    H181233   2.353   5.969  16.954  0.6584 -0.5276 -0.8366
19914TIP3    H281234   2.470   5.929  17.041 -0.1487 -0.9140  0.0978
19915TIP3   OH281235   1.237   5.758   6.093  0.3363 -0.4858 -0.3618
19915TIP3    H181236   1.248   5.845   6.129  0.8353 -1.3109  1.6133
19915TIP3    H281237   1.242   5.700   6.169  0.4495 -2.2658 -1.6669
19916TIP3   OH281238   2.965   2.963  12.363  0.0160 -0.4680 -0.0634
19916TIP3    H181239   3.007   2.931  12.284  0.2770  0.4150 -0.2910
19916TIP3    H281240   2.928   3.047  12.338  1.4893  0.5940  1.1596
19917TIP3   OH281241   4.005   4.882  14.218 -0.2008 -0.1635  0.0651
19917TIP3    H181242   3.990   4.976  14.226 -0.0564 -0.1890  0.7095
19917TIP3    H281243   3.961   4.857  14.136 -1.7599  0.1417  0.7774
19918TIP3   OH281244   2.973   2.849   1.923 -0.0077 -0.1238  0.1248
19918TIP3    H181245   2.905   2.790   1.890  0.6727 -0.2487 -1.1168
19918TIP3    H281246   3.025   2.870   1.846  1.8211 -0.6241  1.1712
19919TIP3   OH281247   4.636   0.382   0.585 -0.6060  0.3023  0.3878
19919TIP3    H181248   4.543   0.405   0.589 -0.4800  0.9001  0.1241
19919TIP3    H281249   4.677   0.460   0.548 -0.2384 -0.6223 -1.2460
19920TIP3   OH281250   5.713   4.177  13.570  0.2466  0.1799  0.3221
19920TIP3    H181251   5.623   4.145  13.574  0.0349  0.8950  1.9791
19920TIP3    H281252   5.764   4.103  13.536 -0.6309 -1.0138  1.5167
19921TIP3   OH281253   6.227   6.115   4.432  0.1493  0.3111  0.0647
19921TIP3    H181254   6.229   6.210   4.435 -1.0017  0.3519 -0.0302
19921TIP3    H281255   6.267   6.093   4.348 -1.4089  0.8323 -0.8721
19922TIP3   OH281256   5.975   6.738   2.692 -0.0471 -0.8583  0.3776
19922TIP3    H181257   5.947   6.700   2.609  0.8247  1.1737 -0.9122
19922TIP3    H281258   5.908   6.803   2.713 -0.3372 -1.4563  1.3715
19923TIP3   OH281259   3.657   5.613  15.564  0.3873 -0.4783  0.6089
19923TIP3    H181260   3.663   5.642  15.655 -0.4066 -0.1536  0.5679
19923TIP3    H281261   3.668   5.694  15.513 -1.2485 -0.3069  0.4782
19924TIP3   OH281262   6.327   2.033   0.077 -0.2425  0.1711 -0.1139
19924TIP3    H181263   6.247   1.985   0.055  0.2965 -0.2709 -1.2217
19924TIP3    H281264   6.356   1.995   0.159 -1.7552  1.1059  0.9132
19925TIP3   OH281265   0.642   5.901  14.048 -0.3084  0.3613 -0.5390
19925TIP3    H181266   0.644   5.895  13.953 -1.7809 -1.4431 -0.4935
19925TIP3    H281267   0.708   5.838  14.077 -1.8101 -1.2097 -0.3717
19926TIP3   OH281268   3.079   0.244  15.434 -0.5811 -0.3265  0.2794
19926TIP3    H181269   3.161   0.196  15.438  0.7440  1.8697  2.3089
19926TIP3    H281270   3.033   0.207  15.359  2.5630 -1.1442 -1.4225
19927TIP3   OH281271   0.091   1.865  13.542  0.1677 -0.5217  0.4641
19927TIP3    H181272   0.071   1.801  13.474  0.2624  0.3956 -0.4585
19927TIP3    H281273   0.020   1.857  13.606 -0.3209 -0.8860 -0.1255
19928TIP3   OH281274   3.444   3.173   2.544  0.1757  0.2452  0.0662
19928TIP3    H181275   3.366   3.217   2.510 -1.8598 -2.9839  0.1703
19928TIP3    H281276   3.423   3.155   2.635  0.9171 -0.8961  0.0274
19929TIP3   OH281277   3.956   0.254   2.579 -0.5894  0.4086 -0.6232
19929TIP3    H181278   4.037   0.303   2.563 -0.0233  0.4741  2.0302
19929TIP3    H281279   3.939   0.208   2.496  1.1604  1.7824 -1.8166
19930TIP3   OH281280   6.005   5.144  11.910 -0.4692 -0.1237 -0.0700
19930TIP3    H181281   6.046   5.058  11.908  1.4547  0.7611 -1.1167
19930TIP3    H281282   5.932   5.137  11.848 -0.3784 -1.0197 -0.0892
19931TIP3   OH281283   6.532   4.281  10.593 -0.2716  0.2832  0.4061
19931TIP3    H181284   6.624   4.285  10.618 -0.2603 -1.1302  0.7039
19931TIP3    H281285   6.498   4.368  10.611 -0.2200 -0.4521  5.1377
19932TIP3   OH281286   0.811   4.918  11.482  0.6992 -0.4675 -0.0170
19932TIP3    H181287   0.738   4.859  11.465 -0.8900  1.6135 -0.9660
19932TIP3    H281288   0.871   4.906  11.408  0.3734 -0.8633 -0.2142
19933TIP3   OH281289   4.580   2.742   0.872 -0.2445 -0.2484  0.1383
19933TIP3    H181290   4.526   2.813   0.836 -0.2092  0.0164  0.6010
19933TIP3    H281291   4.637   2.786   0.935 -0.5816 -0.7670  0.8164
19934TIP3   OH281292   0.636   4.349   3.886  0.1664  0.0201 -0.4365
19934TIP3    H181293   0.712   4.370   3.832  0.2198 -0.9621 -0.7628
19934TIP3    H281294   0.588   4.432   3.893  1.2911  0.6740 -0.1609
19935TIP3   OH281295   5.625   6.439  14.340 -0.0672 -0.8042  0.0460
19935TIP3    H181296   5.682   6.386  14.395  0.1103 -0.3614  0.2996
19935TIP3    H281297   5.563   6.479  14.402  1.2260  1.1059  0.2053
19936TIP3   OH281298   4.131   1.447   5.700 -0.3652  0.0862  0.0663
19936TIP3    H181299   4.072   1.415   5.769  0.2525 -1.2880 -0.0190
19936TIP3    H281300   4.197   1.498   5.747 -0.4745 -0.0669  0.3889
19937TIP3   OH281301   0.536   6.170   4.844 -0.3072  0.0509  0.1550
19937TIP3    H181302   0.510   6.262   4.833 -2.9440 -0.4619  1.4558
19937TIP3    H281303   0.519   6.130   4.758 -2.9348 -0.0036  0.6363
19938TIP3   OH281304   5.209   1.512   5.178  0.6967 -0.3296  0.1771
19938TIP3    H181305   5.142   1.455   5.140  0.5939  0.0216 -0.1675
19938TIP3    H281306   5.188   1.600   5.146  0.3884  0.0342  1.3471
19939TIP3   OH281307   3.548   5.510  11.510 -0.6474 -0.4019 -0.1354
19939TIP3    H181308   3.571   5.476  11.424  1.2454  1.1659 -0.3375
19939TIP3    H281309   3.583   5.445  11.572  0.0670 -0.4004 -0.5307
19940TIP3   OH281310   4.968   0.845   5.276 -0.5587 -0.0592 -0.1684
19940TIP3    H181311   4.939   0.837   5.186 -1.2127  0.8952 -0.0545
19940TIP3    H281312   5.062   0.865   5.270 -0.7756  0.8053 -0.6561
19941TIP3   OH281313   3.516   4.062   3.982 -0.1117 -0.2357 -0.5652
19941TIP3    H181314   3.563   3.978   3.989  0.5929 -0.4741 -5.2112
19941TIP3    H281315   3.427   4.037   3.956 -0.4016  0.4725 -0.2734
19942TIP3   OH281316   0.672   3.953  14.388 -0.6097  0.2789  0.1014
19942TIP3    H181317   0.745   3.934  14.446  0.8332  2.1974 -0.9670
19942TIP3    H281318   0.601   3.979  14.446 -0.1443 -0.6576  1.1104
19943TIP3   OH281319   1.792   1.262  13.525 -0.4500 -0.0295 -0.4838
19943TIP3    H181320   1.745   1.345  13.518 -1.8765 -0.7666  0.0536
19943TIP3    H281321   1.884   1.288  13.528 -0.8775  1.5756  0.1792
19944TIP3   OH281322   2.256   3.160   2.969  0.0080  0.4033  0.3027
19944TIP3    H181323   2.169   3.155   2.930  0.2611  2.3502 -0.6451
19944TIP3    H281324   2.241   3.195   3.057 -0.1685  0.8100  0.1114
19945TIP3   OH281325   3.046   3.783  12.836 -0.0529  0.0738 -0.0627
19945TIP3    H181326   3.041   3.779  12.932 -2.0620  0.4976 -0.1000
19945TIP3    H281327   2.957   3.763  12.807 -0.1422  2.4836 -1.7404
19946TIP3   OH281328   4.866   3.444   0.561 -0.0058 -0.6334 -0.5965
19946TIP3    H181329   4.912   3.517   0.602 -2.5205  0.6615  0.1173
19946TIP3    H281330   4.868   3.463   0.467 -2.0985  1.3620 -0.3077
19947TIP3   OH281331   2.770   6.090  11.873 -0.4120 -0.4250 -0.5202
19947TIP3    H181332   2.732   6.106  11.959 -1.7156 -1.8688 -0.7658
19947TIP3    H281333   2.863   6.111  11.883 -0.4232 -1.0593  1.3849
19948TIP3   OH281334   5.608   0.051   3.786 -0.6562 -0.0493 -0.5852
19948TIP3    H181335   5.602   0.140   3.822  0.7060 -0.9262  2.1066
19948TIP3    H281336   5.524   0.011   3.809 -0.0442 -0.3975  1.2730
19949TIP3   OH281337   5.277   6.526   0.572 -0.5166 -0.8098  0.0125
19949TIP3    H181338   5.318   6.590   0.631 -0.1142 -2.0280  1.1160
19949TIP3    H281339   5.351   6.486   0.526 -0.9004  1.1424 -2.5045
19950TIP3   OH281340   4.574   5.729   3.398 -0.2421  0.1992 -0.1937
19950TIP3    H181341   4.659   5.773   3.405  0.3335 -0.9738  0.5958
19950TIP3    H281342   4.592   5.638   3.421 -1.6401 -0.1721 -0.4619
19951TIP3   OH281343   4.330   1.952   3.282 -0.1644 -0.3437  0.1493
19951TIP3    H181344   4.273   1.902   3.340 -1.1911  1.4587  0.7701
19951TIP3    H281345   4.351   2.031   3.331  0.8384  0.1641 -1.0484
19952TIP3   OH281346   5.630   4.510  15.976  0.2191  0.2952 -0.0013
19952TIP3    H181347   5.584   4.427  15.990 -2.7495  1.9838  1.2070
19952TIP3    H281348   5.560   4.576  15.974  2.5047  2.8869 -0.0910
19953TIP3   OH281349   5.933   6.212  14.611 -0.0631 -0.6571  0.0940
19953TIP3    H181350   5.997   6.283  14.603 -0.5002  0.0496  2.2294
19953TIP3    H281351   5.862   6.237  14.552  0.6847 -0.3844 -0.7198
19954TIP3   OH281352   5.523   4.841  16.363  0.3838 -0.2612 -0.1815
19954TIP3    H181353   5.558   4.752  16.358  1.4007  0.1596 -1.0936
19954TIP3    H281354   5.541   4.878  16.276  0.5219  1.0250  0.3731
19955TIP3   OH281355   3.701   2.570  11.527  0.2891  0.0916  0.3324
19955TIP3    H181356   3.744   2.528  11.601 -1.1961  0.8176  1.6787
19955TIP3    H281357   3.631   2.509  11.502  1.1653 -0.4440 -0.9366
19956TIP3   OH281358   4.589   0.721  14.716 -0.3418  0.4487  0.0840
19956TIP3    H181359   4.523   0.652  14.720  0.2795 -0.1795 -0.2131
19956TIP3    H281360   4.633   0.708  14.632  1.7677 -0.6849  1.2821
19957TIP3   OH281361   6.753   2.636  10.945  0.7094  0.2437 -0.0937
19957TIP3    H181362   6.721   2.640  10.855  0.6725 -0.5235 -0.1155
19957TIP3    H281363   6.815   2.709  10.951 -0.1470  1.0255 -0.3902
19958TIP3   OH281364   4.333   0.042   6.013  0.0924 -0.2657 -0.0525
19958TIP3    H181365   4.319   0.055   5.919 -0.0918 -0.5064 -0.0583
19958TIP3    H281366   4.262  -0.016   6.040 -0.1033  0.1378  0.3206
19959TIP3   OH281367   0.350   2.684  16.330 -0.1249 -0.0020  0.0313
19959TIP3    H181368   0.275   2.699  16.388 -0.4495 -2.2245  0.2861
19959TIP3    H281369   0.415   2.639  16.385  1.1264  1.2285 -0.3756
19960TIP3   OH281370   0.967   2.128   1.565 -0.6386 -0.1097  0.4678
19960TIP3    H181371   0.900   2.168   1.510  0.5216  1.7799  0.3054
19960TIP3    H281372   1.029   2.089   1.503 -0.7677 -0.4442  0.5488
19961TIP3   OH281373   1.816   2.039   3.437 -0.2398  0.2125  0.0245
19961TIP3    H181374   1.810   2.048   3.342  1.5357  1.6629 -0.0133
19961TIP3    H281375   1.898   1.991   3.450  0.0935  0.9742  0.8188
19962TIP3   OH281376   5.209   6.685   6.321 -0.1229 -0.4658 -0.1551
19962TIP3    H181377   5.228   6.691   6.415  0.0198  0.1572 -0.2207
19962TIP3    H281378   5.296   6.681   6.279 -0.0738  1.7925 -0.4151
19963TIP3   OH281379   2.036   5.893   2.912  0.2920 -0.1256 -0.3029
19963TIP3    H181380   2.091   5.831   2.864 -0.3966  0.8449 -2.4209
19963TIP3    H281381   2.063   5.979   2.882 -1.1678  0.4568 -0.0483
19964TIP3   OH281382   4.230   2.844   6.334  0.1547 -0.1198 -0.7463
19964TIP3    H181383   4.163   2.908   6.358  0.1647  0.4598 -2.1397
19964TIP3    H281384   4.313   2.887   6.352  0.1681 -0.4134 -0.0695
19965TIP3   OH281385   4.803   6.189  11.760 -0.1870  0.0047  0.2949
19965TIP3    H181386   4.883   6.184  11.813 -0.2322 -0.7924  0.2868
19965TIP3    H281387   4.811   6.118  11.697 -0.9232 -0.1034  0.3148
19966TIP3   OH281388   1.311   1.332  16.768 -0.2477 -0.3618  0.2066
19966TIP3    H181389   1.324   1.386  16.846  0.7860  1.3016 -1.0553
19966TIP3    H281390   1.384   1.270  16.770  1.5743  1.5984 -0.8990
19967TIP3   OH281391   0.763   0.019   2.708 -0.2736 -0.4297 -0.1630
19967TIP3    H181392   0.769   0.032   2.803  0.9357  0.7745 -0.3794
19967TIP3    H281393   0.759  -0.076   2.698 -0.7845 -0.5679  1.1077
19968TIP3   OH281394   3.947   5.997   4.157 -0.3332  0.5895 -0.0524
19968TIP3    H181395   3.923   6.038   4.074  1.6866  0.7405 -0.6214
19968TIP3    H281396   3.992   5.916   4.132 -1.1866 -0.2297  0.9667
19969TIP3   OH281397   0.080   3.260  16.430 -0.1788  0.0910  0.5506
19969TIP3    H181398   0.113   3.170  16.431 -1.1434 -0.3148 -0.5550
19969TIP3    H281399  -0.015   3.249  16.429 -0.3258  1.1643  1.5531
19970TIP3   OH281400   1.568   6.802   0.021  0.1240  0.0236  0.3627
19970TIP3    H181401   1.510   6.877   0.034  0.9055  0.8587 -0.7502
19970TIP3    H281402   1.545   6.767  -0.065 -0.2030 -1.0114  0.8542
19971TIP3   OH281403   6.783   2.506  16.615  0.0364  0.1869  0.5871
19971TIP3    H181404   6.744   2.493  16.528  1.8272  1.6887 -0.5163
19971TIP3    H281405   6.848   2.436  16.623  0.9078  0.9127  0.0436
19972TIP3   OH281406   5.531   3.345  14.163 -0.3386  0.0437  0.1842
19972TIP3    H181407   5.503   3.392  14.085  0.9919  2.4294  1.0479
19972TIP3    H281408   5.622   3.320  14.146  0.1668  1.1207  1.1529
19973TIP3   OH281409   1.420   1.395  14.995 -0.2581  0.2748 -0.0131
19973TIP3    H181410   1.484   1.329  14.969 -0.4729 -0.2903  0.8563
19973TIP3    H281411   1.454   1.477  14.959 -0.2287 -0.3662 -1.5290
19974TIP3   OH281412   3.699   1.835   4.048  0.4481  0.2045  0.4078
19974TIP3    H181413   3.632   1.904   4.054  0.5860  0.2084  3.3984
19974TIP3    H281414   3.778   1.875   4.083  1.6393 -0.3349 -1.5150
19975TIP3   OH281415   0.473   3.975   2.217 -0.0009  0.2467 -0.0588
19975TIP3    H181416   0.415   3.971   2.141  1.3484 -1.0116 -1.0786
19975TIP3    H281417   0.539   4.041   2.193  0.2953  0.0164  0.1234
19976TIP3   OH281418   6.481   5.094   5.895 -0.0470 -0.2602  0.2658
19976TIP3    H181419   6.457   5.183   5.868  0.4155 -1.0159 -3.1598
19976TIP3    H281420   6.492   5.099   5.990  1.3080  3.6306  0.0542
19977TIP3   OH281421   5.949   1.286   2.059  0.1555 -0.3155 -0.0048
19977TIP3    H181422   5.858   1.310   2.042 -0.2074 -1.7507 -0.2275
19977TIP3    H281423   5.976   1.341   2.133 -0.6699  0.5867 -0.3581
19978TIP3   OH281424   0.250   2.621   2.241  0.4127 -0.5290  0.0589
19978TIP3    H181425   0.314   2.663   2.184 -0.6529  0.2521 -0.6045
19978TIP3    H281426   0.267   2.660   2.327  0.3607  0.2388 -0.2643
19979TIP3   OH281427   4.069   5.339  16.519  0.3034  0.0098  0.3556
19979TIP3    H181428   4.093   5.302  16.604 -3.0885  0.1389  1.5314
19979TIP3    H281429   4.065   5.433  16.534  2.0260  0.2752 -0.6711
19980TIP3   OH281430   3.209   0.525   5.166  0.0862 -0.6217  0.0150
19980TIP3    H181431   3.230   0.439   5.203  1.9370  0.3176  1.3486
19980TIP3    H281432   3.279   0.541   5.102  0.2189  0.2016  0.3533
19981TIP3   OH281433   6.705   0.797  13.059 -0.6548  0.3379  0.2296
19981TIP3    H181434   6.625   0.846  13.078 -0.1805  1.5944 -0.8906
19981TIP3    H281435   6.774   0.864  13.055  0.3496 -0.6421  0.4974
19982TIP3   OH281436   6.803   0.337   0.497  0.1028 -0.3346  0.0037
19982TIP3    H181437   6.772   0.417   0.454 -1.0867 -1.1282 -0.6935
19982TIP3    H281438   6.772   0.266   0.441  0.1189 -1.3389  1.2092
19983TIP3   OH281439   3.864   1.619   3.794 -0.0757  0.1044 -0.6176
19983TIP3    H181440   3.958   1.611   3.805 -0.1303  1.1812  0.9245
19983TIP3    H281441   3.827   1.569   3.866 -0.5133  4.4483  2.5554
19984TIP3   OH281442   2.970   5.041   4.550 -0.1667  0.2155 -0.5868
19984TIP3    H181443   2.966   4.949   4.522 -0.4948  0.0150  0.1094
19984TIP3    H281444   2.912   5.046   4.625 -0.6304  1.1369 -0.9906
19985TIP3   OH281445   4.352   1.503  12.810 -0.3275  0.5236  0.2172
19985TIP3    H181446   4.270   1.550  12.820 -0.6423 -0.0050  0.1714
19985TIP3    H281447   4.341   1.425  12.865  0.3434  0.7062  0.6230
19986TIP3   OH281448   3.884   3.665  16.464 -0.0078  0.1870 -0.1858
19986TIP3    H181449   3.944   3.692  16.534 -0.7063  1.8065 -0.1748
19986TIP3    H281450   3.941   3.643  16.391  0.7610 -1.8169  0.9257
19987TIP3   OH281451   2.757   3.783  15.609 -0.1291 -0.3467  0.2075
19987TIP3    H181452   2.789   3.697  15.581  0.7244  0.1689 -0.4618
19987TIP3    H281453   2.816   3.809  15.679  0.1150  0.0335 -0.1316
19988TIP3   OH281454   2.857   3.998   4.102 -0.2540 -0.4005  0.3287
19988TIP3    H181455   2.944   4.013   4.064 -0.9841 -1.1148 -1.7917
19988TIP3    H281456   2.867   3.918   4.154  0.7010  0.4230  1.4757
19989TIP3   OH281457   0.164   6.366  15.695  0.0083 -0.0203 -0.1396
19989TIP3    H181458   0.213   6.367  15.612 -1.1252 -0.6729 -0.8409
19989TIP3    H281459   0.230   6.385  15.761  0.9128  0.7240 -1.2024
19990TIP3   OH281460   1.201   0.433   0.463  0.5165  0.1366 -0.0647
19990TIP3    H181461   1.183   0.420   0.556 -0.1175  2.4999  0.2226
19990TIP3    H281462   1.296   0.444   0.458  0.6510 -0.8414  0.1481
19991TIP3   OH281463   1.591   5.804  11.194 -0.5875  0.1752  0.8115
19991TIP3    H181464   1.501   5.836  11.187 -0.0889  1.4019 -0.4734
19991TIP3    H281465   1.582   5.708  11.200 -1.9389  0.1887 -0.3887
19992TIP3   OH281466   4.266   3.507   0.011 -0.5921  0.2150  0.5983
19992TIP3    H181467   4.194   3.542   0.064 -2.1405 -1.3860 -0.3367
19992TIP3    H281468   4.243   3.415  -0.003  0.8129  0.0774 -1.1091
19993TIP3   OH281469   4.646   6.560  13.661  0.4275 -0.3054  0.1679
19993TIP3    H181470   4.609   6.488  13.610  1.4758 -0.0566 -0.9813
19993TIP3    H281471   4.740   6.555  13.644  0.5090  1.3838  0.0068
19994TIP3   OH281472   1.276   1.312   3.822 -0.1707 -0.2328  0.1806
19994TIP3    H181473   1.222   1.285   3.748  0.4326  1.7246 -1.0799
19994TIP3    H281474   1.341   1.242   3.832  2.0218  0.9820 -3.6132
19995TIP3   OH281475   3.413   0.892   6.444 -0.2915 -1.0223  0.5091
19995TIP3    H181476   3.390   0.957   6.511  0.8429 -1.6060  1.4861
19995TIP3    H281477   3.429   0.944   6.365  0.6702 -0.0751  1.2924
19996TIP3   OH281478   4.121   4.606  14.368  0.2236  0.3837 -0.2257
19996TIP3    H181479   4.148   4.519  14.337 -1.8713 -0.6275  0.5986
19996TIP3    H281480   4.150   4.666  14.299  2.5319 -0.8106 -0.3981
19997TIP3   OH281481   5.200   2.396   3.651  0.1522 -0.2834 -0.3163
19997TIP3    H181482   5.231   2.476   3.693 -0.4707  0.1227 -0.6102
19997TIP3    H281483   5.279   2.351   3.622  0.6731 -1.0687  2.1481
19998TIP3   OH281484   2.732   6.566  10.610 -0.3152 -0.1880 -0.3804
19998TIP3    H181485   2.825   6.589  10.601 -0.6014  0.9406 -0.4924
19998TIP3    H281486   2.733   6.471  10.622  0.9107 -0.1047  0.4240
19999TIP3   OH281487   1.145   0.886  15.679 -0.1375 -0.2612 -0.0258
19999TIP3    H181488   1.065   0.927  15.711 -1.3197 -1.1389 -1.6843
19999TIP3    H281489   1.146   0.905  15.585  3.0410  1.9699  0.3073
20000TIP3   OH281490   1.865   0.295   4.637  0.0735 -0.3299 -0.2494
20000TIP3    H181491   1.788   0.314   4.583 -0.1271 -2.5171 -0.8270
20000TIP3    H281492   1.828   0.259   4.718  0.4462  0.3480  0.2234
20001TIP3   OH281493   4.819   2.432   3.624  0.3518  1.2982  0.4647
20001TIP3    H181494   4.820   2.390   3.710  0.3765 -1.2292 -0.6782
20001TIP3    H281495   4.730   2.467   3.615 -0.5944 -0.9367  0.4497
20002TIP3   OH281496   0.498   6.171  11.459 -0.0037 -0.1743 -0.3669
20002TIP3    H181497   0.491   6.080  11.429 -2.1799 -1.5483  3.6883
20002TIP3    H281498   0.584   6.175  11.502 -0.3805 -0.6853  0.4490
20003TIP3   OH281499   6.699   4.082  11.617  0.4633  0.0380 -0.0872
20003TIP3    H181500   6.772   4.020  11.621 -0.3187 -0.9195 -0.1243
20003TIP3    H281501   6.721   4.141  11.545  0.6388 -0.9987 -0.9139
20004TIP3   OH281502   1.620   3.161   4.481 -0.2766  0.0365 -0.2299
20004TIP3    H181503   1.610   3.256   4.486 -1.0958  0.0884 -2.2638
20004TIP3    H281504   1.575   3.129   4.559 -2.7470  1.1719 -1.0956
20005TIP3   OH281505   0.139   0.206   2.469 -0.2198 -0.3162  0.8421
20005TIP3    H181506   0.190   0.144   2.417 -1.7890 -1.2483  0.3458
20005TIP3    H281507   0.192   0.286   2.471  0.9537 -1.0423 -0.1594
20006TIP3   OH281508   4.494   6.314  16.259  0.2284 -0.6492  0.1912
20006TIP3    H181509   4.560   6.343  16.197  0.4629  0.2215  0.8298
20006TIP3    H281510   4.436   6.390  16.269 -0.8255 -1.3703 -0.2988
20007TIP3   OH281511   0.665   0.903  15.976  0.1512  0.2734  0.3182
20007TIP3    H181512   0.573   0.878  15.975 -0.6299  2.9432 -0.6970
20007TIP3    H281513   0.691   0.903  15.884  0.6066  1.4438  0.4380
20008TIP3   OH281514   5.591   1.978  11.479  0.2388  0.0164 -0.3865
20008TIP3    H181515   5.561   1.982  11.570 -0.6422 -1.3425 -0.5924
20008TIP3    H281516   5.534   2.040  11.433  2.0621  2.3569  0.2695
20009TIP3   OH281517   5.267   3.332   5.453  0.5136 -0.0274  0.1735
20009TIP3    H181518   5.309   3.398   5.398 -1.8406 -0.4587 -2.3215
20009TIP3    H281519   5.217   3.383   5.517 -0.2527  0.6339 -0.9157
20010TIP3   OH281520   2.573   3.000   3.171 -0.2136 -0.5837 -0.1498
20010TIP3    H181521   2.506   3.053   3.213 -0.6395 -1.8927  0.8765
20010TIP3    H281522   2.542   2.988   3.081 -0.7639 -0.1903 -0.0145
20011TIP3   OH281523   5.764   3.314  13.000 -0.1188  0.3593  0.6160
20011TIP3    H181524   5.797   3.339  12.914  0.8807  2.8531  1.6380
20011TIP3    H281525   5.831   3.258  13.037 -0.3829 -0.4204 -0.0640
20012TIP3   OH281526   6.755   1.325  13.638 -0.1247  0.0178  0.3830
20012TIP3    H181527   6.848   1.349  13.642  0.3966 -1.1218 -2.5276
20012TIP3    H281528   6.745   1.281  13.554 -3.4640  0.6249  0.3194
20013TIP3   OH281529   0.292   3.801   1.297  0.1442  0.0235  0.1453
20013TIP3    H181530   0.263   3.836   1.213 -1.1799 -0.8920  0.1907
20013TIP3    H281531   0.257   3.712   1.300  0.9620 -0.2917  1.2693
20014TIP3   OH281532   0.494   3.264   2.444 -0.3436 -0.1170  0.5412
20014TIP3    H181533   0.520   3.211   2.368 -0.6153 -0.2168  0.5137
20014TIP3    H281534   0.497   3.354   2.412  0.9120 -0.0475  0.8242
20015TIP3   OH281535   6.356   3.473  13.452 -0.1003  0.0211  0.6570
20015TIP3    H181536   6.351   3.424  13.533 -2.4884  1.8135  1.7147
20015TIP3    H281537   6.361   3.565  13.479  2.6095  0.5792 -1.2424
20016TIP3   OH281538   2.154   4.380   5.613 -0.6749  0.1557 -0.6173
20016TIP3    H181539   2.168   4.324   5.689  0.3323  0.9663 -0.1767
20016TIP3    H281540   2.096   4.450   5.645 -0.9557  0.0247 -0.8345
20017TIP3   OH281541   4.000   1.462   3.180  0.3444 -0.0845  0.2287
20017TIP3    H181542   4.085   1.490   3.215  0.7013 -0.8227 -0.0323
20017TIP3    H281543   3.939   1.530   3.210  1.0465  0.5417  0.2829
20018TIP3   OH281544   4.806   5.618   0.282  0.3825  0.6333  0.1473
20018TIP3    H181545   4.777   5.527   0.292 -0.9431  1.2156  2.3519
20018TIP3    H281546   4.725   5.668   0.274  1.1117  1.6042 -1.8895
20019TIP3   OH281547   6.265   6.392   4.739  0.2831  0.1371 -0.0829
20019TIP3    H181548   6.354   6.362   4.718  0.5581 -0.1680  1.3989
20019TIP3    H281549   6.211   6.314   4.727  0.5658 -0.2550  1.0845
20020TIP3   OH281550   0.592   1.916  14.043 -0.2753  0.0078 -0.5428
20020TIP3    H181551   0.609   1.835  13.994  1.6951 -0.2449  0.4762
20020TIP3    H281552   0.544   1.971  13.981 -1.2914 -1.7610 -1.4024
20021TIP3   OH281553   5.405   0.209  11.713  0.2395 -0.2740 -0.3373
20021TIP3    H181554   5.340   0.218  11.782  2.3772 -0.0063  1.7662
20021TIP3    H281555   5.354   0.183  11.636 -2.3274 -0.0085  1.1366
20022TIP3   OH281556   0.793   3.288  14.184 -0.2838  0.0073  0.0529
20022TIP3    H181557   0.752   3.335  14.257 -0.3936  0.3739 -0.2418
20022TIP3    H281558   0.881   3.266  14.215  0.0263  1.0478 -0.0661
20023TIP3   OH281559   5.235   1.854  15.422 -0.4522  0.7218  0.2392
20023TIP3    H181560   5.317   1.838  15.375 -0.7594  0.4619 -0.2260
20023TIP3    H281561   5.215   1.771  15.465 -0.6300  0.6871  0.0915
20024TIP3   OH281562   0.920   3.501  13.377  0.1787 -0.0898 -0.0403
20024TIP3    H181563   0.998   3.512  13.432  0.7717 -0.0234 -0.8658
20024TIP3    H281564   0.905   3.406  13.376  0.1869 -0.0953  0.2016
20025TIP3   OH281565   3.245   4.515  12.827 -0.1814 -0.0113  0.3353
20025TIP3    H181566   3.280   4.591  12.873  2.0261 -0.8673  0.1886
20025TIP3    H281567   3.317   4.486  12.771 -1.0782 -1.9882  0.1265
20026TIP3   OH281568   1.695   0.434   4.049 -0.0890 -0.0230 -0.4800
20026TIP3    H181569   1.769   0.455   3.992  1.3126  2.1897  1.9589
20026TIP3    H281570   1.717   0.350   4.088  1.4665  0.8833  0.6512
20027TIP3   OH281571   2.799   5.857  10.847 -0.3177  0.1760 -0.4816
20027TIP3    H181572   2.762   5.918  10.784 -0.0866  0.4792 -0.3251
20027TIP3    H281573   2.796   5.903  10.931 -1.2305 -0.4769 -0.1441
20028TIP3   OH281574   3.384   2.145  14.547 -0.0719 -0.5635 -0.1948
20028TIP3    H181575   3.370   2.051  14.541  0.3813 -0.6638  0.2866
20028TIP3    H281576   3.479   2.156  14.535  0.1363 -0.3297  1.4430
20029TIP3   OH281577   4.097   1.344   3.903 -0.3261 -0.2986 -0.6156
20029TIP3    H181578   4.131   1.329   3.815  1.3918  1.6182 -0.3499
20029TIP3    H281579   4.092   1.439   3.911  0.5227 -0.3880  1.7033
20030TIP3   OH281580   0.322   6.597   5.394 -0.0119 -0.8857 -0.0292
20030TIP3    H181581   0.297   6.634   5.309 -1.2136 -1.2571  0.1501
20030TIP3    H281582   0.305   6.504   5.385  0.4958 -1.0268  0.4132
20031TIP3   OH281583   2.579   1.530  16.598 -0.3204  0.2443  0.7385
20031TIP3    H181584   2.530   1.494  16.671  1.2369 -3.2781  0.2264
20031TIP3    H281585   2.520   1.523  16.523  0.0710 -1.8069  0.5729
20032TIP3   OH281586   2.182   6.626  16.313 -0.0800 -0.1140 -0.1423
20032TIP3    H181587   2.229   6.708  16.326  2.9600 -1.5547 -1.1864
20032TIP3    H281588   2.177   6.616  16.218 -1.3345 -0.6947 -0.0369
20033TIP3   OH281589   1.390   4.597   1.837  0.3313  0.7678 -0.5011
20033TIP3    H181590   1.462   4.609   1.776  1.5704 -2.8421  0.0175
20033TIP3    H281591   1.405   4.662   1.906  3.6120 -0.3253 -0.0329
20034TIP3   OH281592   3.493   0.077  16.913 -0.1955 -0.2281  0.3787
20034TIP3    H181593   3.542   0.018  16.971 -0.6981  1.2388  2.4378
20034TIP3    H281594   3.560   0.124  16.863  0.2228 -2.0564 -0.8588
20035TIP3   OH281595   1.157   2.514  11.498 -0.5331 -0.0257 -0.9561
20035TIP3    H181596   1.115   2.440  11.543  2.4057 -0.9239  0.5693
20035TIP3    H281597   1.213   2.473  11.432 -0.8272  1.0247 -1.8855
20036TIP3   OH281598   2.892   0.119  13.424  0.0346  0.0451  0.0394
20036TIP3    H181599   2.854   0.031  13.418 -0.1240  0.0746  0.5860
20036TIP3    H281600   2.981   0.105  13.457  1.6531 -0.3015 -3.9057
20037TIP3   OH281601   6.291   0.279  12.799 -0.0037  0.0116 -0.1736
20037TIP3    H181602   6.214   0.248  12.847  0.3134  0.1698  0.4353
20037TIP3    H281603   6.265   0.365  12.765  0.1638  0.4126  0.6847
20038TIP3   OH281604   0.842   2.770  15.217 -0.1286  0.0386 -0.6438
20038TIP3    H181605   0.787   2.841  15.184 -0.8748 -0.4235 -0.4208
20038TIP3    H281606   0.844   2.706  15.146 -0.5794 -0.3258 -0.3331
20039TIP3   OH281607   0.475   2.256  12.072  0.5589  0.0295  0.2467
20039TIP3    H181608   0.545   2.239  12.135  1.9839  2.6471 -0.4977
20039TIP3    H281609   0.461   2.351  12.076 -2.4839 -0.2910 -0.1719
20040TIP3   OH281610   1.346   2.155  15.956  0.2460 -0.3039  0.0275
20040TIP3    H181611   1.353   2.176  15.863  1.9019  0.3524  0.2618
20040TIP3    H281612   1.343   2.060  15.958  1.1595 -0.3603 -0.6594
20041TIP3   OH281613   3.221   3.348  12.570  0.3416 -0.4883  0.0669
20041TIP3    H181614   3.225   3.427  12.624  1.3269  0.2215 -0.9927
20041TIP3    H281615   3.129   3.322  12.573  0.2776 -0.2030  1.6676
20042TIP3   OH281616   4.755   2.351   5.909  0.0384  0.0204  0.3631
20042TIP3    H181617   4.779   2.269   5.866  1.2291  1.0213 -0.9733
20042TIP3    H281618   4.815   2.358   5.983 -0.6699 -0.7276  1.0249
20043TIP3   OH281619   0.210   5.329   3.838 -0.6062  0.1803 -0.1459
20043TIP3    H181620   0.197   5.377   3.757  0.8594  1.6592  0.4477
20043TIP3    H281621   0.299   5.351   3.866 -1.0318 -0.3625  1.8050
20044TIP3   OH281622   3.388   1.279  13.321 -0.3588  0.0650  0.3668
20044TIP3    H181623   3.299   1.253  13.297 -0.1126  1.0526 -1.8295
20044TIP3    H281624   3.444   1.235  13.258  1.0544 -2.4875  3.1433
20045TIP3   OH281625   2.295   6.819  13.922 -0.1179 -0.2455  0.4832
20045TIP3    H181626   2.290   6.758  13.995 -0.0503  0.3278  0.9752
20045TIP3    H281627   2.372   6.872  13.940 -0.6926  0.5932  0.5555
20046TIP3   OH281628   3.211   5.756  11.014  0.3633  0.4511 -0.2207
20046TIP3    H181629   3.199   5.731  10.923 -0.3480 -0.0105 -0.0075
20046TIP3    H281630   3.297   5.719  11.038  0.5692  0.6076 -0.7074
20047TIP3   OH281631   4.832   1.569   1.012 -0.0143 -0.0644 -0.0201
20047TIP3    H181632   4.893   1.503   1.043 -0.5197 -0.7789 -0.5218
20047TIP3    H281633   4.789   1.529   0.936 -1.0688  0.4314  0.2893
20048TIP3   OH281634   5.719   0.503   1.732 -0.6919  0.4512 -0.1118
20048TIP3    H181635   5.769   0.493   1.813  0.3425  1.9006 -0.5476
20048TIP3    H281636   5.636   0.460   1.751  0.1685 -0.7766  1.1146
20049TIP3   OH281637   6.155   4.586   1.282 -0.0497  0.7268 -0.2492
20049TIP3    H181638   6.121   4.581   1.372  0.0022  2.3368 -0.1040
20049TIP3    H281639   6.222   4.518   1.278  1.0922  1.6845  1.4778
20050TIP3   OH281640   3.561   6.106  12.222 -0.1897  0.2890 -0.4096
20050TIP3    H181641   3.488   6.143  12.172  0.9516  0.6663 -1.8625
20050TIP3    H281642   3.639   6.141  12.179  0.9274 -2.5441 -0.8622
20051TIP3   OH281643   6.688   4.702  14.372  1.0150  0.1768  0.0852
20051TIP3    H181644   6.703   4.732  14.282 -0.6880  2.2810  0.4093
20051TIP3    H281645   6.603   4.740  14.396  1.1654 -0.7886  2.4012
20052TIP3   OH281646   6.607   2.926   1.796  0.3371 -0.4167  0.0234
20052TIP3    H181647   6.678   2.977   1.837  1.2565  0.2736 -2.2247
20052TIP3    H281648   6.530   2.982   1.803  0.8856  0.4588 -0.6470
20053TIP3   OH281649   2.584   3.080  14.579  0.2095  0.2475 -0.9375
20053TIP3    H181650   2.519   3.119  14.519 -0.1295  0.1209 -0.6579
20053TIP3    H281651   2.548   3.096  14.666 -0.5927 -1.8162 -0.8478
20054TIP3   OH281652   1.402   3.177  16.707  0.4891  0.2566  0.7901
20054TIP3    H181653   1.427   3.114  16.640  2.8725  0.5751  1.2774
20054TIP3    H281654   1.384   3.124  16.785  0.4893  0.0644  0.6579
20055TIP3   OH281655   1.452   5.708  12.937  0.6372  1.2347  0.2798
20055TIP3    H181656   1.449   5.693  13.031  1.1710  0.2813  0.1563
20055TIP3    H281657   1.543   5.734  12.920  0.4381  1.8078  0.0847
20056TIP3   OH281658   3.649   5.594   2.721  0.4470 -0.1254 -0.6997
20056TIP3    H181659   3.643   5.615   2.628  0.4738 -0.7112 -0.8390
20056TIP3    H281660   3.578   5.531   2.736  0.3632  0.0553 -0.2934
20057TIP3   OH281661   3.300   6.270  13.777 -0.9704 -0.7341 -0.4365
20057TIP3    H181662   3.372   6.275  13.714 -0.3865 -1.0872  0.1836
20057TIP3    H281663   3.239   6.339  13.750 -0.4464 -0.4975 -1.0353
20058TIP3   OH281664   3.874   0.375   0.483 -0.3399  0.1834 -0.5319
20058TIP3    H181665   3.945   0.381   0.547 -0.9505 -1.5240  0.3712
20058TIP3    H281666   3.852   0.282   0.480 -2.3054  0.6092 -1.0202
20059TIP3   OH281667   2.148   5.215  10.346 -0.0425  0.3101 -0.3610
20059TIP3    H181668   2.214   5.149  10.364  0.4715  0.6539 -0.9333
20059TIP3    H281669   2.198   5.295  10.327 -0.6585  1.0834  1.0641
20060TIP3   OH281670   0.918   3.611  16.154  0.2131 -0.3662  0.3386
20060TIP3    H181671   0.961   3.532  16.121  0.7190  0.0827 -0.1069
20060TIP3    H281672   0.941   3.679  16.090 -2.2578 -0.3854 -0.6675
20061TIP3   OH281673   1.672   4.240  14.420 -0.0787 -0.5781 -0.5023
20061TIP3    H181674   1.718   4.194  14.491 -1.6659 -0.3821  0.7034
20061TIP3    H281675   1.742   4.284  14.372  0.9534  1.1356  2.2784
20062TIP3   OH281676   4.677   5.440   4.675 -0.1152 -0.3614  0.1053
20062TIP3    H181677   4.638   5.416   4.591  0.7591  1.6466 -0.9275
20062TIP3    H281678   4.609   5.419   4.740 -2.4075  1.7060 -1.4839
20063TIP3   OH281679   6.083   6.822  14.263 -0.7245 -0.0275 -0.0153
20063TIP3    H181680   6.141   6.860  14.197  0.1605  0.2974  0.9074
20063TIP3    H281681   5.995   6.849  14.237 -0.6848 -1.8185 -2.3174
20064TIP3   OH281682   6.576   0.440   4.789  0.2017 -0.2737  1.0608
20064TIP3    H181683   6.495   0.418   4.835 -0.5841  1.5545  0.6182
20064TIP3    H281684   6.552   0.434   4.696  1.0378 -1.2605  0.8835
20065TIP3   OH281685   4.386   5.154   4.664  0.3734  0.4829  0.3928
20065TIP3    H181686   4.292   5.167   4.652  0.4992  1.6990  0.6348
20065TIP3    H281687   4.407   5.201   4.744  1.2812  0.6434  0.0726
20066TIP3   OH281688   2.751   5.041   2.037 -0.2923  0.7061 -0.0325
20066TIP3    H181689   2.777   5.074   1.950  0.1275  4.2397  1.2609
20066TIP3    H281690   2.829   4.996   2.070  0.1632  0.9432 -0.7634
20067TIP3   OH281691   3.637   2.875   1.862 -0.0328  0.8357  0.4621
20067TIP3    H181692   3.564   2.816   1.842  0.8977 -0.6059  1.1371
20067TIP3    H281693   3.614   2.911   1.948 -1.2942  2.6421 -0.5635
20068TIP3   OH281694   3.713   3.337   1.806  0.1901  0.1365 -0.1807
20068TIP3    H181695   3.657   3.347   1.729  0.2324  2.7105  0.0358
20068TIP3    H281696   3.758   3.254   1.792 -1.4276 -0.5274 -1.8376
20069TIP3   OH281697   6.805   4.071   1.267  0.3100 -0.0615 -0.6422
20069TIP3    H181698   6.753   4.143   1.303 -2.5503 -1.0932 -2.4087
20069TIP3    H281699   6.821   4.013   1.341 -0.6360  0.5479  0.0585
20070TIP3   OH281700   0.962   4.979  15.332 -0.3035 -0.0792 -0.2985
20070TIP3    H181701   0.950   4.893  15.373 -0.5188 -0.3226 -0.8478
20070TIP3    H281702   1.007   5.032  15.397  1.0105 -1.0074 -0.4299
20071TIP3   OH281703   4.221   1.791  16.765 -0.7147 -0.0669 -0.1229
20071TIP3    H181704   4.296   1.732  16.775 -1.8956 -1.2417  3.0074
20071TIP3    H281705   4.150   1.734  16.735 -1.4978  0.0043  1.5145
20072TIP3   OH281706   4.456   2.028   4.628 -0.0151  0.7956 -0.4689
20072TIP3    H181707   4.490   2.076   4.703 -2.3626  2.8058 -0.5508
20072TIP3    H281708   4.405   1.957   4.666  0.8223  0.2976 -0.2567
20073TIP3   OH281709   1.543   1.950   2.276 -0.3558  0.0698  0.4459
20073TIP3    H181710   1.534   2.018   2.209  0.9531  1.2679  1.4280
20073TIP3    H281711   1.469   1.891   2.260 -0.0809  0.2844 -2.0534
20074TIP3   OH281712   6.305   6.585   3.641  0.6145 -0.1298  0.3349
20074TIP3    H181713   6.298   6.553   3.731 -0.4225 -0.3653  0.1819
20074TIP3    H281714   6.281   6.509   3.587  0.2781  0.2857 -0.1045
20075TIP3   OH281715   3.721   2.297   2.547  0.2451  0.3672 -0.1492
20075TIP3    H181716   3.651   2.345   2.591  0.5757  1.3801 -0.6970
20075TIP3    H281717   3.786   2.363   2.525  0.5439 -0.2673 -1.2739
20076TIP3   OH281718   5.503   1.050   2.116  0.0049  0.9154 -0.2025
20076TIP3    H181719   5.524   0.979   2.055 -0.7474  1.2579 -0.8738
20076TIP3    H281720   5.572   1.115   2.102  0.2259  0.6866 -0.1831
20077TIP3   OH281721   6.121   1.129  12.899 -0.2456  0.2481 -0.2850
20077TIP3    H181722   6.201   1.151  12.852  0.4514  1.1943  1.2648
20077TIP3    H281723   6.053   1.127  12.831  0.6000  2.1445 -1.2846
20078TIP3   OH281724   4.770   4.912   0.614  0.6331 -0.6286 -0.3438
20078TIP3    H181725   4.714   4.836   0.598 -0.8872  0.5522 -0.7943
20078TIP3    H281726   4.797   4.903   0.705  0.3079 -1.5874 -0.3280
20079TIP3   OH281727   0.711   0.724  12.534 -0.0061 -0.4285  0.1789
20079TIP3    H181728   0.652   0.774  12.477  0.6520  0.6807  0.4372
20079TIP3    H281729   0.659   0.708  12.613 -0.6065 -1.1632 -0.3526
20080TIP3   OH281730   4.222   5.401  11.445  0.0749  0.2496  0.3053
20080TIP3    H181731   4.186   5.338  11.383  1.5812 -0.4046  0.0486
20080TIP3    H281732   4.317   5.394  11.434  0.3759  0.3784  2.4135
20081TIP3   OH281733   6.555   6.292  12.827 -0.3343 -0.4177 -0.1389
20081TIP3    H181734   6.601   6.236  12.765 -0.6299  0.3800 -1.1120
20081TIP3    H281735   6.574   6.381  12.798  0.0631  0.0115  1.3264
20082TIP3   OH281736   2.020   2.570  10.692 -0.5325  0.3577 -0.7398
20082TIP3    H181737   2.055   2.627  10.761 -1.6898  0.4213 -0.1853
20082TIP3    H281738   2.053   2.483  10.714  0.2852  0.6191 -0.9235
20083TIP3   OH281739   1.019   5.434  12.661 -0.0694 -0.2359  0.0011
20083TIP3    H181740   1.039   5.487  12.584 -0.1830 -0.5199 -0.2228
20083TIP3    H281741   1.079   5.467  12.728 -0.8672  0.8884  0.1761
20084TIP3   OH281742   4.144   2.426  12.445 -0.1719 -0.0422 -0.6168
20084TIP3    H181743   4.066   2.373  12.430 -0.2997  0.3183 -1.2845
20084TIP3    H281744   4.186   2.431  12.359  1.6197 -1.8147  0.0788
20085TIP3   OH281745   0.914   2.693   6.502 -0.2999 -0.1412 -0.2525
20085TIP3    H181746   1.004   2.722   6.515 -0.2700  0.2100 -1.2029
20085TIP3    H281747   0.908   2.611   6.552  0.4389  0.0066  0.0946
20086TIP3   OH281748   6.424   1.247  12.370 -0.1572  0.3861 -0.5723
20086TIP3    H181749   6.454   1.326  12.416 -0.5770  1.0196 -1.3757
20086TIP3    H281750   6.504   1.206  12.339  0.1288  0.0142  0.6032
20087TIP3   OH281751   5.295   0.777   2.306 -0.0934 -0.1513  0.3052
20087TIP3    H181752   5.283   0.865   2.343  1.0395 -0.0727  0.5437
20087TIP3    H281753   5.253   0.718   2.368  0.2088  0.1354  0.7932
20088TIP3   OH281754   0.386   0.540  12.070  0.1903 -0.1784 -0.2001
20088TIP3    H181755   0.465   0.491  12.047 -1.5652 -2.8671 -0.9165
20088TIP3    H281756   0.347   0.563  11.986 -0.5038 -0.0850  0.1457
20089TIP3   OH281757   2.169   3.027   1.912 -0.0975 -0.4371 -0.2894
20089TIP3    H181758   2.182   3.048   1.820 -3.4038  2.5684 -0.3065
20089TIP3    H281759   2.255   3.040   1.952  0.7407  1.4217 -2.4735
20090TIP3   OH281760   2.080   3.835   2.387 -0.4241 -0.1241  0.0205
20090TIP3    H181761   2.089   3.855   2.480  1.1956 -1.1312  0.1212
20090TIP3    H281762   1.985   3.827   2.373 -1.0083  3.6845  0.7230
20091TIP3   OH281763   0.443   0.844  11.270  0.4449 -0.2717 -0.1100
20091TIP3    H181764   0.473   0.884  11.188  1.0780 -1.0790 -0.2767
20091TIP3    H281765   0.348   0.853  11.267  0.5781  1.7042  0.1065
20092TIP3   OH281766   3.182   0.803  17.123  0.0950 -0.6634  0.2428
20092TIP3    H181767   3.166   0.709  17.117  0.6310 -0.9715  2.6448
20092TIP3    H281768   3.278   0.811  17.123  0.0654 -0.1997  0.7308
20093TIP3   OH281769   6.056   1.605   0.366  0.1392 -0.2229 -0.3032
20093TIP3    H181770   6.135   1.588   0.314 -0.6440 -3.0117 -0.7784
20093TIP3    H281771   6.019   1.518   0.381 -3.4123  1.0286 -0.9797
20094TIP3   OH281772   5.728   5.094  16.292 -0.1293 -0.2612  0.0817
20094TIP3    H181773   5.793   5.122  16.228  1.6121 -2.7448  0.6139
20094TIP3    H281774   5.776   5.084  16.373 -1.6906  0.0216  1.0866
20095TIP3   OH281775   1.847   0.604  13.914 -0.1963 -0.1350  0.1956
20095TIP3    H181776   1.930   0.605  13.865 -0.1728  0.2982  0.2435
20095TIP3    H281777   1.827   0.696  13.928 -0.2070 -0.2567  1.0069
20096TIP3   OH281778   3.711   2.514   6.395  0.5188 -0.3319  0.1003
20096TIP3    H181779   3.745   2.425   6.399  0.5917 -0.2775  0.6482
20096TIP3    H281780   3.618   2.505   6.416  0.1144 -0.5099 -1.6052
20097TIP3   OH281781   6.642   1.855   1.038  0.0225 -0.2211  0.0718
20097TIP3    H181782   6.707   1.917   1.005  1.3461 -1.6775 -0.1710
20097TIP3    H281783   6.619   1.802   0.961 -1.4681  0.2533  0.1628
20098TIP3   OH281784   0.639   6.404   5.663 -0.4280  0.6785  0.4702
20098TIP3    H181785   0.576   6.370   5.727  0.3632 -0.9495  0.4370
20098TIP3    H281786   0.720   6.415   5.713  0.1584 -0.4788 -0.2056
20099TIP3   OH281787   1.394   0.569  15.929  0.1356  0.7285 -0.0133
20099TIP3    H181788   1.440   0.507  15.872  1.6319  0.4984  1.3836
20099TIP3    H281789   1.330   0.516  15.976 -0.6966  0.8146 -1.0243
20100TIP3   OH281790   6.439   2.669   2.903  0.7499 -0.4030 -0.1388
20100TIP3    H181791   6.380   2.597   2.879  0.6581 -0.5937  0.6281
20100TIP3    H281792   6.456   2.715   2.820 -2.2181  1.0138 -0.0925
20101TIP3   OH281793   1.861   2.074  11.059  0.2261 -0.1652 -0.8466
20101TIP3    H181794   1.927   2.133  11.023 -0.0151 -0.2138 -1.3675
20101TIP3    H281795   1.912   2.006  11.104  0.6137 -1.1629 -2.7047
20102TIP3   OH281796   1.905   5.818   4.926 -0.2903 -0.0802  0.3729
20102TIP3    H181797   1.898   5.752   4.995 -0.1601  0.3563  0.8062
20102TIP3    H281798   1.991   5.857   4.938  0.2516 -0.8424 -0.8024
20103TIP3   OH281799   4.682   0.567  11.326 -0.0758  0.8938 -0.8690
20103TIP3    H181800   4.599   0.608  11.303 -0.8196 -0.0425  0.0627
20103TIP3    H281801   4.690   0.493  11.266 -1.3761 -0.7563  0.8545
20104TIP3   OH281802   3.417   4.973   2.175  0.4212 -0.0473 -0.0890
20104TIP3    H181803   3.415   4.913   2.100  0.0628 -0.6384  0.3800
20104TIP3    H281804   3.476   4.931   2.237  2.6844  1.6072 -0.9543
20105TIP3   OH281805   4.207   5.826  16.522  0.4173 -0.1045  0.4831
20105TIP3    H181806   4.179   5.917  16.536  0.4933  0.3839 -2.0708
20105TIP3    H281807   4.301   5.828  16.539  0.2372  0.0113  1.5418
20106TIP3   OH281808   2.713   0.284  10.889  0.0710  1.2585  0.0698
20106TIP3    H181809   2.679   0.281  10.978 -0.8349 -1.9957 -0.2633
20106TIP3    H281810   2.685   0.369  10.855 -1.0236  1.8671  2.3305
20107TIP3   OH281811   5.408   4.923  11.540  1.3354  0.5613  0.0843
20107TIP3    H181812   5.394   4.865  11.615 -0.7244 -0.2965 -0.8701
20107TIP3    H281813   5.376   4.872  11.465  2.2160  1.8385 -1.2069
20108TIP3   OH281814   2.543   1.593  11.793  0.0600 -0.2650 -0.3243
20108TIP3    H181815   2.635   1.578  11.770  0.2060 -1.1530  0.7637
20108TIP3    H281816   2.547   1.638  11.878 -0.4704  2.4839 -1.6165
20109TIP3   OH281817   4.173   4.533   0.512  0.3241 -0.0575 -0.1223
20109TIP3    H181818   4.129   4.498   0.434 -0.5877  1.2861 -0.2409
20109TIP3    H281819   4.120   4.502   0.585  0.9780 -1.0248 -0.0501
20110TIP3   OH281820   0.923   6.704   0.241 -0.4736 -0.4106  0.2530
20110TIP3    H181821   1.016   6.717   0.259  0.1143 -3.2131 -0.2716
20110TIP3    H281822   0.905   6.759   0.165  1.3359 -1.3793 -0.9458
20111TIP3   OH281823   1.620   6.104   0.885 -0.2145 -0.2829 -0.5787
20111TIP3    H181824   1.662   6.024   0.853 -0.7798 -0.2661 -1.3770
20111TIP3    H281825   1.531   6.101   0.849 -0.1576  0.8347 -0.8420
20112TIP3   OH281826   1.872   3.702  16.273 -0.3602  0.6766  0.4323
20112TIP3    H181827   1.929   3.627  16.293 -1.7548 -0.2414  1.0893
20112TIP3    H281828   1.834   3.681  16.188 -1.2010  0.3455  0.8838
20113TIP3   OH281829   1.477   3.943   0.183 -0.1879  0.6452  0.0194
20113TIP3    H181830   1.453   4.021   0.233  0.7219  1.5071 -0.8432
20113TIP3    H281831   1.475   3.972   0.091  0.7668 -0.1788 -0.2776
20114TIP3   OH281832   4.607   2.163   4.107  0.1089 -0.6184  0.1394
20114TIP3    H181833   4.576   2.072   4.109 -1.1057 -0.2047  1.5511
20114TIP3    H281834   4.649   2.176   4.192  0.9060 -0.0371 -0.3213
20115TIP3   OH281835   4.713   6.311   6.808  0.0724 -0.3591  0.1919
20115TIP3    H181836   4.803   6.323   6.776 -0.3278 -1.6247 -1.5617
20115TIP3    H281837   4.659   6.353   6.742 -0.7208 -1.5817  0.0399
20116TIP3   OH281838   3.831   2.137   4.696  0.1088  0.0386  0.2685
20116TIP3    H181839   3.770   2.097   4.634 -1.3675  1.1143  0.9492
20116TIP3    H281840   3.876   2.063   4.736 -0.0347 -0.7405 -0.9636
20117TIP3   OH281841   5.661   1.939   4.121 -0.3123  0.1725 -0.6751
20117TIP3    H181842   5.715   1.972   4.192 -0.2147 -1.1640 -0.0875
20117TIP3    H281843   5.582   1.992   4.124  0.2239  0.9644 -0.3917
20118TIP3   OH281844   2.272   2.110  14.642 -0.4287  0.2989  0.3719
20118TIP3    H181845   2.366   2.130  14.653 -0.2752 -0.1376 -0.1189
20118TIP3    H281846   2.239   2.180  14.586 -0.0777 -0.3117 -0.6289
20119TIP3   OH281847   0.186   2.150  16.331 -0.3879 -0.3869  0.0813
20119TIP3    H181848   0.124   2.207  16.376 -0.8642 -0.3435 -0.6084
20119TIP3    H281849   0.132   2.078  16.298 -0.1381 -0.1652 -0.8424
20120TIP3   OH281850   5.042   4.867  14.505  0.5123  0.2064  0.2420
20120TIP3    H181851   5.135   4.877  14.526  0.4922  0.2910  0.2936
20120TIP3    H281852   5.041   4.845  14.412  0.6250 -0.6769  0.4397
20121TIP3   OH281853   0.066   5.166  10.917 -0.0824  0.1653 -0.3108
20121TIP3    H181854  -0.024   5.192  10.935  0.1040  0.0448  0.9269
20121TIP3    H281855   0.066   5.142  10.825 -1.4321 -0.3108 -0.2127
20122TIP3   OH281856   4.671   1.712  12.021 -0.4388 -0.5618  0.1727
20122TIP3    H181857   4.713   1.734  12.104 -0.9013  0.6913  0.0901
20122TIP3    H281858   4.659   1.796  11.977 -0.5448 -1.1741 -1.0050
20123TIP3   OH281859   2.925   0.204  16.014  0.1018  0.2988 -0.5587
20123TIP3    H181860   2.974   0.265  15.960 -0.3191  0.8200 -0.3592
20123TIP3    H281861   2.971   0.202  16.098  0.8464 -0.6286 -0.9675
20124TIP3   OH281862   5.279   1.464   3.571  0.0574 -0.0822  0.2469
20124TIP3    H181863   5.206   1.462   3.509 -1.2916 -1.8490  1.7781
20124TIP3    H281864   5.353   1.426   3.523 -0.2194  0.9869 -1.0654
20125TIP3   OH281865   3.347   3.040   1.216  0.2451  0.3917  0.5754
20125TIP3    H181866   3.252   3.053   1.208  0.3560  0.7760 -0.3036
20125TIP3    H281867   3.358   2.993   1.298 -0.8586 -1.3177 -0.1914
20126TIP3   OH281868   6.570   5.215  12.495  0.2769 -0.7633 -0.0506
20126TIP3    H181869   6.561   5.120  12.484  2.5171 -0.9751 -0.4364
20126TIP3    H281870   6.647   5.238  12.443 -0.5023  1.3686 -0.3610
20127TIP3   OH281871   4.834   1.717   1.999 -0.1536 -1.2306 -0.2004
20127TIP3    H181872   4.869   1.670   1.923  0.9560  0.2809 -0.6770
20127TIP3    H281873   4.903   1.780   2.023 -1.2304 -0.4114  0.9020
20128TIP3   OH281874   1.364   3.482  11.654 -0.1562  0.4182  0.2775
20128TIP3    H181875   1.311   3.541  11.600 -1.2400 -0.4712  0.3458
20128TIP3    H281876   1.376   3.529  11.736  1.8128  1.9448 -0.7910
20129TIP3   OH281877   2.765   0.341   2.182  0.1657 -0.2838 -0.1151
20129TIP3    H181878   2.824   0.300   2.244 -0.2012  0.8475  1.0286
20129TIP3    H281879   2.706   0.271   2.154  0.9007 -1.0063  0.1135
20130TIP3   OH281880   4.885   2.148   3.173  0.1350 -0.4284 -0.7836
20130TIP3    H181881   4.861   2.066   3.129  0.6934 -0.6573 -0.6685
20130TIP3    H281882   4.862   2.133   3.265  1.5041 -0.9877 -0.5033
20131TIP3   OH281883   4.670   1.830   1.814 -0.1829 -0.5425 -0.1106
20131TIP3    H181884   4.622   1.755   1.777  1.3452 -0.8525 -1.5932
20131TIP3    H281885   4.716   1.794   1.890 -1.7748 -0.3788  0.9651
20132TIP3   OH281886   4.839   3.875   1.223  0.2435  0.0956 -0.3960
20132TIP3    H181887   4.769   3.877   1.289  1.6456 -1.0941  1.2336
20132TIP3    H281888   4.840   3.784   1.193  0.4077  0.3575 -1.2109
20133TIP3   OH281889   2.781   6.441   3.741 -0.4383 -0.1190  0.2004
20133TIP3    H181890   2.716   6.506   3.714 -1.8824 -1.3440  0.5966
20133TIP3    H281891   2.741   6.396   3.816  1.1299 -0.5112  0.8376
20134TIP3   OH281892   5.502   6.522  12.767  0.4102 -0.0797  0.2266
20134TIP3    H181893   5.583   6.560  12.802  0.0406  0.3065  0.6829
20134TIP3    H281894   5.456   6.597  12.730 -0.1576 -0.1338  0.8003
20135TIP3   OH281895   5.459   4.823   0.195 -0.2991 -0.6148  0.1162
20135TIP3    H181896   5.450   4.904   0.145 -0.2560 -0.7200 -0.0616
20135TIP3    H281897   5.370   4.787   0.197 -0.2437 -0.7624 -0.1387
20136TIP3   OH281898   2.272   4.570   5.801 -0.5864  0.2050  0.0671
20136TIP3    H181899   2.182   4.581   5.768 -0.7155  0.1807  0.4104
20136TIP3    H281900   2.298   4.484   5.768 -0.9393 -0.0872  0.5368
20137TIP3   OH281901   0.411   4.246  13.881 -0.3647 -0.0069  0.2652
20137TIP3    H181902   0.472   4.224  13.953  2.3602 -0.4638 -2.0004
20137TIP3    H281903   0.342   4.297  13.924  1.2248 -0.0367  3.1764
20138TIP3   OH281904   1.619   6.393  16.541  0.4187  0.2609  0.5626
20138TIP3    H181905   1.631   6.387  16.446 -1.4144 -1.2832  0.3618
20138TIP3    H281906   1.623   6.486  16.560  1.5563  0.5426 -0.9096
20139TIP3   OH281907   1.231   2.444   1.286 -0.0165 -0.1459  0.0064
20139TIP3    H181908   1.251   2.480   1.372 -2.3169  0.9339  0.1734
20139TIP3    H281909   1.140   2.414   1.293 -0.1983 -0.2190 -1.9650
20140TIP3   OH281910   2.687   3.635   1.024  0.2674 -0.1069  0.3697
20140TIP3    H181911   2.771   3.678   1.043  0.2693 -0.8493  2.2694
20140TIP3    H281912   2.645   3.626   1.110 -0.5184 -2.2460 -0.1885
20141TIP3   OH281913   2.010   2.174  12.577  0.6227 -0.0650  0.1429
20141TIP3    H181914   1.929   2.223  12.593  0.0754 -1.7291  3.4235
20141TIP3    H281915   2.074   2.214  12.636  1.8362  0.3086 -1.3668
20142TIP3   OH281916   6.204   0.242  15.761 -0.9803  0.0740 -0.0561
20142TIP3    H181917   6.165   0.290  15.835  0.5275  1.2477  0.0213
20142TIP3    H281918   6.162   0.280  15.683 -0.5792  0.7781  0.0635
20143TIP3   OH281919   4.186   3.606  11.074  0.7715  0.1580 -0.4138
20143TIP3    H181920   4.139   3.663  11.013  0.0867  0.6655  0.5701
20143TIP3    H281921   4.232   3.544  11.017  0.6675  1.0125 -1.4671
20144TIP3   OH281922   1.922   2.785   1.123  0.8821 -0.3754  0.3578
20144TIP3    H181923   1.904   2.811   1.213 -1.1820  0.7767 -0.3330
20144TIP3    H281924   1.968   2.860   1.085 -1.9716  0.9864 -0.6520
20145TIP3   OH281925   6.586   2.332  15.336 -0.3651 -0.2650 -0.4135
20145TIP3    H181926   6.606   2.387  15.411  1.5906  0.0304 -1.0948
20145TIP3    H281927   6.671   2.309  15.299 -1.1587 -2.6091 -0.9972
20146TIP3   OH281928   5.409   2.127   1.771 -0.3057 -0.6617  0.6482
20146TIP3    H181929   5.435   2.217   1.752 -1.3170 -0.4483  0.2231
20146TIP3    H281930   5.492   2.079   1.773  0.3625  0.4446  1.9202
20147TIP3   OH281931   3.615   5.030  16.860 -0.1348 -0.0783  0.4267
20147TIP3    H181932   3.701   5.060  16.889 -0.9629  2.0461  0.8248
20147TIP3    H281933   3.580   4.983  16.935 -0.6990  2.0873  1.6076
20148TIP3   OH281934   2.431   3.703   4.264  0.1404 -0.2491 -0.0969
20148TIP3    H181935   2.354   3.721   4.210  0.4083 -0.8130 -0.6893
20148TIP3    H281936   2.497   3.766   4.233 -0.6750  1.6390  1.8109
20149TIP3   OH281937   2.772   6.187   1.812 -0.3351 -0.4402 -0.3360
20149TIP3    H181938   2.760   6.213   1.721 -0.6637 -0.6672 -0.3606
20149TIP3    H281939   2.759   6.092   1.812  0.5107 -0.5652 -0.1899
20150TIP3   OH281940   5.989   5.538   2.131 -0.0319  0.2078  0.1049
20150TIP3    H181941   6.072   5.534   2.082  0.3040  1.7784  0.4984
20150TIP3    H281942   5.934   5.597   2.079 -1.2997 -1.5913 -0.6788
20151TIP3   OH281943   1.486   4.208   3.816 -0.4119 -0.6855 -0.4414
20151TIP3    H181944   1.399   4.248   3.814  0.5570  1.5170 -1.5306
20151TIP3    H281945   1.513   4.205   3.724  0.0047 -2.9784 -0.3058
20152TIP3   OH281946   4.142   1.573   4.180  0.2347 -0.0321  0.5533
20152TIP3    H181947   4.186   1.584   4.096  1.5660 -0.8656  1.1133
20152TIP3    H281948   4.148   1.659   4.222 -0.3467  0.3576 -0.1502
20153TIP3   OH281949   4.059   0.559  11.705 -0.3494  0.5093 -0.3127
20153TIP3    H181950   4.133   0.515  11.747 -0.1653 -1.2087 -2.2344
20153TIP3    H281951   4.066   0.533  11.613 -1.1223  3.4779 -1.3002
20154TIP3   OH281952   6.607   1.690   6.096  0.7452 -0.2213 -0.5470
20154TIP3    H181953   6.562   1.772   6.078 -0.2213 -0.8673 -1.1369
20154TIP3    H281954   6.657   1.708   6.176  0.4788  0.9021 -0.6084
20155TIP3   OH281955   6.304   1.710  14.522 -0.1755 -0.0654  0.3985
20155TIP3    H181956   6.360   1.641  14.559 -0.5790  0.1466  1.4525
20155TIP3    H281957   6.340   1.726  14.435  1.4529  0.1070  1.0582
20156TIP3   OH281958   3.655   2.951  12.313  0.4315  0.2190  0.4099
20156TIP3    H181959   3.620   3.036  12.287  0.7388  0.5131  0.9583
20156TIP3    H281960   3.626   2.939  12.404 -0.2481 -0.5973  0.1058
20157TIP3   OH281961   3.840   0.362   6.025  0.5000  0.0171 -0.3329
20157TIP3    H181962   3.871   0.317   6.103  1.4802 -0.8119 -1.1635
20157TIP3    H281963   3.765   0.413   6.054  0.9605 -0.1259  1.1776
20158TIP3   OH281964   4.431   1.185  11.789  0.0400  0.0478  0.1883
20158TIP3    H181965   4.475   1.202  11.872  0.2859 -1.5714  0.4285
20158TIP3    H281966   4.346   1.229  11.796 -0.2381 -0.6825  1.5984
20159TIP3   OH281967   6.323   2.877  12.603 -0.2696  0.2350 -0.2417
20159TIP3    H181968   6.236   2.839  12.597 -1.1610  1.6119  2.3658
20159TIP3    H281969   6.362   2.837  12.681 -0.0455  2.2674  0.7649
20160TIP3   OH281970   6.419   4.928  13.050  0.3211 -0.1854  0.5682
20160TIP3    H181971   6.395   5.003  13.104 -0.1699 -0.1170  0.2639
20160TIP3    H281972   6.337   4.883  13.033  0.3782  0.0816 -0.5417
20161TIP3   OH281973   6.173   0.070  14.644  0.0054 -0.6849 -0.2226
20161TIP3    H181974   6.198   0.157  14.614  2.5950 -1.2102  0.1415
20161TIP3    H281975   6.240   0.012  14.608  0.4271 -2.0233  2.4386
20162TIP3   OH281976   2.893   0.021  14.454  0.1603  0.5099 -0.3675
20162TIP3    H181977   2.815   0.016  14.399  0.2834 -1.2859 -0.4169
20162TIP3    H281978   2.958  -0.033  14.409  0.5998 -0.1522  1.0098
20163TIP3   OH281979   4.836   5.497   1.851  0.6623 -0.7955 -0.5333
20163TIP3    H181980   4.781   5.535   1.783  0.6597 -0.6434 -0.4463
20163TIP3    H281981   4.919   5.544   1.843  0.2394  0.1450  0.4268
20164TIP3   OH281982   3.566   3.962  14.375  0.2825 -0.4501  0.0246
20164TIP3    H181983   3.645   4.013  14.393 -1.9119  3.6970 -0.7173
20164TIP3    H281984   3.569   3.946  14.280  0.5649 -0.9082  0.1119
20165TIP3   OH281985   6.021   6.807   4.648  0.7810 -0.0248  0.4033
20165TIP3    H181986   6.091   6.866   4.678  1.7020 -1.2182  0.6721
20165TIP3    H281987   6.058   6.719   4.658 -0.3605 -0.6294 -0.5175
20166TIP3   OH281988   0.978   0.820  16.610 -0.2392  0.3249  0.5421
20166TIP3    H181989   1.020   0.742  16.574 -0.7326  0.4976 -0.4437
20166TIP3    H281990   0.889   0.819  16.574 -0.3577  1.1684  0.7736
20167TIP3   OH281991   3.574   0.264  10.956 -0.1607 -0.4969  0.1601
20167TIP3    H181992   3.665   0.264  10.927 -0.2107  0.5592 -0.0711
20167TIP3    H281993   3.560   0.178  10.994  0.7536 -0.8941 -0.3699
20168TIP3   OH281994   5.221   1.020   0.764 -0.1141 -0.1555 -0.1029
20168TIP3    H181995   5.197   1.100   0.810  1.2876 -0.2568  0.8972
20168TIP3    H281996   5.139   0.987   0.727 -0.7686  1.5437 -0.2462
20169TIP3   OH281997   3.267   4.395   0.356  0.3855 -0.0420 -0.3225
20169TIP3    H181998   3.288   4.367   0.445  0.6870 -1.0138 -0.6789
20169TIP3    H281999   3.296   4.486   0.351  0.3326  0.0256  0.5798
20170TIP3   OH282000   3.572   6.007   0.315  0.3184 -0.3010 -0.1513
20170TIP3    H182001   3.568   6.076   0.248 -0.1245  0.9555  1.1424
20170TIP3    H282002   3.490   6.014   0.363  1.2157 -0.2212  1.4479
20171TIP3   OH282003   6.196   0.355  14.046  0.1456 -0.1506  0.2345
20171TIP3    H182004   6.254   0.290  14.087  0.2262  0.9952  2.0527
20171TIP3    H282005   6.249   0.394  13.977  0.6782 -0.8500  0.2367
20172TIP3   OH282006   6.542   4.084  11.935  0.0964 -0.4474 -0.2537
20172TIP3    H182007   6.576   3.996  11.915 -0.0511 -0.4778 -0.3712
20172TIP3    H282008   6.620   4.138  11.945  0.1861 -0.5734 -0.2651
20173TIP3   OH282009   6.409   1.947  13.189  0.1023 -0.1349 -0.1073
20173TIP3    H182010   6.377   2.033  13.214  0.6698 -0.1499  0.7038
20173TIP3    H282011   6.400   1.945  13.093 -2.4549 -0.2111  0.0806
20174TIP3   OH282012   0.350   0.853  16.799  0.2937 -0.3241 -0.2173
20174TIP3    H182013   0.376   0.931  16.848  0.2575 -0.6596  0.3463
20174TIP3    H282014   0.413   0.786  16.825 -1.0580 -1.1346  1.1354
20175TIP3   OH282015   3.556   4.205  14.975 -0.4147  1.2898 -0.1732
20175TIP3    H182016   3.482   4.244  15.020 -0.6125  0.9609 -0.2116
20175TIP3    H282017   3.604   4.157  15.043  0.2050  2.1456  0.0124
20176TIP3   OH282018   2.460   2.030   3.305  0.7680 -0.2789 -0.0129
20176TIP3    H182019   2.367   2.041   3.326  0.6209  0.0650 -0.8173
20176TIP3    H282020   2.498   1.990   3.384  0.2140  0.8407  0.8408
20177TIP3   OH282021   1.345   5.160   3.926  0.2088  0.0791  0.4003
20177TIP3    H182022   1.438   5.184   3.918  0.5187 -1.1557  0.0563
20177TIP3    H282023   1.346   5.072   3.963 -0.8539  0.2223  0.8151
20178TIP3   OH282024   5.783   1.323  12.804 -0.1620  0.3528 -0.3583
20178TIP3    H182025   5.810   1.231  12.800 -0.2463  0.1358  2.3175
20178TIP3    H282026   5.719   1.326  12.875  0.8105  2.6749  0.5146
20179TIP3   OH282027   3.532   2.423  14.715  0.0373  0.2199 -0.3783
20179TIP3    H182028   3.612   2.375  14.736  0.0755  0.4583  0.0259
20179TIP3    H282029   3.539   2.504  14.765 -1.0180 -0.2783  0.6089
20180TIP3   OH282030   6.714   2.810   3.511  0.6077  0.1592 -0.3369
20180TIP3    H182031   6.747   2.738   3.457  2.7635  1.4337 -0.8394
20180TIP3    H282032   6.633   2.838   3.468  0.5513 -0.9683 -0.9966
20181TIP3   OH282033   5.860   2.603   5.418 -0.8685 -0.1072 -0.2624
20181TIP3    H182034   5.775   2.629   5.384 -1.2171 -1.0230 -0.1127
20181TIP3    H282035   5.885   2.526   5.367  0.1604  0.5017 -0.7186
20182TIP3   OH282036   0.702   3.806   0.770  0.2388 -0.2200  0.1433
20182TIP3    H182037   0.764   3.753   0.821  1.9069  0.5575 -0.9866
20182TIP3    H282038   0.684   3.754   0.692 -1.2293 -0.7970  0.8222
20183TIP3   OH282039   2.817   4.042  10.484  0.1285  0.0743  0.3922
20183TIP3    H182040   2.861   4.103  10.425 -2.5233  0.3773 -1.4678
20183TIP3    H282041   2.814   3.959  10.437 -2.0529  0.3258 -0.0382
20184TIP3   OH282042   1.390   0.623   5.115  0.3760  0.0695  0.1128
20184TIP3    H182043   1.406   0.660   5.202 -1.6171  1.9485 -0.2204
20184TIP3    H282044   1.361   0.534   5.132  0.8992  0.1069  1.3006
20185TIP3   OH282045   6.727   4.505   4.618  0.7722  0.3555  0.0148
20185TIP3    H182046   6.794   4.441   4.595 -1.9842 -2.3034 -1.3321
20185TIP3    H282047   6.756   4.542   4.702  2.1004 -3.3772  1.3986
20186TIP3   OH282048   0.231   4.038  11.027  0.6092 -0.5929  0.1052
20186TIP3    H182049   0.211   4.078  10.943 -0.2191  4.1943  2.2765
20186TIP3    H282050   0.326   4.033  11.030  0.6651 -0.2092 -0.8150
20187TIP3   OH282051   5.625   5.905   4.193 -0.9354 -0.7313  0.3310
20187TIP3    H182052   5.632   5.946   4.280  0.3809  1.7059 -0.8241
20187TIP3    H282053   5.682   5.957   4.137 -0.5032 -3.1983 -1.7108
20188TIP3   OH282054   4.693   0.696  14.452 -0.2817 -0.6985 -0.1083
20188TIP3    H182055   4.704   0.763  14.384 -2.8249 -0.2504 -0.1765
20188TIP3    H282056   4.628   0.636  14.416  0.0065 -1.7432  1.0435
20189TIP3   OH282057   1.139   2.512  16.756 -0.2984 -0.1906  0.1686
20189TIP3    H182058   1.212   2.570  16.732 -0.3248 -0.5508 -0.8105
20189TIP3    H282059   1.170   2.425  16.734 -0.1174 -0.6282  1.9784
20190TIP3   OH282060   2.743   0.336  12.256 -0.1323  0.1801  0.0353
20190TIP3    H182061   2.797   0.405  12.296  0.1250  0.1904 -0.3259
20190TIP3    H282062   2.690   0.382  12.191 -1.9992  0.5081  1.6760
20191TIP3   OH282063   6.440   4.931   0.670  0.1833 -0.5525 -0.0676
20191TIP3    H182064   6.527   4.940   0.631  0.1438 -2.2719 -0.6190
20191TIP3    H282065   6.419   5.019   0.702  2.1219 -0.1080  0.1062
20192TIP3   OH282066   6.234   4.023   5.773  0.0368 -0.2844 -0.0184
20192TIP3    H182067   6.324   4.050   5.794 -1.1852  3.4877  1.1024
20192TIP3    H282068   6.194   4.006   5.858 -0.6135 -0.9752 -0.4519
20193TIP3   OH282069   0.971   0.847   5.364 -0.6408 -0.0080 -0.1097
20193TIP3    H182070   1.056   0.831   5.322 -1.8815 -1.0806 -2.4395
20193TIP3    H282071   0.990   0.909   5.434  2.3701 -1.6608  0.7224
20194TIP3   OH282072   4.041   6.355  16.818  0.6936 -0.5500 -0.7173
20194TIP3    H182073   4.013   6.370  16.728  1.5766 -1.7706 -1.2281
20194TIP3    H282074   4.065   6.262  16.820  0.5373 -0.5802  0.8212
20195TIP3   OH282075   1.235   1.479  16.410  0.3918 -0.4743  0.5992
20195TIP3    H182076   1.290   1.527  16.472 -1.2541  1.5068  0.6288
20195TIP3    H282077   1.297   1.439  16.349  1.8891  1.1456  0.9861
20196TIP3   OH282078   0.510   2.225   5.379  0.6134  0.2410  0.4633
20196TIP3    H182079   0.518   2.297   5.318 -0.3287 -0.0745 -0.0582
20196TIP3    H282080   0.442   2.253   5.441  0.2914 -0.1646  0.2988
20197TIP3   OH282081   0.682   2.480  15.709  0.4449 -0.2576 -0.3737
20197TIP3    H182082   0.687   2.429  15.628  0.5702 -0.8679  0.0096
20197TIP3    H282083   0.602   2.532  15.701  0.5009 -0.2514 -0.9191
20198TIP3   OH282084   3.664   5.965  13.710 -0.2508 -0.0767 -0.3470
20198TIP3    H182085   3.703   5.946  13.795  0.3314 -0.4408 -0.6920
20198TIP3    H282086   3.703   6.049  13.684  1.1377 -0.9488 -1.1709
20199TIP3   OH282087   2.982   4.534  12.838  0.0003  0.3049  0.1134
20199TIP3    H182088   2.984   4.570  12.927 -0.6713 -0.8315  0.6053
20199TIP3    H282089   3.070   4.500  12.824  0.1383  0.5774  0.2981
20200TIP3   OH282090   4.885   0.503   2.125  0.3562  0.1217  0.5726
20200TIP3    H182091   4.955   0.519   2.062 -1.1135  0.2769 -1.0991
20200TIP3    H282092   4.815   0.563   2.099 -0.8607 -0.8700  1.4311
20201TIP3   OH282093   3.931   2.996   2.156  0.3034 -0.4650 -0.4692
20201TIP3    H182094   3.997   2.929   2.142  0.4781 -0.3767 -0.0531
20201TIP3    H282095   3.848   2.950   2.146  0.4008 -0.3804 -2.0298
20202TIP3   OH282096   1.458   4.856  16.244 -0.2161  0.0213 -0.0184
20202TIP3    H182097   1.485   4.931  16.191 -0.1728  0.7632  1.0215
20202TIP3    H282098   1.368   4.839  16.218 -0.5465  1.0530  0.4053
20203TIP3   OH282099   1.246   3.473   3.744  0.0443 -0.2781 -0.7090
20203TIP3    H182100   1.330   3.490   3.701 -0.1769  0.5573 -0.8370
20203TIP3    H282101   1.266   3.407   3.810  0.8899  0.1826 -0.4809
20204TIP3   OH282102   5.034   0.663   0.869 -0.0201  0.3309 -0.1708
20204TIP3    H182103   5.026   0.723   0.795 -0.0939 -1.4635 -1.6658
20204TIP3    H282104   4.965   0.598   0.856  0.0786 -0.1311  1.3829
20205TIP3   OH282105   0.549   0.057  11.974 -0.2764  0.1165 -0.0053
20205TIP3    H182106   0.464   0.096  11.958 -0.0762  0.7656  0.4349
20205TIP3    H282107   0.544  -0.031  11.937 -1.1662  0.1160  0.1139
20206TIP3   OH282108   5.547   2.457  11.807 -0.3646 -0.0802 -0.3679
20206TIP3    H182109   5.471   2.434  11.753 -0.5653  1.1539 -0.6497
20206TIP3    H282110   5.510   2.480  11.892 -0.1772 -0.6905 -0.1169
20207TIP3   OH282111   3.821   1.789  15.131 -0.4998 -0.0919 -0.1600
20207TIP3    H182112   3.760   1.715  15.133  0.1739 -0.6544  0.2423
20207TIP3    H282113   3.781   1.855  15.188 -1.5247  0.2080 -1.2031
20208TIP3   OH282114   0.040   2.974  16.024 -0.5555  1.2412  0.1379
20208TIP3    H182115   0.132   2.986  16.001 -0.3652  0.6836  0.5946
20208TIP3    H282116   0.022   3.046  16.085 -0.2933  1.0723  0.4156
20209TIP3   OH282117   4.775   5.424  16.811  0.6522  0.3014  0.0953
20209TIP3    H182118   4.854   5.370  16.804  1.9535  2.3245 -3.0415
20209TIP3    H282119   4.804   5.503  16.857 -0.5573 -0.4207  2.2260
20210TIP3   OH282120   5.908   1.535  14.849 -0.2933 -0.0005  0.2876
20210TIP3    H182121   5.821   1.530  14.810 -0.4941 -2.7910  0.8614
20210TIP3    H282122   5.949   1.612  14.808 -1.2062 -1.4540 -3.8836
20211TIP3   OH282123   5.132   0.765  14.082  0.0251  0.1958  0.4869
20211TIP3    H182124   5.103   0.828  14.016  0.8494 -0.3360 -0.4137
20211TIP3    H282125   5.170   0.693  14.032 -3.0002 -2.2163  1.3314
20212TIP3   OH282126   5.078   6.535  13.939 -0.4748 -0.2912  0.4466
20212TIP3    H182127   5.063   6.571  13.851  0.2063  0.8578  0.7780
20212TIP3    H282128   5.169   6.556  13.958  0.2182 -2.9334  0.3579
20213TIP3   OH282129   3.872   2.277  15.945  0.3518 -0.1002 -0.2163
20213TIP3    H182130   3.803   2.338  15.971  0.9359  0.0171  1.1841
20213TIP3    H282131   3.908   2.313  15.864 -0.7043  0.2451 -0.5500
20214TIP3   OH282132   3.043   1.554   1.097 -0.3855 -0.4525 -0.1691
20214TIP3    H182133   3.037   1.469   1.141 -3.0196 -0.0410  0.4527
20214TIP3    H282134   2.998   1.541   1.014  1.8982 -0.4108 -1.4760
20215TIP3   OH282135   2.418   4.147   1.648 -0.1017 -0.4619 -0.2869
20215TIP3    H182136   2.393   4.162   1.557  0.2578  0.5183 -0.2368
20215TIP3    H282137   2.447   4.056   1.650  0.4648 -0.3207 -1.2997
20216TIP3   OH282138   1.129   5.882  12.415  0.1111  0.4983  0.2156
20216TIP3    H182139   1.109   5.956  12.358  1.1261  0.3948 -0.2954
20216TIP3    H282140   1.208   5.843  12.378  0.0227 -0.3920  0.9140
20217TIP3   OH282141   2.022   5.170   2.911 -0.0625 -0.5447  0.4843
20217TIP3    H182142   2.097   5.116   2.886  0.6052  0.1024  1.0623
20217TIP3    H282143   1.957   5.107   2.944 -1.0611 -1.4750 -2.8918
20218TIP3   OH282144   3.752   0.615  15.117  0.1396  0.0341 -0.1748
20218TIP3    H182145   3.731   0.524  15.135  2.5063 -0.3572  1.0882
20218TIP3    H282146   3.825   0.611  15.055  0.4647  1.0491  0.1200
20219TIP3   OH282147   3.096   3.132   0.687 -0.1336 -0.0665 -0.8721
20219TIP3    H182148   3.144   3.215   0.690 -0.1282  0.0946 -3.2045
20219TIP3    H282149   3.131   3.081   0.760  1.3014  1.2492 -0.5836
20220TIP3   OH282150   0.422   3.995  15.350  0.5122 -0.4847  0.6298
20220TIP3    H182151   0.334   4.026  15.329  1.8448  2.7078 -0.8060
20220TIP3    H282152   0.418   3.974  15.443 -1.5194  0.5739  0.8460
20221TIP3   OH282153   0.147   3.065  15.277  0.4716 -0.0937 -0.2841
20221TIP3    H182154   0.054   3.051  15.293  0.0630 -0.1633 -2.4005
20221TIP3    H282155   0.172   2.995  15.216  1.9542 -0.1487  0.3406
20222TIP3   OH282156   0.033   5.486  16.141 -0.3363 -0.4196 -0.1427
20222TIP3    H182157   0.034   5.440  16.225 -1.1156 -2.3757 -1.1212
20222TIP3    H282158   0.120   5.470  16.104 -0.0367  0.3327  0.2302
20223TIP3   OH282159   6.719   4.380  11.700 -0.4867 -0.0158 -0.3900
20223TIP3    H182160   6.761   4.361  11.616  0.8322 -1.0216  0.4466
20223TIP3    H282161   6.707   4.294  11.741 -0.2467  0.5077  0.8269
20224TIP3   OH282162   0.245   2.452   1.987  0.0508  0.2901 -0.0988
20224TIP3    H182163   0.162   2.478   1.947  0.5587  3.3160  0.5368
20224TIP3    H282164   0.260   2.518   2.055  2.1865 -1.1533  0.9342
20225TIP3   OH282165   6.725   1.651  12.337  0.1086 -0.5630  0.1289
20225TIP3    H182166   6.743   1.612  12.252  1.4787  0.4017 -0.0624
20225TIP3    H282167   6.811   1.656  12.379 -0.3769  0.0865  1.0776
20226TIP3   OH282168   5.423   5.788  15.489  0.5112 -0.2509  0.0958
20226TIP3    H182169   5.364   5.772  15.563  0.2726 -0.2290 -0.0859
20226TIP3    H282170   5.399   5.875  15.458  0.1723 -0.5176 -0.4040
20227TIP3   OH282171   6.802   2.962  15.487 -0.4876 -0.1104 -0.5231
20227TIP3    H182172   6.717   2.920  15.472 -0.2424 -1.5466  1.6934
20227TIP3    H282173   6.779   3.044  15.532 -0.7305 -0.2035 -0.4721
20228TIP3   OH282174   0.134   5.174  14.046 -0.1860 -0.0188 -0.3053
20228TIP3    H182175   0.128   5.162  13.951 -0.5636 -0.9194 -0.1805
20228TIP3    H282176   0.048   5.205  14.072 -0.2410 -0.2594 -0.1970
20229TIP3   OH282177   4.416   0.774  13.049  0.6207 -0.1175 -0.0779
20229TIP3    H182178   4.477   0.702  13.030 -0.7115 -1.4263  0.4610
20229TIP3    H282179   4.392   0.808  12.963  3.7448  1.9517 -0.3228
20230TIP3   OH282180   2.504   5.365  14.158 -0.1631  0.4724 -0.4158
20230TIP3    H182181   2.478   5.294  14.100 -3.3769  1.8833 -0.9115
20230TIP3    H282182   2.468   5.444  14.117 -0.0058  1.9013  1.9938
20231TIP3   OH282183   3.696   6.694   5.327 -0.2955 -0.4923 -0.6862
20231TIP3    H182184   3.721   6.674   5.417  0.9837  0.9052 -0.6805
20231TIP3    H282185   3.608   6.732   5.335 -0.1952 -0.3790 -0.0116
20232TIP3   OH282186   0.007   4.801  16.350  0.3509  0.1365  0.0603
20232TIP3    H182187  -0.040   4.751  16.284 -0.4306  0.5090  0.3296
20232TIP3    H282188   0.049   4.734  16.404  0.6480 -0.1792 -0.5471
20233TIP3   OH282189   6.490   3.301   5.631 -0.7619  0.0589 -0.1771
20233TIP3    H182190   6.575   3.342   5.612 -1.4511  0.5353 -2.4588
20233TIP3    H282191   6.427   3.350   5.578 -2.1650 -1.6313 -0.1482
20234TIP3   OH282192   1.876   6.008   2.605 -0.4479  0.0425  0.8348
20234TIP3    H182193   1.866   5.927   2.555 -1.2242  1.2472 -1.0580
20234TIP3    H282194   1.794   6.016   2.653  0.1596 -0.9352  2.1010
20235TIP3   OH282195   6.091   2.395  16.356  0.1337  0.9422 -0.2001
20235TIP3    H182196   6.057   2.420  16.442 -0.8636 -0.9913  0.0357
20235TIP3    H282197   6.168   2.341  16.376 -0.1221  0.4564 -0.5099
20236TIP3   OH282198   1.179   0.518  13.811  0.0908 -0.2598  0.9993
20236TIP3    H182199   1.163   0.483  13.899  0.2681  0.2418  1.2354
20236TIP3    H282200   1.273   0.533  13.809 -0.1563  1.6004  1.4452
20237TIP3   OH282201   3.178   6.804   2.360  0.2502  0.1108 -0.4122
20237TIP3    H182202   3.247   6.864   2.388 -2.2891  2.9444  0.2898
20237TIP3    H282203   3.165   6.824   2.268 -2.0960  2.4400  0.3222
20238TIP3   OH282204   1.000   1.718   0.445 -0.2049 -0.4954 -0.0675
20238TIP3    H182205   0.922   1.772   0.462  0.8835  1.4564 -0.9845
20238TIP3    H282206   1.013   1.670   0.527 -1.7547 -0.0547  0.4767
20239TIP3   OH282207   3.227   1.213   4.972  0.3785 -0.2138 -0.2779
20239TIP3    H182208   3.239   1.307   4.964  2.7439 -0.4282  0.0984
20239TIP3    H282209   3.243   1.179   4.884  1.7013 -0.4217  0.0234
20240TIP3   OH282210   0.977   3.961  13.728  0.4273 -0.0948 -0.4750
20240TIP3    H182211   0.885   3.959  13.753  0.4041 -0.0218 -0.5554
20240TIP3    H282212   1.022   3.915  13.799  0.1771 -1.3958 -1.1304
20241TIP3   OH282213   4.640   6.455   1.655 -0.0389 -0.2969  0.1498
20241TIP3    H182214   4.736   6.447   1.653  0.0279  0.5772 -1.3390
20241TIP3    H282215   4.617   6.486   1.568 -1.4017  2.3720  1.3450
20242TIP3   OH282216   4.211   2.081  13.166  0.1816  0.0139 -0.1095
20242TIP3    H182217   4.217   2.006  13.226 -0.0567  1.7013  2.1250
20242TIP3    H282218   4.302   2.096  13.138  0.4477 -0.1838  0.6180
20243TIP3   OH282219   4.017   3.777   1.511 -0.0257 -0.1269 -0.0098
20243TIP3    H182220   3.939   3.832   1.503 -0.0410 -0.3901 -2.1519
20243TIP3    H282221   3.983   3.688   1.518  0.0680 -0.1776 -0.2038
20244TIP3   OH282222   0.222   0.157  12.123  0.2405  0.3647  0.3290
20244TIP3    H182223   0.185   0.194  12.043  0.1276  0.3439  0.3712
20244TIP3    H282224   0.146   0.132  12.175  0.3138 -0.4258  0.0696
20245TIP3   OH282225   5.498   5.919  17.099 -0.0367  0.1388 -0.7461
20245TIP3    H182226   5.540   5.939  17.016  0.0728  0.8258 -0.5316
20245TIP3    H282227   5.425   5.980  17.105 -1.2459 -1.2140 -1.2290
20246TIP3   OH282228   2.036   0.872   6.143 -0.8823  0.0210 -0.4949
20246TIP3    H182229   1.992   0.957   6.139  1.2284  1.2565  0.7626
20246TIP3    H282230   1.986   0.823   6.207 -0.3362  1.5158  1.1658
20247TIP3   OH282231   6.135   2.699  11.767 -0.2221 -0.3752 -0.5857
20247TIP3    H182232   6.078   2.700  11.690 -0.5333  0.2924 -0.3544
20247TIP3    H282233   6.095   2.761  11.827 -0.3984 -1.4374  0.4303
20248TIP3   OH282234   5.443   0.003   4.518  0.4050 -0.3133  0.5617
20248TIP3    H182235   5.380   0.065   4.481  2.0267  0.3307 -1.2946
20248TIP3    H282236   5.442  -0.071   4.457  0.2737 -1.0223  1.4139
20249TIP3   OH282237   4.668   6.343   5.940  0.0958 -0.2809 -0.2432
20249TIP3    H182238   4.599   6.301   5.887  1.1290 -1.7206 -0.5211
20249TIP3    H282239   4.726   6.383   5.875  0.3822 -0.4815 -0.1147
20250TIP3   OH282240   5.030   6.478   2.063  0.0616 -0.2007  0.1820
20250TIP3    H182241   5.056   6.550   2.006  0.9100  0.9683  1.9676
20250TIP3    H282242   4.934   6.480   2.062  0.0709  0.2664 -0.6088
20251TIP3   OH282243   3.750   3.340   0.861  0.6077  0.0911  0.1317
20251TIP3    H182244   3.773   3.346   0.768  1.5319  0.9779  0.4022
20251TIP3    H282245   3.788   3.419   0.900 -3.5446  2.2318  0.4787
20252TIP3   OH282246   3.253   2.013  12.381  0.0629  0.1833  0.5321
20252TIP3    H182247   3.218   2.098  12.353  1.7270  1.0438  0.9566
20252TIP3    H282248   3.291   2.030  12.467  2.0792 -0.5134 -0.1633
20253TIP3   OH282249   6.483   3.055   4.002 -0.2699 -0.0312 -0.4904
20253TIP3    H182250   6.487   3.112   4.079  0.0598 -0.4918 -0.1594
20253TIP3    H282251   6.477   3.115   3.928  0.1857  0.4388 -0.1539
20254TIP3   OH282252   5.502   5.008   1.811 -0.2191  0.2346  0.3215
20254TIP3    H182253   5.596   5.027   1.802 -0.1672  0.5975  1.4155
20254TIP3    H282254   5.493   4.917   1.786  0.4741  0.1245  0.4481
20255TIP3   OH282255   5.104   4.993   4.543  0.1652 -0.1026 -0.1205
20255TIP3    H182256   5.164   4.932   4.501 -0.3624 -0.2394 -0.6988
20255TIP3    H282257   5.160   5.060   4.582  0.8191 -1.3959  1.2715
20256TIP3   OH282258   1.162   4.645   2.785  0.0879  0.5217  0.3502
20256TIP3    H182259   1.166   4.723   2.841  1.1761  0.0670  0.9324
20256TIP3    H282260   1.252   4.633   2.754 -0.2078 -0.1077 -0.2841
20257TIP3   OH282261   3.661   3.823   4.028  0.3440  0.2503 -0.0688
20257TIP3    H182262   3.736   3.795   3.976 -0.3484  1.4604 -1.7859
20257TIP3    H282263   3.651   3.754   4.095  2.7696 -0.0703  0.0369
20258TIP3   OH282264   3.519   3.471   3.437 -0.8398  0.1519  0.8525
20258TIP3    H182265   3.425   3.451   3.443 -0.7325  0.0465  4.8234
20258TIP3    H282266   3.537   3.522   3.516  2.7698 -1.3363  1.1640
20259TIP3   OH282267   6.524   4.656   1.259  0.1678 -0.6776 -0.8318
20259TIP3    H182268   6.449   4.599   1.243 -0.4645  0.3895 -1.8117
20259TIP3    H282269   6.592   4.624   1.199  1.2594 -2.9070  1.4376
20260TIP3   OH282270   4.556   3.877   5.095 -0.2475 -0.2733 -0.0172
20260TIP3    H182271   4.641   3.844   5.064 -0.1651 -0.1966  0.1287
20260TIP3    H282272   4.578   3.936   5.167 -0.5299 -1.6395  1.2399
20261TIP3   OH282273   0.465   6.087   4.522  0.6179  0.7072  0.4520
20261TIP3    H182274   0.440   5.995   4.527  1.5051  0.2181 -2.4157
20261TIP3    H282275   0.386   6.132   4.492  1.0098  0.3522 -1.1849
20262TIP3   OH282276   3.585   2.551   4.690  0.1796 -0.2873  0.3711
20262TIP3    H182277   3.646   2.482   4.715  0.8625 -0.0216 -0.5209
20262TIP3    H282278   3.527   2.561   4.766  0.9092 -0.9082  1.0206
20263LIG     O182279   1.400   1.309   8.426  0.8461 -0.5978 -0.0077
20263LIG     O282280   1.370   1.599   8.784 -0.5568 -0.3190  0.1337
20263LIG     N182281   1.192   1.622   8.637 -0.7249 -0.3723 -0.3340
20263LIG     N282282   1.125   1.440   8.333  0.3109 -0.1760 -0.2081
20263LIG     N382283   1.379   1.470   8.597  0.2621  0.0359 -0.2047
20263LIG     N482284   1.029   1.599   8.462 -0.3386 -0.4201 -0.5475
20263LIG     C182285   1.209   1.462   8.440 -0.8258 -0.2893 -0.1033
20263LIG     C282286   1.154   1.571   8.512 -0.0699 -0.0524 -0.3212
20263LIG     C382287   1.331   1.402   8.480 -1.1818 -0.6046  0.2041
20263LIG     C482288   1.321   1.568   8.675  0.9055  0.5786 -0.2283
20263LIG     C582289   1.024   1.528   8.351 -0.2748  0.0590 -0.2252
20263LIG     C682290   1.124   1.705   8.738  0.1861  0.1334 -0.0705
20263LIG     C782291   1.139   1.344   8.222  0.1070 -0.3162  0.1443
20263LIG     C882292   1.508   1.427   8.649  0.3879 -0.8050  0.1216
20263LIG     H182293   0.941   1.533   8.281  0.5372  1.8271 -1.1346
20263LIG     H282294   1.019   1.729   8.707 -0.4562 -1.3486  0.8651
20263LIG     H382295   1.187   1.795   8.751  2.8031 -1.4846 -0.9474
20263LIG     H482296   1.116   1.657   8.838 -3.2615  0.6377  0.0375
20263LIG     H582297   1.199   1.381   8.136 -0.9931 -0.5406 -0.7455
20263LIG     H682298   1.040   1.312   8.184 -1.1862  0.4549  2.6952
20263LIG     H782299   1.193   1.255   8.262 -0.5072 -0.5731  0.4129
20263LIG     H882300   1.583   1.389   8.576  0.2828 -0.8790  0.0526
20263LIG     H982301   1.516   1.369   8.743  1.8803  1.4635  1.5217
20263LIG    H1082302   1.554   1.521   8.687 -0.7774  0.5784 -1.7185
   6.82884   6.82884  17.20914
