PSF EXT CMAP XPLOR

         2 !NTITLE
* GENERATE LIGAND                                                               
*  DATE:     4/11/25      6:32:46      CREATED BY USER: charmm-gui              

        40 !NATOM
         1 LIG      1        LIG      S        SG311   -0.246000       32.0600           0
         2 LIG      1        LIG      F1       FGA3    -0.177000       18.9980           0
         3 LIG      1        LIG      F2       FGA3    -0.177000       18.9980           0
         4 LIG      1        LIG      F3       FGA3    -0.177000       18.9980           0
         5 LIG      1        LIG      N1       NG301   -0.440000       14.0070           0
         6 LIG      1        LIG      N2       NG2S3   -0.743000       14.0070           0
         7 LIG      1        LIG      C1       CG321    0.430000E-01   12.0110           0
         8 LIG      1        LIG      C2       CG2R61   0.194000       12.0110           0
         9 LIG      1        LIG      C3       CG321   -0.179000       12.0110           0
        10 LIG      1        LIG      C4       CG2R61   0.229000       12.0110           0
        11 LIG      1        LIG      C5       CG2R61   0.990000E-01   12.0110           0
        12 LIG      1        LIG      C6       CG2R61   0.460000E-01   12.0110           0
        13 LIG      1        LIG      C7       CG2R61   0.690000E-01   12.0110           0
        14 LIG      1        LIG      C8       CG321   -0.177000       12.0110           0
        15 LIG      1        LIG      C9       CG2R61  -0.340000E-01   12.0110           0
        16 LIG      1        LIG      C10      CG2R61  -0.325000       12.0110           0
        17 LIG      1        LIG      C11      CG2R61  -0.201000       12.0110           0
        18 LIG      1        LIG      C12      CG2R61  -0.900000E-02   12.0110           0
        19 LIG      1        LIG      C13      CG2R61  -0.108000       12.0110           0
        20 LIG      1        LIG      C14      CG331   -0.273000       12.0110           0
        21 LIG      1        LIG      C15      CG2R61  -0.990000E-01   12.0110           0
        22 LIG      1        LIG      C16      CG2R61  -0.116000       12.0110           0
        23 LIG      1        LIG      C17      CG302    0.589000       12.0110           0
        24 LIG      1        LIG      H1       HGA2     0.900000E-01   1.00800           0
        25 LIG      1        LIG      H2       HGA2     0.900000E-01   1.00800           0
        26 LIG      1        LIG      H3       HGA2     0.900000E-01   1.00800           0
        27 LIG      1        LIG      H4       HGA2     0.900000E-01   1.00800           0
        28 LIG      1        LIG      H5       HGA2     0.900000E-01   1.00800           0
        29 LIG      1        LIG      H6       HGA2     0.900000E-01   1.00800           0
        30 LIG      1        LIG      H7       HGR61    0.118000       1.00800           0
        31 LIG      1        LIG      H8       HGR61    0.115000       1.00800           0
        32 LIG      1        LIG      H9       HGR61    0.118000       1.00800           0
        33 LIG      1        LIG      H10      HGR61    0.115000       1.00800           0
        34 LIG      1        LIG      H11      HGA3     0.900000E-01   1.00800           0
        35 LIG      1        LIG      H12      HGA3     0.900000E-01   1.00800           0
        36 LIG      1        LIG      H13      HGA3     0.900000E-01   1.00800           0
        37 LIG      1        LIG      H14      HGR61    0.115000       1.00800           0
        38 LIG      1        LIG      H15      HGR61    0.115000       1.00800           0
        39 LIG      1        LIG      H16      HGP4     0.353000       1.00800           0
        40 LIG      1        LIG      H17      HGP4     0.353000       1.00800           0

        42 !NBOND: bonds
         1        11         1        12         2        23         3        23
         4        23         5         7         5         8         5        10
         6        13         6        39         6        40         7         9
         7        24         7        25         8        11         8        13
         9        14         9        26         9        27        10        12
        10        17        11        15        12        19        13        18
        14        20        14        28        14        29        15        16
        15        30        16        18        16        23        17        21
        17        31        18        32        19        22        19        33
        20        34        20        35        20        36        21        22
        21        37        22        38

        73 !NTHETA: angles
        11         1        12         7         5         8         7         5        10
         8         5        10        13         6        39        13         6        40
        39         6        40         5         7         9         5         7        24
         5         7        25         9         7        24         9         7        25
        24         7        25         5         8        11         5         8        13
        11         8        13         7         9        14         7         9        26
         7         9        27        14         9        26        14         9        27
        26         9        27         5        10        12         5        10        17
        12        10        17         1        11         8         1        11        15
         8        11        15         1        12        10         1        12        19
        10        12        19         6        13         8         6        13        18
         8        13        18         9        14        20         9        14        28
         9        14        29        20        14        28        20        14        29
        28        14        29        11        15        16        11        15        30
        16        15        30        15        16        18        15        16        23
        18        16        23        10        17        21        10        17        31
        21        17        31        13        18        16        13        18        32
        16        18        32        12        19        22        12        19        33
        22        19        33        14        20        34        14        20        35
        14        20        36        34        20        35        34        20        36
        35        20        36        17        21        22        17        21        37
        22        21        37        19        22        21        19        22        38
        21        22        38         2        23         3         2        23         4
         2        23        16         3        23         4         3        23        16
         4        23        16

       103 !NPHI: dihedrals
         1        11         8         5         1        11         8        13
         1        11        15        16         1        11        15        30
         1        12        10         5         1        12        10        17
         1        12        19        22         1        12        19        33
         2        23        16        15         2        23        16        18
         3        23        16        15         3        23        16        18
         4        23        16        15         4        23        16        18
         5         7         9        14         5         7         9        26
         5         7         9        27         5         8        11        15
         5         8        13         6         5         8        13        18
         5        10        12        19         5        10        17        21
         5        10        17        31         6        13         8        11
         6        13        18        16         6        13        18        32
         7         5         8        11         7         5         8        13
         7         5        10        12         7         5        10        17
         7         9        14        20         7         9        14        28
         7         9        14        29         8         5         7         9
         8         5         7        24         8         5         7        25
         8         5        10        12         8         5        10        17
         8        11         1        12         8        11        15        16
         8        11        15        30         8        13         6        39
         8        13         6        40         8        13        18        16
         8        13        18        32         9         7         5        10
         9        14        20        34         9        14        20        35
         9        14        20        36        10         5         7        24
        10         5         7        25        10         5         8        11
        10         5         8        13        10        12         1        11
        10        12        19        22        10        12        19        33
        10        17        21        22        10        17        21        37
        11         1        12        19        11         8        13        18
        11        15        16        18        11        15        16        23
        12         1        11        15        12        10        17        21
        12        10        17        31        12        19        22        21
        12        19        22        38        13         8        11        15
        13        18        16        15        13        18        16        23
        14         9         7        24        14         9         7        25
        15        16        18        32        17        10        12        19
        17        21        22        19        17        21        22        38
        18        13         6        39        18        13         6        40
        18        16        15        30        19        22        21        37
        20        14         9        26        20        14         9        27
        21        22        19        33        22        21        17        31
        23        16        15        30        23        16        18        32
        24         7         9        26        24         7         9        27
        25         7         9        26        25         7         9        27
        26         9        14        28        26         9        14        29
        27         9        14        28        27         9        14        29
        28        14        20        34        28        14        20        35
        28        14        20        36        29        14        20        34
        29        14        20        35        29        14        20        36
        31        17        21        37        33        19        22        38
        37        21        22        38

         1 !NIMPHI: impropers
         6        40        39        13

         0 !NDON: donors


         0 !NACC: acceptors


         0 !NNB

         0         0         0         0         0         0         0         0
         0         0         0         0         0         0         0         0
         0         0         0         0         0         0         0         0
         0         0         0         0         0         0         0         0
         0         0         0         0         0         0         0         0

         1         0 !NGRP NST2
         0         1         0

         0         0 !NUMLP NUMLPH

         0 !NCRTERM: cross-terms

