* GENERATE LIGAND
*  DATE:     4/11/25      6:32:46      CREATED BY USER: charmm-gui
*
        40  EXT
         1         1  LIG       S               0.4549178528        1.7905747324       -1.2613523416  LIG       1               0.0000000000
         2         1  LIG       F1             -5.2919596602       -0.4379201703        0.3775692614  LIG       1               0.0000000000
         3         1  LIG       F2             -4.8568279591        1.6509484344        0.2226261557  LIG       1               0.0000000000
         4         1  LIG       F3             -4.8228049251        0.4095459127       -1.5291018317  LIG       1               0.0000000000
         5         1  LIG       N1              1.2098618988       -0.5613491371        0.5374474419  LIG       1               0.0000000000
         6         1  LIG       N2             -1.0192508440       -1.9948316799        2.1374566683  LIG       1               0.0000000000
         7         1  LIG       C1              1.6937387110       -1.9079172146        0.9567043108  LIG       1               0.0000000000
         8         1  LIG       C2             -0.2319567860       -0.2524753228        0.4838791773  LIG       1               0.0000000000
         9         1  LIG       C3              2.6616102074       -2.4664394947       -0.0889927240  LIG       1               0.0000000000
        10         1  LIG       C4              2.1682459358        0.5373202684        0.4729567478  LIG       1               0.0000000000
        11         1  LIG       C5             -0.6872260666        0.7877061522       -0.3801430247  LIG       1               0.0000000000
        12         1  LIG       C6              1.9419958819        1.6791171541       -0.3427450240  LIG       1               0.0000000000
        13         1  LIG       C7             -1.2486779256       -1.0327942654        1.1420916303  LIG       1               0.0000000000
        14         1  LIG       C8              1.9967620317       -2.6062328901       -1.4618262915  LIG       1               0.0000000000
        15         1  LIG       C9             -2.0513095746        1.0259269075       -0.5900232220  LIG       1               0.0000000000
        16         1  LIG       C10            -3.0271073874        0.1916007308       -0.0132279214  LIG       1               0.0000000000
        17         1  LIG       C11             3.4219983092        0.4422534336        1.1209107240  LIG       1               0.0000000000
        18         1  LIG       C12            -2.5967517693       -0.8445263671        0.8298790871  LIG       1               0.0000000000
        19         1  LIG       C13             2.9209069115        2.6742408960       -0.4866639356  LIG       1               0.0000000000
        20         1  LIG       C14             2.9571309650       -3.1922583879       -2.4873361030  LIG       1               0.0000000000
        21         1  LIG       C15             4.4163225747        1.4096687518        0.9361878418  LIG       1               0.0000000000
        22         1  LIG       C16             4.1623794396        2.5312131656        0.1443060476  LIG       1               0.0000000000
        23         1  LIG       C17            -4.4792290896        0.4452830558       -0.2322323324  LIG       1               0.0000000000
        24         1  LIG       H1              0.9026412952       -2.6866611453        0.9530396681  LIG       1               0.0000000000
        25         1  LIG       H2              2.1399057900       -1.8709529315        1.9742500899  LIG       1               0.0000000000
        26         1  LIG       H3              2.9775516990       -3.4790621538        0.2537384483  LIG       1               0.0000000000
        27         1  LIG       H4              3.5776327718       -1.8483108671       -0.1775625276  LIG       1               0.0000000000
        28         1  LIG       H5              1.6535654921       -1.6036615682       -1.8097801816  LIG       1               0.0000000000
        29         1  LIG       H6              1.0914587918       -3.2498192001       -1.3729358956  LIG       1               0.0000000000
        30         1  LIG       H7             -2.3490914616        1.8501578287       -1.2282381415  LIG       1               0.0000000000
        31         1  LIG       H8              3.6732560783       -0.4123387961        1.7257502383  LIG       1               0.0000000000
        32         1  LIG       H9             -3.3293472746       -1.4983651207        1.2903866719  LIG       1               0.0000000000
        33         1  LIG       H10             2.7381770205        3.5375157416       -1.1108147592  LIG       1               0.0000000000
        34         1  LIG       H11             3.2887824235       -4.2030291762       -2.1659998527  LIG       1               0.0000000000
        35         1  LIG       H12             3.8521524620       -2.5380065178       -2.5743534191  LIG       1               0.0000000000
        36         1  LIG       H13             2.4703092463       -3.2681755080       -3.4820583751  LIG       1               0.0000000000
        37         1  LIG       H14             5.3838414591        1.2843343522        1.4036665564  LIG       1               0.0000000000
        38         1  LIG       H15             4.9325441119        3.2780833356        0.0088138835  LIG       1               0.0000000000
        39         1  LIG       H16            -0.0409774911       -2.1154654899        2.2882349205  LIG       1               0.0000000000
        40         1  LIG       H17            -1.5908109175       -2.8048438412        1.9964560240  LIG       1               0.0000000000
