* GENERATED BY CHARMM-GUI (HTTP://WWW.CHARMM-GUI.ORG)
*
        23  EXT
         1         1  LIG       S               0.4278000000        1.9562000000       -1.2181000000  LIG       1               0.0000000000
         2         1  LIG       F1             -5.2391000000       -0.4922000000        0.4418000000  LIG       1               0.0000000000
         3         1  LIG       F2             -4.8584000000        1.6358000000        0.2665000000  LIG       1               0.0000000000
         4         1  LIG       F3             -4.8141000000        0.3762000000       -1.5055000000  LIG       1               0.0000000000
         5         1  LIG       N1              1.1844000000       -0.4910000000        0.5437000000  LIG       1               0.0000000000
         6         1  LIG       N2             -0.8394000000       -2.1683000000        1.8282000000  LIG       1               0.0000000000
         7         1  LIG       C1              1.6068000000       -1.8248000000        0.9905000000  LIG       1               0.0000000000
         8         1  LIG       C2             -0.2042000000       -0.2755000000        0.3542000000  LIG       1               0.0000000000
         9         1  LIG       C3              2.5582000000       -2.4583000000       -0.0209000000  LIG       1               0.0000000000
        10         1  LIG       C4              2.1900000000        0.4983000000        0.4008000000  LIG       1               0.0000000000
        11         1  LIG       C5             -0.6727000000        0.8149000000       -0.4051000000  LIG       1               0.0000000000
        12         1  LIG       C6              1.9588000000        1.6649000000       -0.3547000000  LIG       1               0.0000000000
        13         1  LIG       C7             -1.1780000000       -1.1133000000        0.9406000000  LIG       1               0.0000000000
        14         1  LIG       C8              1.9395000000       -2.5830000000       -1.4155000000  LIG       1               0.0000000000
        15         1  LIG       C9             -2.0512000000        1.0289000000       -0.5831000000  LIG       1               0.0000000000
        16         1  LIG       C10            -2.9839000000        0.1770000000       -0.0011000000  LIG       1               0.0000000000
        17         1  LIG       C11             3.4483000000        0.3823000000        1.0313000000  LIG       1               0.0000000000
        18         1  LIG       C12            -2.5468000000       -0.8934000000        0.7643000000  LIG       1               0.0000000000
        19         1  LIG       C13             2.9573000000        2.6462000000       -0.4876000000  LIG       1               0.0000000000
        20         1  LIG       C14             2.9329000000       -3.1563000000       -2.4142000000  LIG       1               0.0000000000
        21         1  LIG       C15             4.4354000000        1.3629000000        0.8998000000  LIG       1               0.0000000000
        22         1  LIG       C16             4.1909000000        2.4942000000        0.1366000000  LIG       1               0.0000000000
        23         1  LIG       C17            -4.4423000000        0.4182000000       -0.1927000000  LIG       1               0.0000000000
